GROningen MAchine for Chemical Simulation
95940
    1G5    HO5'    1   5.513   5.057   2.006
    1G5     O5'    2   5.498   4.969   2.041
    1G5     C5'    3   5.359   4.938   2.035
    1G5     H5'    4   5.312   4.935   1.937
    1G5    H5''    5   5.295   4.999   2.097
    1G5     C4'    6   5.352   4.794   2.092
    1G5     H4'    7   5.253   4.754   2.069
    1G5     O4'    8   5.448   4.704   2.049
    1G5     C1'    9   5.480   4.604   2.141
    1G5     H1'   10   5.448   4.504   2.111
    1G5      N9   11   5.622   4.617   2.191
    1G5      C8   12   5.694   4.732   2.195
    1G5      H8   13   5.657   4.819   2.142
    1G5      N7   14   5.803   4.730   2.268
    1G5      C5   15   5.811   4.592   2.313
    1G5      C6   16   5.896   4.515   2.396
    1G5      O6   17   6.005   4.550   2.457
    1G5      N1   18   5.849   4.384   2.420
    1G5      H1   19   5.910   4.329   2.479
    1G5      C2   20   5.724   4.338   2.387
    1G5      N2   21   5.687   4.224   2.433
    1G5     H21   22   5.748   4.176   2.498
    1G5     H22   23   5.595   4.195   2.405
    1G5      N3   24   5.643   4.408   2.313
    1G5      C4   25   5.691   4.532   2.273
    1G5     C3'   26   5.365   4.783   2.243
    1G5     H3'   27   5.448   4.844   2.281
    1G5     C2'   28   5.387   4.634   2.256
    1G5     H2'   29   5.435   4.614   2.352
    1G5     O2'   30   5.260   4.575   2.243
    1G5    HO2'   31   5.191   4.629   2.282
    1G5     O3'   32   5.245   4.826   2.294
    2G        P   33   5.227   4.870   2.444
    2G      OP1   34   5.089   4.911   2.465
    2G      OP2   35   5.328   4.969   2.480
    2G      O5'   36   5.261   4.739   2.527
    2G      C5'   37   5.164   4.637   2.547
    2G      H5'   38   5.118   4.611   2.452
    2G     H5''   39   5.082   4.677   2.606
    2G      C4'   40   5.223   4.516   2.609
    2G      H4'   41   5.136   4.449   2.609
    2G      O4'   42   5.326   4.449   2.533
    2G      C1'   43   5.434   4.421   2.631
    2G      H1'   44   5.481   4.323   2.619
    2G       N9   45   5.549   4.521   2.620
    2G       C8   46   5.560   4.653   2.565
    2G       H8   47   5.479   4.700   2.513
    2G       N7   48   5.671   4.712   2.589
    2G       C5   49   5.744   4.618   2.665
    2G       C6   50   5.873   4.625   2.725
    2G       O6   51   5.957   4.711   2.715
    2G       N1   52   5.910   4.514   2.802
    2G       H1   53   5.998   4.498   2.850
    2G       C2   54   5.830   4.408   2.807
    2G       N2   55   5.854   4.309   2.887
    2G      H21   56   5.935   4.305   2.948
    2G      H22   57   5.785   4.235   2.887
    2G       N3   58   5.708   4.394   2.756
    2G       C4   59   5.667   4.505   2.681
    2G      C3'   60   5.270   4.550   2.748
    2G      H3'   61   5.312   4.650   2.737
    2G      C2'   62   5.373   4.435   2.774
    2G      H2'   63   5.452   4.461   2.843
    2G      O2'   64   5.318   4.303   2.810
    2G     HO2'   65   5.249   4.317   2.874
    2G      O3'   66   5.164   4.553   2.837
    3G        P   67   5.179   4.664   2.954
    3G      OP1   68   5.062   4.656   3.044
    3G      OP2   69   5.222   4.797   2.894
    3G      O5'   70   5.299   4.614   3.040
    3G      C5'   71   5.297   4.495   3.122
    3G      H5'   72   5.267   4.411   3.059
    3G     H5''   73   5.216   4.507   3.194
    3G      C4'   74   5.421   4.454   3.190
    3G      H4'   75   5.398   4.369   3.254
    3G      O4'   76   5.534   4.430   3.108
    3G      C1'   77   5.643   4.505   3.162
    3G      H1'   78   5.733   4.443   3.165
    3G       N9   79   5.679   4.617   3.077
    3G       C8   80   5.603   4.675   2.977
    3G       H8   81   5.507   4.642   2.939
    3G       N7   82   5.666   4.780   2.921
    3G       C5   83   5.781   4.794   2.995
    3G       C6   84   5.886   4.889   2.977
    3G       O6   85   5.891   4.983   2.891
    3G       N1   86   5.995   4.868   3.062
    3G       H1   87   6.074   4.930   3.049
    3G       C2   88   6.002   4.760   3.136
    3G       N2   89   6.098   4.748   3.222
    3G      H21   90   6.175   4.812   3.236
    3G      H22   91   6.097   4.668   3.284
    3G       N3   92   5.905   4.670   3.157
    3G       C4   93   5.795   4.692   3.081
    3G      C3'   94   5.454   4.565   3.290
    3G      H3'   95   5.440   4.663   3.245
    3G      C2'   96   5.610   4.538   3.306
    3G      H2'   97   5.671   4.620   3.342
    3G      O2'   98   5.628   4.420   3.393
    3G     HO2'   99   5.565   4.428   3.465
    3G      O3'  100   5.387   4.553   3.414
    4U        P  101   5.374   4.668   3.524
    4U      OP1  102   5.328   4.613   3.653
    4U      OP2  103   5.300   4.771   3.450
    4U      O5'  104   5.518   4.723   3.542
    4U      C5'  105   5.614   4.671   3.634
    4U      H5'  106   5.643   4.570   3.604
    4U     H5''  107   5.583   4.667   3.739
    4U      C4'  108   5.743   4.756   3.625
    4U      H4'  109   5.810   4.724   3.704
    4U      O4'  110   5.808   4.761   3.496
    4U      C1'  111   5.867   4.890   3.472
    4U      H1'  112   5.975   4.879   3.467
    4U       N1  113   5.805   4.963   3.363
    4U       C6  114   5.681   4.936   3.323
    4U       H6  115   5.622   4.866   3.380
    4U       C5  116   5.626   4.998   3.215
    4U       H5  117   5.521   4.989   3.193
    4U       C4  118   5.701   5.097   3.145
    4U       O4  119   5.659   5.165   3.054
    4U       N3  120   5.828   5.122   3.192
    4U       H3  121   5.884   5.189   3.142
    4U       C2  122   5.879   5.070   3.311
    4U       O2  123   5.992   5.104   3.358
    4U      C3'  124   5.718   4.898   3.661
    4U      H3'  125   5.632   4.926   3.601
    4U      C2'  126   5.846   4.958   3.603
    4U      H2'  127   5.843   5.066   3.588
    4U      O2'  128   5.952   4.932   3.693
    4U     HO2'  129   5.930   4.966   3.780
    4U      O3'  130   5.695   4.934   3.798
    5U        P  131   5.597   5.054   3.841
    5U      OP1  132   5.602   5.072   3.987
    5U      OP2  133   5.465   5.022   3.773
    5U      O5'  134   5.653   5.187   3.773
    5U      C5'  135   5.761   5.251   3.840
    5U      H5'  136   5.834   5.173   3.865
    5U     H5''  137   5.730   5.291   3.936
    5U      C4'  138   5.847   5.356   3.759
    5U      H4'  139   5.933   5.390   3.817
    5U      O4'  140   5.873   5.319   3.624
    5U      C1'  141   5.868   5.433   3.538
    5U      H1'  142   5.964   5.448   3.488
    5U       N1  143   5.759   5.425   3.438
    5U       C6  144   5.668   5.327   3.445
    5U       H6  145   5.668   5.265   3.533
    5U       C5  146   5.575   5.315   3.351
    5U       H5  147   5.500   5.239   3.356
    5U       C4  148   5.563   5.406   3.235
    5U       O4  149   5.482   5.405   3.153
    5U       N3  150   5.666   5.493   3.231
    5U       H3  151   5.672   5.561   3.157
    5U       C2  152   5.759   5.509   3.327
    5U       O2  153   5.834   5.602   3.312
    5U      C3'  154   5.764   5.479   3.748
    5U      H3'  155   5.670   5.447   3.702
    5U      C2'  156   5.842   5.553   3.632
    5U      H2'  157   5.792   5.629   3.573
    5U      O2'  158   5.966   5.604   3.681
    5U     HO2'  159   5.944   5.673   3.745
    5U      O3'  160   5.747   5.565   3.860
    6A        P  161   5.607   5.623   3.887
    6A      OP1  162   5.605   5.704   4.011
    6A      OP2  163   5.504   5.517   3.874
    6A      O5'  164   5.575   5.715   3.762
    6A      C5'  165   5.652   5.834   3.741
    6A      H5'  166   5.758   5.811   3.728
    6A     H5''  167   5.645   5.901   3.826
    6A      C4'  168   5.601   5.907   3.617
    6A      H4'  169   5.647   6.003   3.593
    6A      O4'  170   5.586   5.820   3.506
    6A      C1'  171   5.473   5.867   3.438
    6A      H1'  172   5.487   5.903   3.336
    6A       N9  173   5.374   5.764   3.427
    6A       C8  174   5.379   5.639   3.476
    6A       H8  175   5.456   5.602   3.543
    6A       N7  176   5.279   5.559   3.446
    6A       C5  177   5.200   5.651   3.372
    6A       C6  178   5.080   5.636   3.298
    6A       N6  179   5.012   5.527   3.295
    6A      H61  180   4.925   5.530   3.243
    6A      H62  181   5.041   5.440   3.336
    6A       N1  182   5.021   5.740   3.225
    6A       C2  183   5.087   5.851   3.233
    6A       H2  184   5.045   5.935   3.180
    6A       N3  185   5.204   5.883   3.293
    6A       C4  186   5.252   5.775   3.367
    6A      C3'  187   5.459   5.952   3.656
    6A      H3'  188   5.392   5.871   3.686
    6A      C2'  189   5.412   5.984   3.515
    6A      H2'  190   5.303   5.983   3.515
    6A      O2'  191   5.468   6.107   3.468
    6A     HO2'  192   5.406   6.139   3.403
    6A      O3'  193   5.450   6.062   3.737
    7G        P  194   5.338   6.080   3.858
    7G      OP1  195   5.396   6.187   3.947
    7G      OP2  196   5.298   5.949   3.914
    7G      O5'  197   5.207   6.132   3.789
    7G      C5'  198   5.196   6.255   3.723
    7G      H5'  199   5.285   6.275   3.664
    7G     H5''  200   5.191   6.329   3.803
    7G      C4'  201   5.060   6.265   3.654
    7G      H4'  202   5.045   6.367   3.618
    7G      O4'  203   5.061   6.180   3.541
    7G      C1'  204   4.930   6.128   3.533
    7G      H1'  205   4.873   6.152   3.443
    7G       N9  206   4.936   5.979   3.558
    7G       C8  207   5.025   5.900   3.628
    7G       H8  208   5.116   5.944   3.667
    7G       N7  209   4.999   5.772   3.622
    7G       C5  210   4.870   5.767   3.566
    7G       C6  211   4.782   5.657   3.531
    7G       O6  212   4.802   5.544   3.566
    7G       N1  213   4.668   5.696   3.462
    7G       H1  214   4.600   5.623   3.449
    7G       C2  215   4.643   5.824   3.432
    7G       N2  216   4.521   5.840   3.378
    7G      H21  217   4.470   5.759   3.347
    7G      H22  218   4.501   5.930   3.338
    7G       N3  219   4.722   5.930   3.456
    7G       C4  220   4.834   5.893   3.523
    7G      C3'  221   4.943   6.239   3.747
    7G      H3'  222   4.967   6.152   3.807
    7G      C2'  223   4.845   6.195   3.637
    7G      H2'  224   4.767   6.132   3.678
    7G      O2'  225   4.787   6.316   3.590
    7G     HO2'  226   4.785   6.382   3.660
    7G      O3'  227   4.896   6.353   3.817
    8G        P  228   4.818   6.356   3.955
    8G      OP1  229   4.757   6.484   3.969
    8G      OP2  230   4.914   6.319   4.052
    8G      O5'  231   4.701   6.241   3.951
    8G      C5'  232   4.578   6.280   3.895
    8G      H5'  233   4.596   6.325   3.798
    8G     H5''  234   4.523   6.347   3.960
    8G      C4'  235   4.490   6.158   3.873
    8G      H4'  236   4.397   6.179   3.820
    8G      O4'  237   4.557   6.070   3.789
    8G      C1'  238   4.536   5.936   3.829
    8G      H1'  239   4.488   5.893   3.741
    8G       N9  240   4.671   5.873   3.873
    8G       C8  241   4.789   5.928   3.933
    8G       H8  242   4.794   6.032   3.959
    8G       N7  243   4.891   5.845   3.943
    8G       C5  244   4.829   5.724   3.916
    8G       C6  245   4.879   5.590   3.901
    8G       O6  246   4.993   5.549   3.920
    8G       N1  247   4.788   5.488   3.870
    8G       H1  248   4.817   5.396   3.842
    8G       C2  249   4.667   5.522   3.822
    8G       N2  250   4.583   5.426   3.797
    8G      H21  251   4.607   5.327   3.793
    8G      H22  252   4.485   5.445   3.787
    8G       N3  253   4.614   5.644   3.826
    8G       C4  254   4.699   5.739   3.874
    8G      C3'  255   4.461   6.077   3.994
    8G      H3'  256   4.557   6.066   4.044
    8G      C2'  257   4.436   5.931   3.942
    8G      H2'  258   4.470   5.861   4.018
    8G      O2'  259   4.309   5.900   3.901
    8G     HO2'  260   4.286   5.807   3.906
    8G      O3'  261   4.359   6.122   4.081
    9G        P  262   4.366   6.074   4.228
    9G      OP1  263   4.252   6.146   4.295
    9G      OP2  264   4.502   6.104   4.286
    9G      O5'  265   4.353   5.919   4.246
    9G      C5'  266   4.224   5.849   4.243
    9G      H5'  267   4.183   5.867   4.144
    9G     H5''  268   4.147   5.901   4.301
    9G      C4'  269   4.231   5.702   4.276
    9G      H4'  270   4.130   5.660   4.268
    9G      O4'  271   4.315   5.637   4.175
    9G      C1'  272   4.396   5.535   4.246
    9G      H1'  273   4.392   5.438   4.197
    9G       N9  274   4.539   5.573   4.245
    9G       C8  275   4.589   5.700   4.276
    9G       H8  276   4.517   5.773   4.309
    9G       N7  277   4.718   5.716   4.263
    9G       C5  278   4.756   5.584   4.225
    9G       C6  279   4.888   5.533   4.208
    9G       O6  280   4.992   5.595   4.230
    9G       N1  281   4.885   5.408   4.158
    9G       H1  282   4.975   5.364   4.144
    9G       C2  283   4.773   5.332   4.152
    9G       N2  284   4.798   5.209   4.138
    9G      H21  285   4.894   5.180   4.134
    9G      H22  286   4.719   5.145   4.135
    9G       N3  287   4.647   5.367   4.177
    9G       C4  288   4.650   5.501   4.220
    9G      C3'  289   4.283   5.665   4.414
    9G      H3'  290   4.359   5.741   4.434
    9G      C2'  291   4.350   5.524   4.393
    9G      H2'  292   4.430   5.515   4.467
    9G      O2'  293   4.263   5.417   4.404
    9G     HO2'  294   4.235   5.418   4.496
    9G      O3'  295   4.175   5.674   4.511
   10U        P  296   4.199   5.613   4.656
   10U      OP1  297   4.174   5.472   4.652
   10U      OP2  298   4.123   5.702   4.743
   10U      O5'  299   4.352   5.640   4.688
   10U      C5'  300   4.415   5.560   4.780
   10U      H5'  301   4.354   5.517   4.860
   10U     H5''  302   4.478   5.623   4.843
   10U      C4'  303   4.493   5.443   4.719
   10U      H4'  304   4.420   5.382   4.666
   10U      O4'  305   4.600   5.474   4.639
   10U      C1'  306   4.675   5.356   4.618
   10U      H1'  307   4.630   5.291   4.543
   10U       N1  308   4.821   5.390   4.597
   10U       C6  309   4.872   5.513   4.624
   10U       H6  310   4.805   5.579   4.677
   10U       C5  311   4.998   5.544   4.584
   10U       H5  312   5.033   5.641   4.617
   10U       C4  313   5.080   5.450   4.523
   10U       O4  314   5.200   5.468   4.492
   10U       N3  315   5.018   5.332   4.479
   10U       H3  316   5.078   5.278   4.419
   10U       C2  317   4.887   5.306   4.500
   10U       O2  318   4.830   5.214   4.453
   10U      C3'  319   4.551   5.355   4.823
   10U      H3'  320   4.591   5.419   4.901
   10U      C2'  321   4.654   5.272   4.745
   10U      H2'  322   4.748   5.276   4.800
   10U      O2'  323   4.599   5.141   4.715
   10U     HO2'  324   4.600   5.078   4.787
   10U      O3'  325   4.444   5.271   4.873
   11U        P  326   4.453   5.199   5.009
   11U      OP1  327   4.322   5.134   5.039
   11U      OP2  328   4.504   5.299   5.103
   11U      O5'  329   4.568   5.084   5.004
   11U      C5'  330   4.548   4.951   4.962
   11U      H5'  331   4.492   4.952   4.869
   11U     H5''  332   4.486   4.895   5.032
   11U      C4'  333   4.687   4.894   4.948
   11U      H4'  334   4.674   4.794   4.908
   11U      O4'  335   4.763   4.962   4.856
   11U      C1'  336   4.902   4.933   4.874
   11U      H1'  337   4.938   4.860   4.801
   11U       N1  338   4.979   5.061   4.866
   11U       C6  339   4.959   5.160   4.963
   11U       H6  340   4.892   5.145   5.047
   11U       C5  341   5.031   5.274   4.957
   11U       H5  342   5.022   5.342   5.041
   11U       C4  343   5.124   5.305   4.847
   11U       O4  344   5.190   5.410   4.836
   11U       N3  345   5.135   5.206   4.753
   11U       H3  346   5.195   5.228   4.675
   11U       C2  347   5.074   5.084   4.760
   11U       O2  348   5.096   4.989   4.684
   11U      C3'  349   4.775   4.889   5.073
   11U      H3'  350   4.761   4.989   5.115
   11U      C2'  351   4.909   4.872   5.015
   11U      H2'  352   4.985   4.925   5.072
   11U      O2'  353   4.950   4.735   4.995
   11U     HO2'  354   4.885   4.683   5.044
   11U      O3'  355   4.751   4.776   5.161
   12A        P  356   4.724   4.807   5.313
   12A      OP1  357   4.703   4.675   5.381
   12A      OP2  358   4.620   4.912   5.323
   12A      O5'  359   4.862   4.857   5.359
   12A      C5'  360   4.984   4.781   5.358
   12A      H5'  361   4.987   4.732   5.261
   12A     H5''  362   4.974   4.703   5.434
   12A      C4'  363   5.101   4.870   5.398
   12A      H4'  364   5.192   4.813   5.382
   12A      O4'  365   5.114   4.982   5.317
   12A      C1'  366   5.181   5.083   5.391
   12A      H1'  367   5.270   5.122   5.341
   12A       N9  368   5.081   5.197   5.402
   12A       C8  369   4.942   5.201   5.377
   12A       H8  370   4.893   5.113   5.338
   12A       N7  371   4.886   5.308   5.411
   12A       C5  372   4.997   5.383   5.468
   12A       C6  373   5.010   5.510   5.527
   12A       N6  374   4.918   5.600   5.531
   12A      H61  375   4.944   5.693   5.559
   12A      H62  376   4.834   5.580   5.477
   12A       N1  377   5.129   5.547   5.579
   12A       C2  378   5.230   5.464   5.573
   12A       H2  379   5.328   5.503   5.600
   12A       N3  380   5.234   5.343   5.526
   12A       C4  381   5.114   5.310   5.471
   12A      C3'  382   5.099   4.920   5.548
   12A      H3'  383   5.008   4.977   5.568
   12A      C2'  384   5.212   5.022   5.531
   12A      H2'  385   5.212   5.100   5.607
   12A      O2'  386   5.338   4.969   5.531
   12A     HO2'  387   5.401   5.040   5.517
   12A      O3'  388   5.117   4.821   5.660
   13G        P  389   5.043   4.845   5.794
   13G      OP1  390   5.069   4.733   5.882
   13G      OP2  391   4.900   4.884   5.762
   13G      O5'  392   5.113   4.980   5.859
   13G      C5'  393   5.250   4.988   5.901
   13G      H5'  394   5.318   4.967   5.818
   13G     H5''  395   5.259   4.911   5.977
   13G      C4'  396   5.288   5.127   5.972
   13G      H4'  397   5.394   5.129   5.998
   13G      O4'  398   5.266   5.229   5.879
   13G      C1'  399   5.203   5.341   5.946
   13G      H1'  400   5.257   5.432   5.919
   13G       N9  401   5.057   5.350   5.906
   13G       C8  402   4.990   5.264   5.820
   13G       H8  403   5.046   5.184   5.773
   13G       N7  404   4.870   5.302   5.782
   13G       C5  405   4.848   5.414   5.872
   13G       C6  406   4.737   5.499   5.886
   13G       O6  407   4.637   5.511   5.812
   13G       N1  408   4.752   5.598   5.978
   13G       H1  409   4.683   5.670   5.992
   13G       C2  410   4.872   5.617   6.048
   13G       N2  411   4.887   5.719   6.134
   13G      H21  412   4.807   5.774   6.160
   13G      H22  413   4.968   5.725   6.194
   13G       N3  414   4.978   5.533   6.042
   13G       C4  415   4.962   5.439   5.948
   13G      C3'  416   5.211   5.160   6.102
   13G      H3'  417   5.108   5.125   6.094
   13G      C2'  418   5.212   5.312   6.101
   13G      H2'  419   5.133   5.354   6.164
   13G      O2'  420   5.341   5.374   6.144
   13G     HO2'  421   5.326   5.468   6.134
   13G      O3'  422   5.281   5.104   6.208
   14G        P  423   5.199   5.019   6.317
   14G      OP1  424   5.289   4.981   6.429
   14G      OP2  425   5.113   4.918   6.257
   14G      O5'  426   5.103   5.136   6.381
   14G      C5'  427   5.179   5.239   6.448
   14G      H5'  428   5.260   5.279   6.387
   14G     H5''  429   5.225   5.187   6.531
   14G      C4'  430   5.087   5.341   6.496
   14G      H4'  431   5.146   5.410   6.555
   14G      O4'  432   5.040   5.420   6.401
   14G      C1'  433   4.905   5.466   6.421
   14G      H1'  434   4.886   5.573   6.417
   14G       N9  435   4.809   5.403   6.337
   14G       C8  436   4.835   5.305   6.243
   14G       H8  437   4.931   5.256   6.243
   14G       N7  438   4.735   5.286   6.158
   14G       C5  439   4.631   5.369   6.204
   14G       C6  440   4.494   5.372   6.159
   14G       O6  441   4.436   5.311   6.065
   14G       N1  442   4.419   5.458   6.235
   14G       H1  443   4.320   5.460   6.219
   14G       C2  444   4.470   5.526   6.341
   14G       N2  445   4.384   5.577   6.419
   14G      H21  446   4.284   5.562   6.411
   14G      H22  447   4.413   5.612   6.509
   14G       N3  448   4.595   5.520   6.385
   14G       C4  449   4.678   5.446   6.313
   14G      C3'  450   4.965   5.296   6.583
   14G      H3'  451   4.923   5.209   6.534
   14G      C2'  452   4.867   5.419   6.558
   14G      H2'  453   4.764   5.385   6.570
   14G      O2'  454   4.901   5.509   6.660
   14G     HO2'  455   4.962   5.461   6.717
   14G      O3'  456   4.994   5.284   6.717
   15G        P  457   4.969   5.150   6.800
   15G      OP1  458   5.021   5.177   6.939
   15G      OP2  459   5.015   5.030   6.731
   15G      O5'  460   4.806   5.140   6.790
   15G      C5'  461   4.710   5.207   6.875
   15G      H5'  462   4.748   5.306   6.899
   15G     H5''  463   4.703   5.144   6.964
   15G      C4'  464   4.571   5.224   6.821
   15G      H4'  465   4.513   5.287   6.890
   15G      O4'  466   4.567   5.294   6.696
   15G      C1'  467   4.465   5.227   6.619
   15G      H1'  468   4.387   5.297   6.590
   15G       N9  469   4.511   5.167   6.487
   15G       C8  470   4.637   5.110   6.465
   15G       H8  471   4.722   5.134   6.527
   15G       N7  472   4.646   5.041   6.356
   15G       C5  473   4.524   5.057   6.297
   15G       C6  474   4.473   5.020   6.171
   15G       O6  475   4.529   4.958   6.092
   15G       N1  476   4.340   5.048   6.152
   15G       H1  477   4.304   5.009   6.066
   15G       C2  478   4.259   5.122   6.242
   15G       N2  479   4.128   5.139   6.224
   15G      H21  480   4.096   5.123   6.130
   15G      H22  481   4.082   5.197   6.293
   15G       N3  482   4.309   5.168   6.360
   15G       C4  483   4.437   5.131   6.379
   15G      C3'  484   4.506   5.083   6.801
   15G      H3'  485   4.579   5.011   6.765
   15G      C2'  486   4.394   5.122   6.700
   15G      H2'  487   4.367   5.041   6.633
   15G      O2'  488   4.273   5.176   6.754
   15G     HO2'  489   4.202   5.170   6.689
   15G      O3'  490   4.457   5.040   6.928
   16U        P  491   4.400   4.892   6.945
   16U      OP1  492   4.380   4.874   7.090
   16U      OP2  493   4.471   4.791   6.867
   16U      O5'  494   4.261   4.889   6.877
   16U      C5'  495   4.144   4.939   6.938
   16U      H5'  496   4.146   5.047   6.953
   16U     H5''  497   4.142   4.892   7.037
   16U      C4'  498   4.007   4.900   6.868
   16U      H4'  499   3.925   4.932   6.931
   16U      O4'  500   3.991   4.969   6.747
   16U      C1'  501   3.927   4.877   6.660
   16U      H1'  502   3.831   4.920   6.630
   16U       N1  503   4.015   4.844   6.546
   16U       C6  504   4.152   4.851   6.556
   16U       H6  505   4.186   4.877   6.655
   16U       C5  506   4.235   4.838   6.449
   16U       H5  507   4.342   4.852   6.460
   16U       C4  508   4.185   4.795   6.322
   16U       O4  509   4.252   4.790   6.219
   16U       N3  510   4.048   4.778   6.316
   16U       H3  511   4.009   4.772   6.223
   16U       C2  512   3.959   4.811   6.418
   16U       O2  513   3.842   4.781   6.410
   16U      C3'  514   3.994   4.754   6.848
   16U      H3'  515   4.086   4.708   6.814
   16U      C2'  516   3.889   4.758   6.739
   16U      H2'  517   3.889   4.678   6.664
   16U      O2'  518   3.756   4.772   6.790
   16U     HO2'  519   3.761   4.756   6.885
   16U      O3'  520   3.934   4.672   6.961
   17U        P  521   3.999   4.532   7.001
   17U      OP1  522   3.901   4.468   7.088
   17U      OP2  523   4.138   4.555   7.046
   17U      O5'  524   4.005   4.454   6.862
   17U      C5'  525   3.886   4.397   6.813
   17U      H5'  526   3.804   4.467   6.827
   17U     H5''  527   3.853   4.314   6.876
   17U      C4'  528   3.892   4.360   6.663
   17U      H4'  529   3.790   4.338   6.635
   17U      O4'  530   3.957   4.465   6.585
   17U      C1'  531   3.987   4.404   6.464
   17U      H1'  532   3.907   4.426   6.393
   17U       N1  533   4.120   4.454   6.412
   17U       C6  534   4.214   4.503   6.500
   17U       H6  535   4.187   4.524   6.602
   17U       C5  536   4.339   4.537   6.457
   17U       H5  537   4.408   4.576   6.530
   17U       C4  538   4.381   4.517   6.317
   17U       O4  539   4.490   4.534   6.271
   17U       N3  540   4.280   4.476   6.233
   17U       H3  541   4.304   4.466   6.135
   17U       C2  542   4.152   4.447   6.271
   17U       O2  543   4.070   4.421   6.183
   17U      C3'  544   3.985   4.241   6.637
   17U      H3'  545   4.082   4.255   6.686
   17U      C2'  546   4.001   4.252   6.484
   17U      H2'  547   4.102   4.221   6.459
   17U      O2'  548   3.893   4.193   6.410
   17U     HO2'  549   3.859   4.125   6.468
   17U      O3'  550   3.925   4.121   6.675
   18A        P  551   4.011   3.989   6.683
   18A      OP1  552   3.918   3.892   6.737
   18A      OP2  553   4.134   4.016   6.759
   18A      O5'  554   4.051   3.958   6.530
   18A      C5'  555   3.971   3.878   6.449
   18A      H5'  556   3.880   3.936   6.431
   18A     H5''  557   3.932   3.791   6.501
   18A      C4'  558   4.035   3.819   6.319
   18A      H4'  559   3.958   3.749   6.285
   18A      O4'  560   4.060   3.918   6.215
   18A      C1'  561   4.181   3.886   6.154
   18A      H1'  562   4.174   3.885   6.046
   18A       N9  563   4.282   3.995   6.173
   18A       C8  564   4.292   4.075   6.283
   18A       H8  565   4.242   4.061   6.377
   18A       N7  566   4.368   4.179   6.270
   18A       C5  567   4.416   4.159   6.137
   18A       C6  568   4.499   4.230   6.044
   18A       N6  569   4.560   4.346   6.068
   18A      H61  570   4.604   4.393   5.990
   18A      H62  571   4.536   4.390   6.156
   18A       N1  572   4.523   4.184   5.923
   18A       C2  573   4.467   4.066   5.884
   18A       H2  574   4.492   4.030   5.785
   18A       N3  575   4.377   3.998   5.951
   18A       C4  576   4.364   4.046   6.079
   18A      C3'  577   4.159   3.738   6.343
   18A      H3'  578   4.218   3.795   6.415
   18A      C2'  579   4.225   3.751   6.208
   18A      H2'  580   4.334   3.742   6.215
   18A      O2'  581   4.187   3.640   6.118
   18A     HO2'  582   4.160   3.561   6.165
   18A      O3'  583   4.133   3.610   6.385
   19G        P  584   4.228   3.537   6.487
   19G      OP1  585   4.177   3.395   6.477
   19G      OP2  586   4.223   3.604   6.614
   19G      O5'  587   4.377   3.550   6.429
   19G      C5'  588   4.425   3.464   6.321
   19G      H5'  589   4.355   3.463   6.237
   19G     H5''  590   4.418   3.363   6.362
   19G      C4'  591   4.559   3.491   6.262
   19G      H4'  592   4.580   3.405   6.198
   19G      O4'  593   4.564   3.615   6.190
   19G      C1'  594   4.685   3.676   6.200
   19G      H1'  595   4.729   3.689   6.101
   19G       N9  596   4.679   3.808   6.272
   19G       C8  597   4.587   3.856   6.360
   19G       H8  598   4.520   3.785   6.405
   19G       N7  599   4.591   3.988   6.380
   19G       C5  600   4.697   4.030   6.294
   19G       C6  601   4.755   4.156   6.261
   19G       O6  602   4.716   4.269   6.297
   19G       N1  603   4.857   4.152   6.179
   19G       H1  604   4.878   4.246   6.150
   19G       C2  605   4.912   4.041   6.126
   19G       N2  606   5.030   4.048   6.060
   19G      H21  607   5.087   4.125   6.090
   19G      H22  608   5.075   3.959   6.041
   19G       N3  609   4.861   3.920   6.152
   19G       C4  610   4.751   3.921   6.231
   19G      C3'  611   4.674   3.506   6.365
   19G      H3'  612   4.645   3.566   6.451
   19G      C2'  613   4.776   3.578   6.275
   19G      H2'  614   4.847   3.635   6.334
   19G      O2'  615   4.840   3.505   6.178
   19G     HO2'  616   4.841   3.415   6.213
   19G      O3'  617   4.719   3.384   6.389
   20G        P  618   4.810   3.355   6.518
   20G      OP1  619   4.867   3.217   6.511
   20G      OP2  620   4.729   3.397   6.635
   20G      O5'  621   4.932   3.454   6.511
   20G      C5'  622   5.064   3.422   6.447
   20G      H5'  623   5.059   3.387   6.344
   20G     H5''  624   5.109   3.336   6.497
   20G      C4'  625   5.155   3.542   6.456
   20G      H4'  626   5.248   3.505   6.413
   20G      O4'  627   5.106   3.652   6.383
   20G      C1'  628   5.135   3.769   6.466
   20G      H1'  629   5.184   3.841   6.400
   20G       N9  630   5.010   3.825   6.530
   20G       C8  631   4.896   3.770   6.572
   20G       H8  632   4.873   3.664   6.568
   20G       N7  633   4.803   3.853   6.616
   20G       C5  634   4.867   3.980   6.602
   20G       C6  635   4.830   4.122   6.622
   20G       O6  636   4.720   4.163   6.663
   20G       N1  637   4.932   4.212   6.609
   20G       H1  638   4.920   4.312   6.620
   20G       C2  639   5.054   4.175   6.559
   20G       N2  640   5.144   4.267   6.535
   20G      H21  641   5.121   4.364   6.553
   20G      H22  642   5.236   4.239   6.505
   20G       N3  643   5.088   4.048   6.536
   20G       C4  644   4.996   3.957   6.563
   20G      C3'  645   5.182   3.589   6.602
   20G      H3'  646   5.086   3.589   6.654
   20G      C2'  647   5.236   3.727   6.573
   20G      H2'  648   5.241   3.791   6.660
   20G      O2'  649   5.359   3.722   6.504
   20G     HO2'  650   5.428   3.707   6.569
   20G      O3'  651   5.272   3.498   6.654
   21G3       P  652   5.261   3.458   6.801
   21G3     OP1  653   5.360   3.356   6.829
   21G3     OP2  654   5.119   3.426   6.836
   21G3     O5'  655   5.313   3.582   6.880
   21G3     C5'  656   5.449   3.630   6.881
   21G3     H5'  657   5.490   3.628   6.780
   21G3    H5''  658   5.504   3.571   6.954
   21G3     C4'  659   5.460   3.773   6.927
   21G3     H4'  660   5.564   3.805   6.917
   21G3     O4'  661   5.384   3.862   6.840
   21G3     C1'  662   5.337   3.967   6.917
   21G3     H1'  663   5.370   4.061   6.871
   21G3      N9  664   5.185   3.955   6.920
   21G3      C8  665   5.109   3.845   6.931
   21G3      H8  666   5.149   3.746   6.949
   21G3      N7  667   4.988   3.864   6.937
   21G3      C5  668   4.976   4.006   6.939
   21G3      C6  669   4.861   4.091   6.957
   21G3      O6  670   4.746   4.049   6.977
   21G3      N1  671   4.886   4.225   6.937
   21G3      H1  672   4.806   4.279   6.905
   21G3      C2  673   5.014   4.270   6.922
   21G3      N2  674   5.031   4.398   6.912
   21G3     H21  675   4.956   4.465   6.902
   21G3     H22  676   5.125   4.435   6.906
   21G3      N3  677   5.126   4.191   6.915
   21G3      C4  678   5.099   4.060   6.928
   21G3     C3'  679   5.409   3.811   7.070
   21G3     H3'  680   5.310   3.771   7.092
   21G3     C2'  681   5.387   3.961   7.061
   21G3     H2'  682   5.313   4.004   7.128
   21G3     O2'  683   5.505   4.030   7.065
   21G3    HO2'  684   5.561   3.985   7.129
   21G3     O3'  685   5.510   3.780   7.171
   21G3    HO3'  686   5.507   3.685   7.177
   22Cl-    Cl-  687   7.746   8.972   3.453
   23Cl-    Cl-  688   9.359   1.736   2.500
   24Cl-    Cl-  689   9.684   6.123   0.802
   25Cl-    Cl-  690   3.243   3.799   5.187
   26Cl-    Cl-  691   0.797   6.657   0.693
   27Cl-    Cl-  692   1.295   1.175   2.944
   28Cl-    Cl-  693   7.545   3.516   2.138
   29Cl-    Cl-  694   7.122   0.628   2.649
   30Cl-    Cl-  695   6.067   7.811   3.444
   31Cl-    Cl-  696   0.003   9.189   2.057
   32Cl-    Cl-  697   7.660   5.254   3.462
   33Cl-    Cl-  698   0.139   4.606   2.703
   34Cl-    Cl-  699   3.225   0.832   9.144
   35Cl-    Cl-  700   6.801   7.712   9.551
   36Cl-    Cl-  701   6.851   8.566   1.644
   37Cl-    Cl-  702   0.248   6.620   6.676
   38Cl-    Cl-  703   0.870   9.242   4.426
   39Cl-    Cl-  704   4.547   0.574   0.603
   40Cl-    Cl-  705   9.167   3.304   9.235
   41Cl-    Cl-  706   3.777   7.871   4.484
   42Cl-    Cl-  707   4.783   0.023   5.556
   43Cl-    Cl-  708   6.291   3.950   2.102
   44Cl-    Cl-  709   7.497   2.800   0.955
   45Cl-    Cl-  710   1.432   2.513   0.057
   46Cl-    Cl-  711   0.177   7.289   7.598
   47Cl-    Cl-  712   0.244   0.239   6.027
   48Cl-    Cl-  713   1.721   9.691   8.212
   49Cl-    Cl-  714   7.651   1.116   3.350
   50Cl-    Cl-  715   7.558   5.929   4.537
   51Cl-    Cl-  716   0.271   1.791   0.858
   52Cl-    Cl-  717   8.643   9.816   5.033
   53Cl-    Cl-  718   4.534   7.251   7.188
   54Cl-    Cl-  719   7.167   2.763   8.927
   55Cl-    Cl-  720   0.283   0.825   3.560
   56Cl-    Cl-  721   6.809   1.880   0.073
   57Cl-    Cl-  722   8.999   4.692   2.536
   58Cl-    Cl-  723   8.743   5.644   2.783
   59Cl-    Cl-  724   0.073   9.790   4.401
   60Cl-    Cl-  725   6.984   7.252   8.306
   61Cl-    Cl-  726   6.846   3.430   3.530
   62Cl-    Cl-  727   7.123   7.974   7.403
   63Cl-    Cl-  728   4.532   5.310   0.584
   64Cl-    Cl-  729   4.900   1.797   2.355
   65Cl-    Cl-  730   8.006   3.876   9.109
   66Cl-    Cl-  731   5.410   5.596   8.785
   67Cl-    Cl-  732   4.209   5.407   1.601
   68Cl-    Cl-  733   7.836   7.797   4.920
   69Cl-    Cl-  734   5.988   8.761   5.040
   70Cl-    Cl-  735   5.792   3.431   8.737
   71Cl-    Cl-  736   8.879   0.411   1.903
   72Cl-    Cl-  737   7.846   0.151   2.027
   73Cl-    Cl-  738   6.015   7.363   0.757
   74Cl-    Cl-  739   4.735   7.795   1.612
   75Cl-    Cl-  740   6.175   1.988   3.354
   76Cl-    Cl-  741   3.239   4.935   9.074
   77Cl-    Cl-  742   7.231   3.851   5.313
   78Cl-    Cl-  743   6.201   3.278   0.637
   79Cl-    Cl-  744   1.181   2.688   3.671
   80Cl-    Cl-  745   1.182   6.645   9.751
   81Cl-    Cl-  746   2.090   8.208   5.638
   82Cl-    Cl-  747   8.478   4.946   2.289
   83Cl-    Cl-  748   2.865   7.792   8.688
   84Cl-    Cl-  749   6.028   4.680   7.181
   85Cl-    Cl-  750   0.436   4.378   7.512
   86Cl-    Cl-  751   1.249   0.344   5.964
   87Cl-    Cl-  752   1.078   5.808   3.396
   88Cl-    Cl-  753   8.077   2.309   7.136
   89Cl-    Cl-  754   1.164   1.694   7.340
   90Cl-    Cl-  755   3.385   0.593   2.130
   91Cl-    Cl-  756   7.969   4.679   7.995
   92Cl-    Cl-  757   8.939   0.232   9.555
   93Cl-    Cl-  758   1.116   4.897   5.037
   94Cl-    Cl-  759   0.076   9.171   6.111
   95Cl-    Cl-  760   3.199   8.175   6.908
   96Cl-    Cl-  761   4.530   3.743   7.622
   97Cl-    Cl-  762   0.047   8.188   9.368
   98Cl-    Cl-  763   3.113   9.151   3.144
   99Cl-    Cl-  764   4.802   9.296   8.275
  100Cl-    Cl-  765   7.431   5.465   0.372
  101Cl-    Cl-  766   7.355   0.893   9.848
  102Cl-    Cl-  767   3.351   4.955   9.845
  103Cl-    Cl-  768   6.062   2.245   8.127
  104Cl-    Cl-  769   7.098   7.767   2.002
  105Cl-    Cl-  770   3.160   8.065   2.704
  106Cl-    Cl-  771   9.814   6.195   5.181
  107K+      K+  772   4.873   4.932   2.355
  108K+      K+  773   3.486   9.568   2.143
  109K+      K+  774   4.752   5.074   5.926
  110K+      K+  775   6.300   5.302   4.413
  111K+      K+  776   4.635   5.320   5.583
  112K+      K+  777   8.246   4.725   1.515
  113K+      K+  778   3.774   5.013   9.575
  114K+      K+  779   0.322   1.820   7.231
  115K+      K+  780   5.845   4.549   4.103
  116K+      K+  781   5.262   8.480   3.829
  117K+      K+  782   7.512   4.659   8.178
  118K+      K+  783   7.365   6.876   0.729
  119K+      K+  784   4.050   6.904   3.194
  120K+      K+  785   0.307   6.657   0.617
  121K+      K+  786   4.236   8.216   2.630
  122K+      K+  787   9.658   6.701   8.480
  123K+      K+  788   6.116   4.755   2.099
  124K+      K+  789   1.704   4.927   1.251
  125K+      K+  790   0.938   0.038   6.756
  126K+      K+  791   4.855   6.246   4.289
  127K+      K+  792   5.438   5.222   2.912
  128K+      K+  793   7.203   0.624   4.832
  129K+      K+  794   8.707   2.453   4.202
  130K+      K+  795   7.177   7.097   4.161
  131K+      K+  796   7.726   2.672   1.876
  132K+      K+  797   5.452   8.585   3.126
  133K+      K+  798   8.559   2.239   0.048
  134K+      K+  799   8.915   0.651   3.614
  135K+      K+  800   4.849   4.523   7.942
  136K+      K+  801   1.666   9.669   3.491
  137K+      K+  802   6.131   9.049   1.196
  138K+      K+  803   3.908   7.623   8.130
  139K+      K+  804   3.327   1.005   1.019
  140K+      K+  805   8.074   7.514   4.251
  141K+      K+  806   9.853   2.421   2.127
  142K+      K+  807   5.336   7.953   8.922
  143K+      K+  808   2.209   7.345   4.404
  144K+      K+  809   5.705   4.974   2.677
  145K+      K+  810   8.549   0.192   8.375
  146K+      K+  811   2.530   3.540   2.649
  147K+      K+  812   8.688   2.605   6.999
  148K+      K+  813   8.149   5.528   9.015
  149K+      K+  814   3.954   3.003   6.988
  150K+      K+  815   3.619   9.577   4.876
  151K+      K+  816   6.822   3.541   0.432
  152K+      K+  817   6.418   7.336   9.413
  153K+      K+  818   9.777   5.933   8.108
  154K+      K+  819   8.085   7.528   1.817
  155K+      K+  820   5.461   6.737   7.537
  156K+      K+  821   5.323   5.514   6.852
  157K+      K+  822   0.199   0.535   9.748
  158K+      K+  823   1.211   3.941   4.694
  159K+      K+  824   7.881   7.633   8.999
  160K+      K+  825   5.141   5.798   4.079
  161K+      K+  826   6.691   2.337   2.934
  162K+      K+  827   0.109   5.653   4.654
  163K+      K+  828   8.948   9.472   6.703
  164K+      K+  829   4.065   6.753   5.108
  165K+      K+  830   5.112   5.527   3.654
  166K+      K+  831   1.404   9.503   5.453
  167K+      K+  832   0.790   6.268   3.210
  168K+      K+  833   0.779   8.665   8.095
  169K+      K+  834   4.542   0.032   0.259
  170K+      K+  835   7.500   0.822   7.786
  171K+      K+  836   2.421   0.295   8.908
  172K+      K+  837   1.192   6.131   5.140
  173K+      K+  838   5.894   1.820   1.567
  174K+      K+  839   9.555   8.169   7.099
  175K+      K+  840   4.536   4.230   6.500
  176K+      K+  841   1.304   2.057   8.721
  177K+      K+  842   4.742   3.741   6.901
  178K+      K+  843   5.719   8.195   3.649
  179K+      K+  844   8.481   0.176   3.075
  180K+      K+  845   3.206   8.319   1.596
  181K+      K+  846   7.703   7.148   4.795
  182K+      K+  847   8.247   3.443   3.272
  183K+      K+  848   2.115   3.960   6.785
  184K+      K+  849   5.567   9.778   3.471
  185K+      K+  850   6.655   8.899   7.274
  186K+      K+  851   7.490   2.970   9.287
  187K+      K+  852   6.919   2.191   1.839
  188K+      K+  853   4.124   5.301   4.883
  189K+      K+  854   4.318   3.491   2.902
  190K+      K+  855   9.012   4.386   5.315
  191K+      K+  856   1.893   4.459   0.604
  192K+      K+  857   6.489   4.966   3.644
  193K+      K+  858   6.244   7.177   1.484
  194K+      K+  859   9.761   7.790   4.490
  195K+      K+  860   6.409   1.986   4.471
  196K+      K+  861   9.731   4.627   3.254
  197K+      K+  862   4.583   4.700   6.103
  198K+      K+  863   9.497   4.229   8.602
  199K+      K+  864   3.090   3.602   6.310
  200K+      K+  865   4.391   8.591   9.512
  201K+      K+  866   1.007   7.883   8.112
  202K+      K+  867   0.869   9.695   5.444
  203K+      K+  868   8.048   0.685   1.648
  204K+      K+  869   4.477   8.069   3.833
  205K+      K+  870   4.185   8.961   7.535
  206K+      K+  871   7.915   1.450   0.749
  207K+      K+  872   4.552   4.023   7.168
  208K+      K+  873   5.364   1.513   7.010
  209K+      K+  874   0.580   0.703   4.472
  210K+      K+  875   2.970   6.804   8.628
  211K+      K+  876   3.299   1.416   8.325
  212WAT      O  877   3.773   7.328   4.507
  212WAT     H1  878   3.796   7.285   4.594
  212WAT     H2  879   3.748   7.424   4.523
  213WAT      O  880   2.533   8.481   3.742
  213WAT     H1  881   2.581   8.550   3.687
  213WAT     H2  882   2.594   8.445   3.812
  214WAT      O  883   3.255   0.812   1.401
  214WAT     H1  884   3.215   0.738   1.346
  214WAT     H2  885   3.237   0.796   1.498
  215WAT      O  886   1.053   5.772   8.923
  215WAT     H1  887   1.020   5.720   9.002
  215WAT     H2  888   1.150   5.790   8.934
  216WAT      O  889   3.634   5.713   7.955
  216WAT     H1  890   3.555   5.657   7.978
  216WAT     H2  891   3.679   5.677   7.873
  217WAT      O  892   3.146   9.453   5.776
  217WAT     H1  893   3.218   9.467   5.709
  217WAT     H2  894   3.180   9.398   5.852
  218WAT      O  895   9.202   6.871   5.872
  218WAT     H1  896   9.179   6.805   5.944
  218WAT     H2  897   9.297   6.856   5.843
  219WAT      O  898   5.604   2.983   7.483
  219WAT     H1  899   5.552   3.065   7.506
  219WAT     H2  900   5.642   2.943   7.567
  220WAT      O  901   1.707   7.353   9.235
  220WAT     H1  902   1.624   7.313   9.275
  220WAT     H2  903   1.697   7.357   9.135
  221WAT      O  904   1.686   9.047   2.881
  221WAT     H1  905   1.764   9.108   2.874
  221WAT     H2  906   1.661   9.015   2.789
  222WAT      O  907   8.404   6.424   0.736
  222WAT     H1  908   8.419   6.326   0.753
  222WAT     H2  909   8.371   6.437   0.642
  223WAT      O  910   4.788   6.967   7.874
  223WAT     H1  911   4.819   7.036   7.808
  223WAT     H2  912   4.835   6.981   7.961
  224WAT      O  913   5.024   7.078   5.855
  224WAT     H1  914   4.949   7.011   5.857
  224WAT     H2  915   5.065   7.085   5.946
  225WAT      O  916   3.441   8.370   0.816
  225WAT     H1  917   3.528   8.397   0.775
  225WAT     H2  918   3.383   8.451   0.826
  226WAT      O  919   1.514   3.184   8.328
  226WAT     H1  920   1.474   3.109   8.380
  226WAT     H2  921   1.478   3.271   8.362
  227WAT      O  922   7.655   0.579   7.167
  227WAT     H1  923   7.586   0.600   7.098
  227WAT     H2  924   7.741   0.555   7.122
  228WAT      O  925   1.931   4.724   6.107
  228WAT     H1  926   1.937   4.796   6.037
  228WAT     H2  927   1.837   4.690   6.111
  229WAT      O  928   7.312   5.875   0.479
  229WAT     H1  929   7.372   5.871   0.399
  229WAT     H2  930   7.343   5.948   0.540
  230WAT      O  931   0.761   3.386   8.533
  230WAT     H1  932   0.820   3.332   8.592
  230WAT     H2  933   0.789   3.482   8.536
  231WAT      O  934   3.559   3.716   1.303
  231WAT     H1  935   3.547   3.676   1.393
  231WAT     H2  936   3.474   3.760   1.274
  232WAT      O  937   3.390   7.632   0.990
  232WAT     H1  938   3.396   7.679   0.901
  232WAT     H2  939   3.393   7.534   0.976
  233WAT      O  940   8.990   5.561   4.519
  233WAT     H1  941   9.050   5.590   4.445
  233WAT     H2  942   8.979   5.636   4.584
  234WAT      O  943   6.225   8.214   3.108
  234WAT     H1  944   6.240   8.116   3.119
  234WAT     H2  945   6.308   8.258   3.074
  235WAT      O  946   9.401   6.521   3.564
  235WAT     H1  947   9.318   6.558   3.605
  235WAT     H2  948   9.377   6.445   3.504
  236WAT      O  949   0.157   0.825   4.199
  236WAT     H1  950   0.137   0.916   4.163
  236WAT     H2  951   0.165   0.760   4.123
  237WAT      O  952   9.530   0.997   9.283
  237WAT     H1  953   9.479   1.009   9.197
  237WAT     H2  954   9.483   0.930   9.340
  238WAT      O  955   0.186   9.708   0.665
  238WAT     H1  956   0.185   9.734   0.569
  238WAT     H2  957   0.102   9.657   0.686
  239WAT      O  958   4.715   1.248   6.189
  239WAT     H1  959   4.675   1.221   6.101
  239WAT     H2  960   4.677   1.336   6.217
  240WAT      O  961   5.529   7.712   4.039
  240WAT     H1  962   5.555   7.794   4.090
  240WAT     H2  963   5.611   7.666   4.005
  241WAT      O  964   0.259   7.681   2.719
  241WAT     H1  965   0.211   7.662   2.633
  241WAT     H2  966   0.343   7.626   2.722
  242WAT      O  967   5.448   5.289   4.051
  242WAT     H1  968   5.463   5.365   3.988
  242WAT     H2  969   5.500   5.209   4.020
  243WAT      O  970   4.184   3.199   5.660
  243WAT     H1  971   4.178   3.285   5.711
  243WAT     H2  972   4.114   3.199   5.588
  244WAT      O  973   7.298   4.285   2.893
  244WAT     H1  974   7.332   4.218   2.826
  244WAT     H2  975   7.375   4.326   2.941
  245WAT      O  976   0.750   9.667   2.518
  245WAT     H1  977   0.819   9.739   2.521
  245WAT     H2  978   0.686   9.686   2.444
  246WAT      O  979   8.136   0.508   9.605
  246WAT     H1  980   8.082   0.434   9.646
  246WAT     H2  981   8.092   0.596   9.626
  247WAT      O  982   6.519   8.630   7.123
  247WAT     H1  983   6.573   8.551   7.154
  247WAT     H2  984   6.454   8.600   7.053
  248WAT      O  985   6.806   5.636   3.287
  248WAT     H1  986   6.716   5.602   3.315
  248WAT     H2  987   6.796   5.728   3.248
  249WAT      O  988   5.022   7.268   0.954
  249WAT     H1  989   4.931   7.227   0.968
  249WAT     H2  990   5.039   7.277   0.855
  250WAT      O  991   1.491   7.822   3.921
  250WAT     H1  992   1.580   7.778   3.912
  250WAT     H2  993   1.484   7.866   4.011
  251WAT      O  994   4.421   2.677   7.632
  251WAT     H1  995   4.516   2.707   7.635
  251WAT     H2  996   4.413   2.596   7.573
  252WAT      O  997   0.386   5.301   3.860
  252WAT     H1  998   0.383   5.224   3.796
  252WAT     H2  999   0.438   5.376   3.819
  253WAT      O 1000   2.997   9.180   7.708
  253WAT     H1 1001   3.054   9.098   7.709
  253WAT     H2 1002   2.901   9.154   7.722
  254WAT      O 1003   3.485   8.055   5.267
  254WAT     H1 1004   3.542   8.104   5.202
  254WAT     H2 1005   3.399   8.105   5.280
  255WAT      O 1006   5.214   3.350   6.029
  255WAT     H1 1007   5.311   3.377   6.029
  255WAT     H2 1008   5.157   3.432   6.025
  256WAT      O 1009   0.695   6.439   6.377
  256WAT     H1 1010   0.790   6.429   6.349
  256WAT     H2 1011   0.639   6.368   6.335
  257WAT      O 1012   8.588   5.217   4.295
  257WAT     H1 1013   8.551   5.245   4.206
  257WAT     H2 1014   8.558   5.283   4.365
  258WAT      O 1015   2.825   0.921   2.189
  258WAT     H1 1016   2.788   0.926   2.096
  258WAT     H2 1017   2.804   1.005   2.238
  259WAT      O 1018   2.097   7.360   8.217
  259WAT     H1 1019   2.172   7.407   8.171
  259WAT     H2 1020   2.102   7.377   8.315
  260WAT      O 1021   6.922   9.817   4.134
  260WAT     H1 1022   6.850   9.835   4.067
  260WAT     H2 1023   7.001   9.777   4.089
  261WAT      O 1024   5.708   6.069   3.251
  261WAT     H1 1025   5.654   6.100   3.330
  261WAT     H2 1026   5.763   6.146   3.218
  262WAT      O 1027   8.638   6.729   7.225
  262WAT     H1 1028   8.602   6.660   7.287
  262WAT     H2 1029   8.713   6.779   7.269
  263WAT      O 1030   2.581   2.912   8.399
  263WAT     H1 1031   2.647   2.983   8.425
  263WAT     H2 1032   2.493   2.933   8.440
  264WAT      O 1033   1.578   6.664   0.632
  264WAT     H1 1034   1.600   6.569   0.653
  264WAT     H2 1035   1.576   6.718   0.716
  265WAT      O 1036   2.985   4.491   3.610
  265WAT     H1 1037   2.995   4.579   3.655
  265WAT     H2 1038   3.036   4.421   3.660
  266WAT      O 1039   4.702   3.541   5.813
  266WAT     H1 1040   4.749   3.629   5.810
  266WAT     H2 1041   4.758   3.472   5.767
  267WAT      O 1042   5.583   7.661   3.158
  267WAT     H1 1043   5.646   7.728   3.118
  267WAT     H2 1044   5.631   7.575   3.175
  268WAT      O 1045   3.268   7.013   4.397
  268WAT     H1 1046   3.216   6.988   4.316
  268WAT     H2 1047   3.321   7.096   4.378
  269WAT      O 1048   8.726   4.918   1.217
  269WAT     H1 1049   8.635   4.960   1.214
  269WAT     H2 1050   8.757   4.912   1.312
  270WAT      O 1051   1.563   4.705   9.729
  270WAT     H1 1052   1.638   4.638   9.731
  270WAT     H2 1053   1.597   4.792   9.692
  271WAT      O 1054   3.104   8.748   3.918
  271WAT     H1 1055   3.200   8.721   3.927
  271WAT     H2 1056   3.083   8.768   3.822
  272WAT      O 1057   2.660   7.654   7.610
  272WAT     H1 1058   2.635   7.557   7.606
  272WAT     H2 1059   2.729   7.667   7.681
  273WAT      O 1060   8.647   3.161   7.753
  273WAT     H1 1061   8.710   3.087   7.773
  273WAT     H2 1062   8.613   3.152   7.659
  274WAT      O 1063   8.996   7.921   2.886
  274WAT     H1 1064   9.062   7.979   2.933
  274WAT     H2 1065   9.006   7.827   2.918
  275WAT      O 1066   2.287   6.715   3.810
  275WAT     H1 1067   2.291   6.707   3.910
  275WAT     H2 1068   2.191   6.718   3.781
  276WAT      O 1069   7.603   3.166   6.228
  276WAT     H1 1070   7.695   3.131   6.207
  276WAT     H2 1071   7.602   3.202   6.321
  277WAT      O 1072   1.952   5.600   5.991
  277WAT     H1 1073   1.979   5.676   6.050
  277WAT     H2 1074   1.867   5.560   6.025
  278WAT      O 1075   4.171   1.214   3.497
  278WAT     H1 1076   4.197   1.311   3.493
  278WAT     H2 1077   4.096   1.197   3.432
  279WAT      O 1078   2.561   7.552   2.545
  279WAT     H1 1079   2.640   7.520   2.599
  279WAT     H2 1080   2.495   7.595   2.606
  280WAT      O 1081   9.694   0.060   7.001
  280WAT     H1 1082   9.613   0.093   6.952
  280WAT     H2 1083   9.776   0.100   6.960
  281WAT      O 1084   0.336   6.925   0.713
  281WAT     H1 1085   0.269   6.999   0.704
  281WAT     H2 1086   0.408   6.936   0.644
  282WAT      O 1087   5.992   8.043   9.261
  282WAT     H1 1088   5.970   8.123   9.205
  282WAT     H2 1089   5.908   8.005   9.299
  283WAT      O 1090   7.962   4.445   3.083
  283WAT     H1 1091   7.945   4.406   2.993
  283WAT     H2 1092   7.895   4.516   3.103
  284WAT      O 1093   1.197   3.588   3.014
  284WAT     H1 1094   1.162   3.502   2.978
  284WAT     H2 1095   1.277   3.569   3.071
  285WAT      O 1096   8.639   7.895   3.682
  285WAT     H1 1097   8.547   7.865   3.705
  285WAT     H2 1098   8.637   7.991   3.654
  286WAT      O 1099   1.138   1.034   6.226
  286WAT     H1 1100   1.050   0.991   6.245
  286WAT     H2 1101   1.197   0.968   6.180
  287WAT      O 1102   7.816   0.287   5.610
  287WAT     H1 1103   7.884   0.214   5.620
  287WAT     H2 1104   7.826   0.329   5.520
  288WAT      O 1105   8.411   1.827   1.424
  288WAT     H1 1106   8.402   1.924   1.400
  288WAT     H2 1107   8.409   1.772   1.341
  289WAT      O 1108   7.142   6.262   2.265
  289WAT     H1 1109   7.121   6.198   2.339
  289WAT     H2 1110   7.065   6.324   2.252
  290WAT      O 1111   9.475   7.336   7.299
  290WAT     H1 1112   9.501   7.433   7.303
  290WAT     H2 1113   9.543   7.282   7.349
  291WAT      O 1114   8.025   3.932   5.218
  291WAT     H1 1115   7.927   3.948   5.210
  291WAT     H2 1116   8.045   3.882   5.302
  292WAT      O 1117   1.821   0.486   4.644
  292WAT     H1 1118   1.862   0.538   4.569
  292WAT     H2 1119   1.729   0.456   4.617
  293WAT      O 1120   4.236   0.797   6.540
  293WAT     H1 1121   4.257   0.701   6.559
  293WAT     H2 1122   4.288   0.828   6.461
  294WAT      O 1123   0.316   8.621   4.064
  294WAT     H1 1124   0.306   8.687   4.138
  294WAT     H2 1125   0.232   8.618   4.010
  295WAT      O 1126   4.605   8.745   2.596
  295WAT     H1 1127   4.656   8.815   2.547
  295WAT     H2 1128   4.589   8.774   2.691
  296WAT      O 1129   1.818   3.470   4.248
  296WAT     H1 1130   1.769   3.546   4.290
  296WAT     H2 1131   1.828   3.487   4.150
  297WAT      O 1132   8.261   3.783   4.536
  297WAT     H1 1133   8.272   3.684   4.526
  297WAT     H2 1134   8.330   3.818   4.598
  298WAT      O 1135   8.450   7.138   7.454
  298WAT     H1 1136   8.399   7.135   7.368
  298WAT     H2 1137   8.531   7.079   7.446
  299WAT      O 1138   1.866   4.944   4.002
  299WAT     H1 1139   1.842   4.853   4.036
  299WAT     H2 1140   1.964   4.959   4.014
  300WAT      O 1141   9.489   0.633   1.662
  300WAT     H1 1142   9.458   0.680   1.744
  300WAT     H2 1143   9.410   0.614   1.603
  301WAT      O 1144   0.045   1.720   8.265
  301WAT     H1 1145   0.091   1.703   8.353
  301WAT     H2 1146   0.096   1.674   8.192
  302WAT      O 1147   9.462   3.487   2.390
  302WAT     H1 1148   9.501   3.490   2.482
  302WAT     H2 1149   9.410   3.570   2.373
  303WAT      O 1150   0.724   1.743   0.227
  303WAT     H1 1151   0.802   1.683   0.244
  303WAT     H2 1152   0.751   1.838   0.247
  304WAT      O 1153   4.766   2.590   9.368
  304WAT     H1 1154   4.674   2.606   9.405
  304WAT     H2 1155   4.825   2.556   9.441
  305WAT      O 1156   4.844   6.936   3.482
  305WAT     H1 1157   4.886   6.882   3.555
  305WAT     H2 1158   4.859   7.033   3.499
  306WAT      O 1159   5.480   0.818   1.726
  306WAT     H1 1160   5.558   0.857   1.677
  306WAT     H2 1161   5.494   0.829   1.825
  307WAT      O 1162   9.854   3.147   5.825
  307WAT     H1 1163   9.789   3.087   5.778
  307WAT     H2 1164   9.918   3.091   5.878
  308WAT      O 1165   1.885   6.728   0.843
  308WAT     H1 1166   1.794   6.763   0.863
  308WAT     H2 1167   1.913   6.755   0.751
  309WAT      O 1168   1.153   5.166   5.548
  309WAT     H1 1169   1.136   5.115   5.464
  309WAT     H2 1170   1.142   5.106   5.627
  310WAT      O 1171   3.714   9.292   1.189
  310WAT     H1 1172   3.767   9.326   1.110
  310WAT     H2 1173   3.710   9.193   1.186
  311WAT      O 1174   5.483   9.372   6.485
  311WAT     H1 1175   5.570   9.375   6.535
  311WAT     H2 1176   5.408   9.395   6.547
  312WAT      O 1177   5.159   2.067   6.614
  312WAT     H1 1178   5.176   2.127   6.536
  312WAT     H2 1179   5.122   2.121   6.690
  313WAT      O 1180   9.091   9.535   1.928
  313WAT     H1 1181   9.061   9.444   1.899
  313WAT     H2 1182   9.155   9.572   1.861
  314WAT      O 1183   3.952   7.212   8.940
  314WAT     H1 1184   3.873   7.160   8.973
  314WAT     H2 1185   4.035   7.176   8.983
  315WAT      O 1186   9.623   9.080   6.525
  315WAT     H1 1187   9.705   9.038   6.563
  315WAT     H2 1188   9.648   9.167   6.481
  316WAT      O 1189   4.848   4.036   8.521
  316WAT     H1 1190   4.777   4.071   8.460
  316WAT     H2 1191   4.879   3.946   8.488
  317WAT      O 1192   8.679   2.358   3.551
  317WAT     H1 1193   8.652   2.270   3.514
  317WAT     H2 1194   8.748   2.400   3.492
  318WAT      O 1195   1.336   6.266   4.936
  318WAT     H1 1196   1.363   6.362   4.930
  318WAT     H2 1197   1.409   6.208   4.899
  319WAT      O 1198   4.648   0.523   7.996
  319WAT     H1 1199   4.589   0.497   7.920
  319WAT     H2 1200   4.614   0.608   8.037
  320WAT      O 1201   8.344   1.230   1.943
  320WAT     H1 1202   8.328   1.264   1.850
  320WAT     H2 1203   8.409   1.153   1.940
  321WAT      O 1204   2.488   4.609   6.495
  321WAT     H1 1205   2.514   4.699   6.458
  321WAT     H2 1206   2.568   4.549   6.494
  322WAT      O 1207   8.507   6.113   5.438
  322WAT     H1 1208   8.444   6.190   5.445
  322WAT     H2 1209   8.456   6.028   5.428
  323WAT      O 1210   9.068   0.729   9.558
  323WAT     H1 1211   9.030   0.649   9.604
  323WAT     H2 1212   9.077   0.710   9.460
  324WAT      O 1213   9.770   0.149   7.693
  324WAT     H1 1214   9.850   0.149   7.632
  324WAT     H2 1215   9.774   0.071   7.754
  325WAT      O 1216   4.591   4.366   9.679
  325WAT     H1 1217   4.537   4.448   9.659
  325WAT     H2 1218   4.609   4.316   9.594
  326WAT      O 1219   2.707   3.987   8.413
  326WAT     H1 1220   2.766   3.941   8.346
  326WAT     H2 1221   2.634   4.036   8.366
  327WAT      O 1222   3.416   0.077   1.306
  327WAT     H1 1223   3.367  -0.009   1.289
  327WAT     H2 1224   3.400   0.139   1.230
  328WAT      O 1225   2.122   7.001   2.506
  328WAT     H1 1226   2.126   6.949   2.592
  328WAT     H2 1227   2.199   7.065   2.503
  329WAT      O 1228   7.202   0.263   0.847
  329WAT     H1 1229   7.157   0.330   0.907
  329WAT     H2 1230   7.192   0.292   0.752
  330WAT      O 1231   4.681   4.661   4.260
  330WAT     H1 1232   4.706   4.573   4.220
  330WAT     H2 1233   4.660   4.726   4.187
  331WAT      O 1234   2.061   4.209   6.912
  331WAT     H1 1235   2.073   4.308   6.917
  331WAT     H2 1236   2.120   4.165   6.981
  332WAT      O 1237   7.105   7.735   9.481
  332WAT     H1 1238   7.162   7.738   9.563
  332WAT     H2 1239   7.010   7.723   9.507
  333WAT      O 1240   7.926   4.157   1.044
  333WAT     H1 1241   7.912   4.216   1.124
  333WAT     H2 1242   8.021   4.165   1.014
  334WAT      O 1243   7.678   0.025   1.351
  334WAT     H1 1244   7.652   0.122   1.347
  334WAT     H2 1245   7.778   0.018   1.357
  335WAT      O 1246   1.320   6.688   8.364
  335WAT     H1 1247   1.243   6.747   8.341
  335WAT     H2 1248   1.384   6.684   8.287
  336WAT      O 1249   5.647   7.105   7.049
  336WAT     H1 1250   5.648   7.086   6.951
  336WAT     H2 1251   5.657   7.019   7.100
  337WAT      O 1252   4.259   0.576   8.356
  337WAT     H1 1253   4.324   0.535   8.291
  337WAT     H2 1254   4.166   0.563   8.322
  338WAT      O 1255   0.257   3.823   5.886
  338WAT     H1 1256   0.203   3.799   5.967
  338WAT     H2 1257   0.216   3.782   5.805
  339WAT      O 1258   0.199   8.479   5.678
  339WAT     H1 1259   0.179   8.552   5.612
  339WAT     H2 1260   0.274   8.508   5.737
  340WAT      O 1261   0.732   5.457   8.671
  340WAT     H1 1262   0.650   5.494   8.715
  340WAT     H2 1263   0.738   5.359   8.687
  341WAT      O 1264   1.548   6.160   0.476
  341WAT     H1 1265   1.580   6.066   0.469
  341WAT     H2 1266   1.451   6.161   0.503
  342WAT      O 1267   9.466   5.832   7.444
  342WAT     H1 1268   9.436   5.928   7.437
  342WAT     H2 1269   9.476   5.794   7.352
  343WAT      O 1270   7.842   8.915   0.081
  343WAT     H1 1271   7.821   8.933   0.177
  343WAT     H2 1272   7.757   8.896   0.031
  344WAT      O 1273   6.156   4.690   9.512
  344WAT     H1 1274   6.065   4.732   9.504
  344WAT     H2 1275   6.185   4.655   9.423
  345WAT      O 1276   5.875   0.390   4.711
  345WAT     H1 1277   5.829   0.439   4.785
  345WAT     H2 1278   5.897   0.453   4.637
  346WAT      O 1279   3.798   2.701   4.454
  346WAT     H1 1280   3.718   2.700   4.394
  346WAT     H2 1281   3.772   2.672   4.546
  347WAT      O 1282   1.500   4.415   4.663
  347WAT     H1 1283   1.538   4.463   4.584
  347WAT     H2 1284   1.524   4.318   4.657
  348WAT      O 1285   9.373   0.319   1.055
  348WAT     H1 1286   9.297   0.351   0.999
  348WAT     H2 1287   9.338   0.270   1.135
  349WAT      O 1288   5.274   7.199   9.178
  349WAT     H1 1289   5.287   7.101   9.192
  349WAT     H2 1290   5.304   7.248   9.260
  350WAT      O 1291   0.318   3.297   9.886
  350WAT     H1 1292   0.397   3.309   9.946
  350WAT     H2 1293   0.253   3.372   9.899
  351WAT      O 1294   1.275   4.284   5.717
  351WAT     H1 1295   1.248   4.361   5.775
  351WAT     H2 1296   1.198   4.257   5.659
  352WAT      O 1297   5.808   7.876   9.372
  352WAT     H1 1298   5.797   7.807   9.301
  352WAT     H2 1299   5.740   7.862   9.444
  353WAT      O 1300   9.338   2.402   1.002
  353WAT     H1 1301   9.368   2.314   1.039
  353WAT     H2 1302   9.253   2.390   0.951
  354WAT      O 1303   5.442   0.594   8.702
  354WAT     H1 1304   5.525   0.647   8.721
  354WAT     H2 1305   5.463   0.496   8.710
  355WAT      O 1306   9.151   3.245   9.551
  355WAT     H1 1307   9.167   3.262   9.454
  355WAT     H2 1308   9.056   3.217   9.565
  356WAT      O 1309   4.519   5.548   0.311
  356WAT     H1 1310   4.508   5.485   0.388
  356WAT     H2 1311   4.541   5.639   0.345
  357WAT      O 1312   6.089   0.909   5.645
  357WAT     H1 1313   6.157   0.971   5.685
  357WAT     H2 1314   6.115   0.887   5.551
  358WAT      O 1315   6.667   3.414   4.906
  358WAT     H1 1316   6.751   3.454   4.943
  358WAT     H2 1317   6.681   3.388   4.811
  359WAT      O 1318   6.428   2.893   9.812
  359WAT     H1 1319   6.466   2.833   9.741
  359WAT     H2 1320   6.389   2.975   9.770
  360WAT      O 1321   1.774   5.273   5.934
  360WAT     H1 1322   1.863   5.309   5.904
  360WAT     H2 1323   1.738   5.333   6.006
  361WAT      O 1324   8.562   3.076   8.343
  361WAT     H1 1325   8.495   3.049   8.412
  361WAT     H2 1326   8.605   2.994   8.305
  362WAT      O 1327   8.144   3.330   8.761
  362WAT     H1 1328   8.242   3.318   8.751
  362WAT     H2 1329   8.119   3.323   8.857
  363WAT      O 1330   9.479   1.524   9.731
  363WAT     H1 1331   9.536   1.467   9.673
  363WAT     H2 1332   9.525   1.540   9.818
  364WAT      O 1333   3.764   8.209   5.785
  364WAT     H1 1334   3.675   8.197   5.741
  364WAT     H2 1335   3.818   8.275   5.733
  365WAT      O 1336   8.669   6.984   0.906
  365WAT     H1 1337   8.651   7.082   0.904
  365WAT     H2 1338   8.600   6.939   0.964
  366WAT      O 1339   7.983   0.354   3.702
  366WAT     H1 1340   7.930   0.269   3.700
  366WAT     H2 1341   7.926   0.428   3.666
  367WAT      O 1342   7.477   5.973   6.059
  367WAT     H1 1343   7.386   6.009   6.038
  367WAT     H2 1344   7.502   5.997   6.153
  368WAT      O 1345   3.297   6.416   0.825
  368WAT     H1 1346   3.279   6.475   0.745
  368WAT     H2 1347   3.211   6.402   0.874
  369WAT      O 1348   0.716   1.721   8.392
  369WAT     H1 1349   0.645   1.679   8.450
  369WAT     H2 1350   0.695   1.818   8.378
  370WAT      O 1351   5.771   8.473   6.583
  370WAT     H1 1352   5.758   8.491   6.680
  370WAT     H2 1353   5.697   8.517   6.531
  371WAT      O 1354   6.010   4.027   5.662
  371WAT     H1 1355   5.930   3.997   5.610
  371WAT     H2 1356   5.991   4.114   5.706
  372WAT      O 1357   5.382   0.857   7.425
  372WAT     H1 1358   5.284   0.880   7.424
  372WAT     H2 1359   5.404   0.804   7.342
  373WAT      O 1360   2.477   5.021   3.144
  373WAT     H1 1361   2.455   4.970   3.227
  373WAT     H2 1362   2.570   4.998   3.115
  374WAT      O 1363   0.164   5.486   3.193
  374WAT     H1 1364   0.188   5.445   3.105
  374WAT     H2 1365   0.247   5.516   3.239
  375WAT      O 1366   2.714   7.870   0.148
  375WAT     H1 1367   2.813   7.865   0.161
  375WAT     H2 1368   2.682   7.787   0.102
  376WAT      O 1369   8.269   2.137   3.013
  376WAT     H1 1370   8.326   2.060   2.986
  376WAT     H2 1371   8.185   2.103   3.056
  377WAT      O 1372   8.407   8.045   2.444
  377WAT     H1 1373   8.478   7.978   2.424
  377WAT     H2 1374   8.325   7.997   2.477
  378WAT      O 1375   8.728   5.411   2.087
  378WAT     H1 1376   8.774   5.377   2.005
  378WAT     H2 1377   8.796   5.443   2.152
  379WAT      O 1378   4.356   5.966   7.108
  379WAT     H1 1379   4.271   5.918   7.128
  379WAT     H2 1380   4.360   6.050   7.161
  380WAT      O 1381   0.081   2.975   7.911
  380WAT     H1 1382   0.030   2.895   7.943
  380WAT     H2 1383   0.050   3.057   7.959
  381WAT      O 1384   8.140   7.355   7.257
  381WAT     H1 1385   8.164   7.258   7.244
  381WAT     H2 1386   8.065   7.378   7.195
  382WAT      O 1387   1.303   2.754   3.084
  382WAT     H1 1388   1.346   2.812   3.152
  382WAT     H2 1389   1.358   2.755   3.000
  383WAT      O 1390   7.725   8.092   4.113
  383WAT     H1 1391   7.702   8.006   4.159
  383WAT     H2 1392   7.749   8.074   4.018
  384WAT      O 1393   0.666   3.331   1.854
  384WAT     H1 1394   0.647   3.242   1.815
  384WAT     H2 1395   0.656   3.402   1.783
  385WAT      O 1396   8.538   5.359   3.303
  385WAT     H1 1397   8.510   5.421   3.230
  385WAT     H2 1398   8.543   5.266   3.268
  386WAT      O 1399   3.297   1.814   9.555
  386WAT     H1 1400   3.382   1.844   9.599
  386WAT     H2 1401   3.226   1.884   9.569
  387WAT      O 1402   5.896   1.886   6.360
  387WAT     H1 1403   5.842   1.937   6.292
  387WAT     H2 1404   5.890   1.788   6.341
  388WAT      O 1405   2.354   4.382   0.793
  388WAT     H1 1406   2.375   4.301   0.737
  388WAT     H2 1407   2.439   4.428   0.819
  389WAT      O 1408   1.912   7.941   3.848
  389WAT     H1 1409   1.995   7.924   3.902
  389WAT     H2 1410   1.896   8.039   3.842
  390WAT      O 1411   0.090   6.798   7.686
  390WAT     H1 1412   0.028   6.748   7.748
  390WAT     H2 1413   0.049   6.801   7.595
  391WAT      O 1414   5.502   8.017   5.083
  391WAT     H1 1415   5.564   8.071   5.026
  391WAT     H2 1416   5.546   7.931   5.108
  392WAT      O 1417   4.248   8.104   5.850
  392WAT     H1 1418   4.271   8.043   5.926
  392WAT     H2 1419   4.188   8.177   5.882
  393WAT      O 1420   4.983   3.076   0.564
  393WAT     H1 1421   4.973   3.032   0.653
  393WAT     H2 1422   4.907   3.138   0.549
  394WAT      O 1423   4.406   9.454   7.992
  394WAT     H1 1424   4.325   9.502   7.958
  394WAT     H2 1425   4.475   9.520   8.021
  395WAT      O 1426   0.765   1.644   5.002
  395WAT     H1 1427   0.828   1.707   5.047
  395WAT     H2 1428   0.768   1.658   4.903
  396WAT      O 1429   5.042   8.813   4.186
  396WAT     H1 1430   5.079   8.789   4.096
  396WAT     H2 1431   5.095   8.767   4.257
  397WAT      O 1432   5.551   3.434   1.732
  397WAT     H1 1433   5.477   3.473   1.677
  397WAT     H2 1434   5.566   3.490   1.813
  398WAT      O 1435   6.283   6.572   5.409
  398WAT     H1 1436   6.200   6.622   5.382
  398WAT     H2 1437   6.357   6.636   5.426
  399WAT      O 1438   7.374   6.970   3.562
  399WAT     H1 1439   7.451   7.002   3.616
  399WAT     H2 1440   7.306   7.043   3.554
  400WAT      O 1441   6.929   1.413   3.519
  400WAT     H1 1442   6.958   1.485   3.582
  400WAT     H2 1443   6.847   1.368   3.556
  401WAT      O 1444   0.982   3.761   1.700
  401WAT     H1 1445   1.030   3.673   1.694
  401WAT     H2 1446   0.959   3.793   1.608
  402WAT      O 1447   8.614   5.601   7.133
  402WAT     H1 1448   8.706   5.574   7.105
  402WAT     H2 1449   8.569   5.650   7.059
  403WAT      O 1450   6.799   9.642   0.006
  403WAT     H1 1451   6.844   9.607  -0.076
  403WAT     H2 1452   6.864   9.697   0.059
  404WAT      O 1453   8.297   7.712   1.336
  404WAT     H1 1454   8.353   7.692   1.256
  404WAT     H2 1455   8.326   7.799   1.376
  405WAT      O 1456   4.288   4.016   4.370
  405WAT     H1 1457   4.260   3.981   4.460
  405WAT     H2 1458   4.222   4.084   4.339
  406WAT      O 1459   1.463   3.218   5.012
  406WAT     H1 1460   1.439   3.149   5.080
  406WAT     H2 1461   1.502   3.173   4.932
  407WAT      O 1462   4.035   0.908   6.045
  407WAT     H1 1463   4.055   0.810   6.041
  407WAT     H2 1464   4.069   0.952   5.962
  408WAT      O 1465   9.255   6.322   0.548
  408WAT     H1 1466   9.247   6.223   0.559
  408WAT     H2 1467   9.264   6.365   0.637
  409WAT      O 1468   5.775   7.354   4.081
  409WAT     H1 1469   5.817   7.394   3.999
  409WAT     H2 1470   5.683   7.392   4.093
  410WAT      O 1471   7.611   5.323   8.703
  410WAT     H1 1472   7.560   5.294   8.622
  410WAT     H2 1473   7.707   5.301   8.691
  411WAT      O 1474   7.331   0.055   0.751
  411WAT     H1 1475   7.335  -0.016   0.821
  411WAT     H2 1476   7.306   0.142   0.793
  412WAT      O 1477   7.889   7.606   5.298
  412WAT     H1 1478   7.930   7.594   5.388
  412WAT     H2 1479   7.891   7.703   5.273
  413WAT      O 1480   6.647   8.880   7.927
  413WAT     H1 1481   6.672   8.880   7.831
  413WAT     H2 1482   6.568   8.820   7.941
  414WAT      O 1483   9.040   7.495   0.619
  414WAT     H1 1484   9.072   7.589   0.608
  414WAT     H2 1485   9.078   7.439   0.545
  415WAT      O 1486   6.608   4.011   2.712
  415WAT     H1 1487   6.698   4.051   2.728
  415WAT     H2 1488   6.561   3.998   2.799
  416WAT      O 1489   5.998   2.037   3.939
  416WAT     H1 1490   5.900   2.052   3.926
  416WAT     H2 1491   6.043   2.035   3.849
  417WAT      O 1492   9.694   9.152   9.025
  417WAT     H1 1493   9.670   9.128   9.119
  417WAT     H2 1494   9.789   9.181   9.021
  418WAT      O 1495   8.065   9.360   5.505
  418WAT     H1 1496   8.078   9.434   5.439
  418WAT     H2 1497   8.005   9.391   5.579
  419WAT      O 1498   8.229   4.560   2.949
  419WAT     H1 1499   8.189   4.501   3.019
  419WAT     H2 1500   8.160   4.623   2.915
  420WAT      O 1501   5.855   4.545   0.362
  420WAT     H1 1502   5.916   4.508   0.432
  420WAT     H2 1503   5.828   4.471   0.300
  421WAT      O 1504   1.738   7.012   6.046
  421WAT     H1 1505   1.800   7.006   5.968
  421WAT     H2 1506   1.661   6.951   6.032
  422WAT      O 1507   3.572   8.844   2.846
  422WAT     H1 1508   3.649   8.781   2.853
  422WAT     H2 1509   3.606   8.934   2.818
  423WAT      O 1510   1.714   3.978   6.471
  423WAT     H1 1511   1.638   4.031   6.433
  423WAT     H2 1512   1.785   4.040   6.503
  424WAT      O 1513   2.298   8.535   2.894
  424WAT     H1 1514   2.207   8.551   2.856
  424WAT     H2 1515   2.360   8.506   2.822
  425WAT      O 1516   3.770   4.937   4.626
  425WAT     H1 1517   3.749   4.965   4.533
  425WAT     H2 1518   3.732   4.846   4.644
  426WAT      O 1519   2.680   3.197   2.765
  426WAT     H1 1520   2.640   3.267   2.824
  426WAT     H2 1521   2.606   3.144   2.722
  427WAT      O 1522   5.624   2.308   8.268
  427WAT     H1 1523   5.623   2.246   8.347
  427WAT     H2 1524   5.626   2.255   8.184
  428WAT      O 1525   1.863   7.370   9.783
  428WAT     H1 1526   1.891   7.417   9.700
  428WAT     H2 1527   1.899   7.419   9.863
  429WAT      O 1528   7.128   2.593   7.886
  429WAT     H1 1529   7.046   2.539   7.906
  429WAT     H2 1530   7.118   2.685   7.923
  430WAT      O 1531   4.683   9.161   2.232
  430WAT     H1 1532   4.713   9.257   2.237
  430WAT     H2 1533   4.754   9.107   2.187
  431WAT      O 1534   2.042   4.408   5.720
  431WAT     H1 1535   1.989   4.490   5.697
  431WAT     H2 1536   2.067   4.360   5.636
  432WAT      O 1537   3.388   1.828   7.074
  432WAT     H1 1538   3.484   1.840   7.097
  432WAT     H2 1539   3.365   1.882   6.993
  433WAT      O 1540   5.652   1.488   5.424
  433WAT     H1 1541   5.721   1.546   5.382
  433WAT     H2 1542   5.672   1.475   5.521
  434WAT      O 1543   7.620   6.039   6.296
  434WAT     H1 1544   7.653   5.999   6.382
  434WAT     H2 1545   7.697   6.048   6.232
  435WAT      O 1546   5.538   1.361   2.291
  435WAT     H1 1547   5.449   1.382   2.250
  435WAT     H2 1548   5.590   1.445   2.304
  436WAT      O 1549   8.563   9.196   0.926
  436WAT     H1 1550   8.621   9.122   0.892
  436WAT     H2 1551   8.582   9.280   0.875
  437WAT      O 1552   8.007   0.098   0.674
  437WAT     H1 1553   8.005   0.198   0.670
  437WAT     H2 1554   8.069   0.068   0.746
  438WAT      O 1555   9.286   2.196   4.586
  438WAT     H1 1556   9.221   2.222   4.514
  438WAT     H2 1557   9.353   2.132   4.549
  439WAT      O 1558   7.563   5.627   0.629
  439WAT     H1 1559   7.650   5.580   0.612
  439WAT     H2 1560   7.499   5.607   0.555
  440WAT      O 1561   4.503   8.612   2.297
  440WAT     H1 1562   4.534   8.699   2.257
  440WAT     H2 1563   4.581   8.563   2.336
  441WAT      O 1564   8.184   1.851   3.306
  441WAT     H1 1565   8.152   1.870   3.213
  441WAT     H2 1566   8.166   1.755   3.329
  442WAT      O 1567   2.432   9.037   3.006
  442WAT     H1 1568   2.436   9.134   2.980
  442WAT     H2 1569   2.338   9.005   3.004
  443WAT      O 1570   0.461   2.297   9.169
  443WAT     H1 1571   0.489   2.201   9.175
  443WAT     H2 1572   0.426   2.327   9.258
  444WAT      O 1573   7.927   8.717   3.909
  444WAT     H1 1574   7.912   8.657   3.988
  444WAT     H2 1575   7.967   8.803   3.941
  445WAT      O 1576   3.749   0.760   1.432
  445WAT     H1 1577   3.757   0.859   1.443
  445WAT     H2 1578   3.654   0.733   1.445
  446WAT      O 1579   7.453   2.315   9.871
  446WAT     H1 1580   7.462   2.394   9.932
  446WAT     H2 1581   7.544   2.283   9.845
  447WAT      O 1582   1.088   0.389   2.219
  447WAT     H1 1583   1.014   0.397   2.285
  447WAT     H2 1584   1.078   0.304   2.167
  448WAT      O 1585   8.048   5.788   0.465
  448WAT     H1 1586   8.014   5.844   0.540
  448WAT     H2 1587   8.113   5.841   0.411
  449WAT      O 1588   0.151   9.609   6.883
  449WAT     H1 1589   0.182   9.530   6.829
  449WAT     H2 1590   0.113   9.678   6.821
  450WAT      O 1591   0.481   0.824   2.633
  450WAT     H1 1592   0.554   0.853   2.572
  450WAT     H2 1593   0.410   0.777   2.581
  451WAT      O 1594   1.999   2.008   8.028
  451WAT     H1 1595   2.013   1.923   8.079
  451WAT     H2 1596   1.925   1.995   7.963
  452WAT      O 1597   2.212   5.018   3.442
  452WAT     H1 1598   2.122   4.980   3.421
  452WAT     H2 1599   2.281   4.976   3.383
  453WAT      O 1600   5.305   5.539   8.455
  453WAT     H1 1601   5.329   5.451   8.413
  453WAT     H2 1602   5.336   5.539   8.551
  454WAT      O 1603   0.013   1.223   7.056
  454WAT     H1 1604  -0.029   1.298   7.108
  454WAT     H2 1605  -0.037   1.138   7.074
  455WAT      O 1606   5.361   0.623   0.072
  455WAT     H1 1607   5.433   0.554   0.075
  455WAT     H2 1608   5.362   0.676   0.157
  456WAT      O 1609   4.311   3.865   0.946
  456WAT     H1 1610   4.379   3.919   0.996
  456WAT     H2 1611   4.219   3.895   0.970
  457WAT      O 1612   9.346   4.464   6.387
  457WAT     H1 1613   9.435   4.423   6.406
  457WAT     H2 1614   9.355   4.530   6.313
  458WAT      O 1615   5.186   7.541   3.644
  458WAT     H1 1616   5.189   7.496   3.555
  458WAT     H2 1617   5.265   7.512   3.699
  459WAT      O 1618   2.226   0.966   9.499
  459WAT     H1 1619   2.199   1.046   9.553
  459WAT     H2 1620   2.144   0.913   9.475
  460WAT      O 1621   3.199   1.627   8.758
  460WAT     H1 1622   3.135   1.593   8.827
  460WAT     H2 1623   3.162   1.711   8.717
  461WAT      O 1624   8.927   4.282   7.712
  461WAT     H1 1625   8.851   4.237   7.759
  461WAT     H2 1626   8.936   4.243   7.620
  462WAT      O 1627   6.643   1.322   6.050
  462WAT     H1 1628   6.614   1.328   5.954
  462WAT     H2 1629   6.582   1.379   6.106
  463WAT      O 1630   5.947   9.095   7.513
  463WAT     H1 1631   5.857   9.052   7.519
  463WAT     H2 1632   6.014   9.041   7.563
  464WAT      O 1633   6.101   7.351   3.609
  464WAT     H1 1634   6.165   7.285   3.649
  464WAT     H2 1635   6.140   7.442   3.614
  465WAT      O 1636   4.032   0.452   8.276
  465WAT     H1 1637   3.972   0.478   8.201
  465WAT     H2 1638   3.977   0.435   8.358
  466WAT      O 1639   6.331   4.962   5.681
  466WAT     H1 1640   6.331   4.981   5.780
  466WAT     H2 1641   6.368   4.870   5.665
  467WAT      O 1642   6.943   4.799   4.228
  467WAT     H1 1643   7.027   4.747   4.215
  467WAT     H2 1644   6.946   4.882   4.173
  468WAT      O 1645   4.884   1.894   8.362
  468WAT     H1 1646   4.948   1.933   8.295
  468WAT     H2 1647   4.933   1.832   8.423
  469WAT      O 1648   4.505   8.569   3.937
  469WAT     H1 1649   4.468   8.570   3.844
  469WAT     H2 1650   4.586   8.511   3.940
  470WAT      O 1651   4.659   1.184   7.949
  470WAT     H1 1652   4.658   1.280   7.924
  470WAT     H2 1653   4.732   1.168   8.016
  471WAT      O 1654   2.746   0.736   9.605
  471WAT     H1 1655   2.717   0.693   9.519
  471WAT     H2 1656   2.673   0.793   9.641
  472WAT      O 1657   3.245   1.504   2.822
  472WAT     H1 1658   3.312   1.571   2.789
  472WAT     H2 1659   3.258   1.488   2.919
  473WAT      O 1660   2.273   3.495   8.526
  473WAT     H1 1661   2.292   3.584   8.568
  473WAT     H2 1662   2.339   3.480   8.452
  474WAT      O 1663   7.970   0.764   6.199
  474WAT     H1 1664   8.070   0.768   6.201
  474WAT     H2 1665   7.933   0.856   6.192
  475WAT      O 1666   7.973   8.196   7.935
  475WAT     H1 1667   7.970   8.096   7.927
  475WAT     H2 1668   7.992   8.236   7.845
  476WAT      O 1669   2.523   9.531   2.388
  476WAT     H1 1670   2.436   9.531   2.337
  476WAT     H2 1671   2.596   9.562   2.328
  477WAT      O 1672   8.170   6.012   3.316
  477WAT     H1 1673   8.201   5.951   3.389
  477WAT     H2 1674   8.077   6.043   3.336
  478WAT      O 1675   2.938   5.664   4.501
  478WAT     H1 1676   2.857   5.653   4.444
  478WAT     H2 1677   3.013   5.702   4.445
  479WAT      O 1678   0.666   1.113   6.769
  479WAT     H1 1679   0.621   1.142   6.853
  479WAT     H2 1680   0.761   1.089   6.789
  480WAT      O 1681   9.038   6.066   2.853
  480WAT     H1 1682   9.084   6.141   2.805
  480WAT     H2 1683   9.077   5.979   2.824
  481WAT      O 1684   3.370   0.023   0.775
  481WAT     H1 1685   3.443   0.025   0.708
  481WAT     H2 1686   3.385  -0.054   0.838
  482WAT      O 1687   5.838   4.260   9.450
  482WAT     H1 1688   5.906   4.230   9.517
  482WAT     H2 1689   5.752   4.278   9.496
  483WAT      O 1690   2.633   1.824   6.829
  483WAT     H1 1691   2.732   1.814   6.839
  483WAT     H2 1692   2.612   1.919   6.806
  484WAT      O 1693   7.340   9.427   5.728
  484WAT     H1 1694   7.360   9.360   5.799
  484WAT     H2 1695   7.330   9.518   5.770
  485WAT      O 1696   6.396   5.249   3.192
  485WAT     H1 1697   6.484   5.290   3.215
  485WAT     H2 1698   6.387   5.243   3.093
  486WAT      O 1699   6.364   9.128   0.314
  486WAT     H1 1700   6.350   9.089   0.405
  486WAT     H2 1701   6.458   9.161   0.305
  487WAT      O 1702   9.294   6.264   4.132
  487WAT     H1 1703   9.379   6.275   4.184
  487WAT     H2 1704   9.216   6.268   4.195
  488WAT      O 1705   2.537   4.224   4.903
  488WAT     H1 1706   2.449   4.185   4.930
  488WAT     H2 1707   2.606   4.202   4.972
  489WAT      O 1708   2.021   8.010   0.193
  489WAT     H1 1709   2.075   8.055   0.122
  489WAT     H2 1710   2.044   8.049   0.282
  490WAT      O 1711   0.855   6.083   4.289
  490WAT     H1 1712   0.778   6.046   4.341
  490WAT     H2 1713   0.855   6.043   4.197
  491WAT      O 1714   8.008   3.950   8.542
  491WAT     H1 1715   8.051   4.039   8.558
  491WAT     H2 1716   7.950   3.926   8.620
  492WAT      O 1717   8.985   5.803   5.541
  492WAT     H1 1718   8.994   5.724   5.601
  492WAT     H2 1719   8.926   5.871   5.584
  493WAT      O 1720   5.557   0.866   2.419
  493WAT     H1 1721   5.518   0.806   2.350
  493WAT     H2 1722   5.648   0.895   2.391
  494WAT      O 1723   2.737   6.907   3.926
  494WAT     H1 1724   2.761   6.980   3.862
  494WAT     H2 1725   2.759   6.819   3.885
  495WAT      O 1726   5.528   6.833   2.297
  495WAT     H1 1727   5.444   6.825   2.351
  495WAT     H2 1728   5.512   6.895   2.220
  496WAT      O 1729   1.574   4.416   1.094
  496WAT     H1 1730   1.477   4.420   1.117
  496WAT     H2 1731   1.620   4.498   1.128
  497WAT      O 1732   7.746   7.586   8.001
  497WAT     H1 1733   7.819   7.583   7.933
  497WAT     H2 1734   7.784   7.574   8.093
  498WAT      O 1735   9.001   1.093   0.124
  498WAT     H1 1736   9.019   1.007   0.172
  498WAT     H2 1737   9.008   1.078   0.025
  499WAT      O 1738   0.695   2.127   7.614
  499WAT     H1 1739   0.716   2.069   7.535
  499WAT     H2 1740   0.777   2.175   7.643
  500WAT      O 1741   2.186   5.068   1.286
  500WAT     H1 1742   2.168   5.094   1.381
  500WAT     H2 1743   2.263   5.005   1.282
  501WAT      O 1744   7.211   7.834   6.078
  501WAT     H1 1745   7.258   7.825   5.990
  501WAT     H2 1746   7.249   7.769   6.144
  502WAT      O 1747   8.693   5.386   5.632
  502WAT     H1 1748   8.763   5.444   5.675
  502WAT     H2 1749   8.629   5.355   5.701
  503WAT      O 1750   6.045   7.810   8.544
  503WAT     H1 1751   5.967   7.848   8.593
  503WAT     H2 1752   6.047   7.846   8.451
  504WAT      O 1753   5.693   1.313   0.977
  504WAT     H1 1754   5.784   1.275   0.991
  504WAT     H2 1755   5.700   1.396   0.921
  505WAT      O 1756   0.037   9.105   6.906
  505WAT     H1 1757   0.053   9.203   6.913
  505WAT     H2 1758   0.122   9.060   6.876
  506WAT      O 1759   1.123   1.231   4.658
  506WAT     H1 1760   1.154   1.318   4.697
  506WAT     H2 1761   1.044   1.198   4.710
  507WAT      O 1762   6.854   3.231   6.983
  507WAT     H1 1763   6.905   3.149   6.959
  507WAT     H2 1764   6.761   3.225   6.947
  508WAT      O 1765   9.022   2.147   7.121
  508WAT     H1 1766   9.096   2.204   7.084
  508WAT     H2 1767   8.985   2.191   7.203
  509WAT      O 1768   8.125   6.777   9.661
  509WAT     H1 1769   8.138   6.680   9.643
  509WAT     H2 1770   8.121   6.792   9.760
  510WAT      O 1771   9.016   0.373   8.410
  510WAT     H1 1772   9.088   0.304   8.406
  510WAT     H2 1773   9.037   0.448   8.348
  511WAT      O 1774   2.286   9.822   3.021
  511WAT     H1 1775   2.202   9.851   2.976
  511WAT     H2 1776   2.358   9.890   3.006
  512WAT      O 1777   6.877   7.778   4.484
  512WAT     H1 1778   6.832   7.692   4.510
  512WAT     H2 1779   6.910   7.825   4.566
  513WAT      O 1780   0.630   6.946   1.820
  513WAT     H1 1781   0.719   6.974   1.855
  513WAT     H2 1782   0.563   7.018   1.835
  514WAT      O 1783   6.972   7.083   9.100
  514WAT     H1 1784   7.010   7.122   9.184
  514WAT     H2 1785   6.978   6.983   9.103
  515WAT      O 1786   5.731   5.825   7.850
  515WAT     H1 1787   5.805   5.809   7.916
  515WAT     H2 1788   5.654   5.869   7.896
  516WAT      O 1789   4.955   7.260   0.683
  516WAT     H1 1790   4.998   7.173   0.658
  516WAT     H2 1791   4.868   7.269   0.635
  517WAT      O 1792   1.771   6.100   6.913
  517WAT     H1 1793   1.783   6.064   7.006
  517WAT     H2 1794   1.709   6.178   6.916
  518WAT      O 1795   9.739   1.931   4.643
  518WAT     H1 1796   9.661   1.972   4.596
  518WAT     H2 1797   9.716   1.838   4.672
  519WAT      O 1798   1.742   9.376   0.779
  519WAT     H1 1799   1.682   9.365   0.858
  519WAT     H2 1800   1.692   9.423   0.706
  520WAT      O 1801   5.636   4.127   2.110
  520WAT     H1 1802   5.653   4.033   2.140
  520WAT     H2 1803   5.723   4.176   2.106
  521WAT      O 1804   2.884   1.387   5.117
  521WAT     H1 1805   2.821   1.464   5.113
  521WAT     H2 1806   2.884   1.348   5.210
  522WAT      O 1807   2.194   5.631   5.014
  522WAT     H1 1808   2.179   5.532   5.008
  522WAT     H2 1809   2.148   5.676   4.938
  523WAT      O 1810   6.553   0.033   4.134
  523WAT     H1 1811   6.465  -0.012   4.115
  523WAT     H2 1812   6.568   0.035   4.232
  524WAT      O 1813   7.862   5.352   6.949
  524WAT     H1 1814   7.765   5.328   6.953
  524WAT     H2 1815   7.917   5.269   6.948
  525WAT      O 1816   1.425   9.519   6.552
  525WAT     H1 1817   1.384   9.539   6.641
  525WAT     H2 1818   1.371   9.449   6.506
  526WAT      O 1819   2.341   9.778   3.564
  526WAT     H1 1820   2.293   9.771   3.477
  526WAT     H2 1821   2.412   9.708   3.569
  527WAT      O 1822   7.726   6.012   5.244
  527WAT     H1 1823   7.641   6.060   5.262
  527WAT     H2 1824   7.706   5.920   5.210
  528WAT      O 1825   2.161   7.033   6.998
  528WAT     H1 1826   2.233   7.031   7.068
  528WAT     H2 1827   2.203   7.044   6.908
  529WAT      O 1828   6.203   4.014   3.641
  529WAT     H1 1829   6.159   4.101   3.663
  529WAT     H2 1830   6.235   3.970   3.725
  530WAT      O 1831   8.074   6.090   8.091
  530WAT     H1 1832   8.095   6.186   8.113
  530WAT     H2 1833   8.092   6.074   7.994
  531WAT      O 1834   1.579   3.433   8.131
  531WAT     H1 1835   1.601   3.342   8.166
  531WAT     H2 1836   1.663   3.484   8.114
  532WAT      O 1837   1.235   0.045   5.468
  532WAT     H1 1838   1.190   0.090   5.545
  532WAT     H2 1839   1.330   0.076   5.461
  533WAT      O 1840   1.285   8.760   8.077
  533WAT     H1 1841   1.363   8.797   8.128
  533WAT     H2 1842   1.307   8.668   8.044
  534WAT      O 1843   3.956   9.077   1.209
  534WAT     H1 1844   3.862   9.044   1.208
  534WAT     H2 1845   4.003   9.043   1.290
  535WAT      O 1846   1.793   2.088   6.057
  535WAT     H1 1847   1.706   2.088   6.010
  535WAT     H2 1848   1.782   2.128   6.148
  536WAT      O 1849   2.449   5.070   6.602
  536WAT     H1 1850   2.390   5.014   6.660
  536WAT     H2 1851   2.422   5.058   6.506
  537WAT      O 1852   9.299   7.460   5.495
  537WAT     H1 1853   9.369   7.393   5.517
  537WAT     H2 1854   9.317   7.545   5.544
  538WAT      O 1855   2.331   4.921   8.539
  538WAT     H1 1856   2.400   4.931   8.467
  538WAT     H2 1857   2.375   4.897   8.625
  539WAT      O 1858   3.192   5.061   5.354
  539WAT     H1 1859   3.104   5.053   5.308
  539WAT     H2 1860   3.219   4.971   5.391
  540WAT      O 1861   7.705   6.277   0.079
  540WAT     H1 1862   7.795   6.232   0.073
  540WAT     H2 1863   7.634   6.212   0.054
  541WAT      O 1864   3.583   8.125   7.790
  541WAT     H1 1865   3.615   8.121   7.885
  541WAT     H2 1866   3.521   8.202   7.779
  542WAT      O 1867   0.229   9.050   9.694
  542WAT     H1 1868   0.298   9.122   9.704
  542WAT     H2 1869   0.143   9.080   9.736
  543WAT      O 1870   8.663   1.328   7.703
  543WAT     H1 1871   8.578   1.350   7.752
  543WAT     H2 1872   8.706   1.249   7.746
  544WAT      O 1873   2.385   0.314   1.089
  544WAT     H1 1874   2.472   0.326   1.138
  544WAT     H2 1875   2.404   0.290   0.994
  545WAT      O 1876   6.741   1.894   8.389
  545WAT     H1 1877   6.712   1.930   8.301
  545WAT     H2 1878   6.840   1.880   8.388
  546WAT      O 1879   1.592   8.197   5.735
  546WAT     H1 1880   1.596   8.100   5.762
  546WAT     H2 1881   1.665   8.247   5.780
  547WAT      O 1882   5.571   2.980   4.427
  547WAT     H1 1883   5.555   2.949   4.521
  547WAT     H2 1884   5.623   3.065   4.428
  548WAT      O 1885   9.342   4.135   2.637
  548WAT     H1 1886   9.415   4.199   2.612
  548WAT     H2 1887   9.341   4.059   2.572
  549WAT      O 1888   6.111   3.400   9.043
  549WAT     H1 1889   6.205   3.424   9.019
  549WAT     H2 1890   6.048   3.461   8.995
  550WAT      O 1891   0.583   0.435   1.511
  550WAT     H1 1892   0.483   0.433   1.508
  550WAT     H2 1893   0.613   0.481   1.594
  551WAT      O 1894   2.036   5.210   9.730
  551WAT     H1 1895   2.000   5.239   9.641
  551WAT     H2 1896   1.989   5.259   9.803
  552WAT      O 1897   5.877   6.932   7.778
  552WAT     H1 1898   5.798   6.992   7.774
  552WAT     H2 1899   5.937   6.950   7.700
  553WAT      O 1900   4.096   5.804   9.122
  553WAT     H1 1901   4.097   5.752   9.208
  553WAT     H2 1902   4.146   5.754   9.052
  554WAT      O 1903   4.625   7.783   5.438
  554WAT     H1 1904   4.638   7.699   5.492
  554WAT     H2 1905   4.704   7.797   5.378
  555WAT      O 1906   1.165   3.593   1.237
  555WAT     H1 1907   1.194   3.511   1.285
  555WAT     H2 1908   1.173   3.672   1.298
  556WAT      O 1909   2.432   6.973   7.995
  556WAT     H1 1910   2.398   7.066   8.007
  556WAT     H2 1911   2.502   6.955   8.063
  557WAT      O 1912   4.855   5.075   7.301
  557WAT     H1 1913   4.764   5.035   7.305
  557WAT     H2 1914   4.847   5.173   7.281
  558WAT      O 1915   9.225   9.595   8.728
  558WAT     H1 1916   9.285   9.606   8.807
  558WAT     H2 1917   9.164   9.674   8.722
  559WAT      O 1918   6.325   1.503   3.168
  559WAT     H1 1919   6.314   1.602   3.164
  559WAT     H2 1920   6.399   1.480   3.231
  560WAT      O 1921   6.629   4.834   4.895
  560WAT     H1 1922   6.655   4.922   4.856
  560WAT     H2 1923   6.704   4.769   4.883
  561WAT      O 1924   4.323   7.615   2.716
  561WAT     H1 1925   4.349   7.525   2.749
  561WAT     H2 1926   4.224   7.622   2.711
  562WAT      O 1927   3.975   6.164   2.621
  562WAT     H1 1928   4.004   6.094   2.556
  562WAT     H2 1929   4.024   6.151   2.708
  563WAT      O 1930   2.433   6.107   4.638
  563WAT     H1 1931   2.386   6.023   4.609
  563WAT     H2 1932   2.521   6.113   4.591
  564WAT      O 1933   6.710   0.485   2.607
  564WAT     H1 1934   6.654   0.501   2.688
  564WAT     H2 1935   6.773   0.409   2.624
  565WAT      O 1936   1.192   2.819   2.013
  565WAT     H1 1937   1.094   2.837   2.023
  565WAT     H2 1938   1.242   2.863   2.088
  566WAT      O 1939   4.330   3.976   0.441
  566WAT     H1 1940   4.249   4.016   0.398
  566WAT     H2 1941   4.411   4.029   0.417
  567WAT      O 1942   5.640   3.139   0.360
  567WAT     H1 1943   5.690   3.097   0.284
  567WAT     H2 1944   5.603   3.068   0.419
  568WAT      O 1945   0.180   0.787   3.025
  568WAT     H1 1946   0.141   0.877   3.002
  568WAT     H2 1947   0.277   0.786   2.999
  569WAT      O 1948   6.787   4.225   3.173
  569WAT     H1 1949   6.769   4.218   3.271
  569WAT     H2 1950   6.828   4.140   3.140
  570WAT      O 1951   7.572   6.360   5.383
  570WAT     H1 1952   7.603   6.280   5.433
  570WAT     H2 1953   7.472   6.358   5.375
  571WAT      O 1954   1.026   8.489   2.380
  571WAT     H1 1955   1.046   8.574   2.430
  571WAT     H2 1956   1.103   8.466   2.321
  572WAT      O 1957   7.543   8.961   9.321
  572WAT     H1 1958   7.495   8.874   9.312
  572WAT     H2 1959   7.586   8.966   9.411
  573WAT      O 1960   1.019   5.271   1.072
  573WAT     H1 1961   1.117   5.293   1.079
  573WAT     H2 1962   1.005   5.207   0.996
  574WAT      O 1963   6.150   7.826   7.441
  574WAT     H1 1964   6.242   7.806   7.473
  574WAT     H2 1965   6.094   7.858   7.517
  575WAT      O 1966   1.596   3.697   2.463
  575WAT     H1 1967   1.686   3.656   2.452
  575WAT     H2 1968   1.571   3.747   2.380
  576WAT      O 1969   7.337   0.900   3.393
  576WAT     H1 1970   7.306   0.979   3.339
  576WAT     H2 1971   7.263   0.834   3.402
  577WAT      O 1972   6.870   3.223   5.518
  577WAT     H1 1973   6.785   3.185   5.555
  577WAT     H2 1974   6.849   3.294   5.452
  578WAT      O 1975   2.540   2.851   2.212
  578WAT     H1 1976   2.520   2.801   2.296
  578WAT     H2 1977   2.479   2.819   2.139
  579WAT      O 1978   8.983   3.228   8.811
  579WAT     H1 1979   8.993   3.278   8.725
  579WAT     H2 1980   8.920   3.152   8.799
  580WAT      O 1981   5.057   1.840   3.932
  580WAT     H1 1982   5.151   1.805   3.928
  580WAT     H2 1983   5.057   1.938   3.914
  581WAT      O 1984   4.735   3.448   3.700
  581WAT     H1 1985   4.668   3.376   3.719
  581WAT     H2 1986   4.714   3.491   3.612
  582WAT      O 1987   5.424   3.259   3.136
  582WAT     H1 1988   5.415   3.351   3.175
  582WAT     H2 1989   5.491   3.260   3.062
  583WAT      O 1990   0.930   5.511   8.507
  583WAT     H1 1991   0.861   5.501   8.579
  583WAT     H2 1992   0.885   5.531   8.420
  584WAT      O 1993   4.570   2.877   5.259
  584WAT     H1 1994   4.539   2.925   5.342
  584WAT     H2 1995   4.504   2.893   5.185
  585WAT      O 1996   9.566   7.376   4.046
  585WAT     H1 1997   9.626   7.440   3.997
  585WAT     H2 1998   9.620   7.326   4.114
  586WAT      O 1999   5.981   3.379   4.831
  586WAT     H1 2000   6.055   3.337   4.883
  586WAT     H2 2001   5.977   3.477   4.850
  587WAT      O 2002   9.804   7.890   9.269
  587WAT     H1 2003   9.843   7.981   9.285
  587WAT     H2 2004   9.749   7.864   9.348
  588WAT      O 2005   5.285   2.147   8.368
  588WAT     H1 2006   5.325   2.195   8.447
  588WAT     H2 2007   5.190   2.174   8.358
  589WAT      O 2008   9.638   5.442   9.781
  589WAT     H1 2009   9.727   5.444   9.735
  589WAT     H2 2010   9.629   5.522   9.840
  590WAT      O 2011   7.248   4.153   2.421
  590WAT     H1 2012   7.243   4.054   2.411
  590WAT     H2 2013   7.157   4.192   2.414
  591WAT      O 2014   7.503   7.595   3.747
  591WAT     H1 2015   7.527   7.589   3.843
  591WAT     H2 2016   7.414   7.641   3.738
  592WAT      O 2017   0.723   1.243   7.075
  592WAT     H1 2018   0.738   1.336   7.040
  592WAT     H2 2019   0.793   1.182   7.039
  593WAT      O 2020   2.031   0.189   3.688
  593WAT     H1 2021   2.094   0.207   3.612
  593WAT     H2 2022   1.967   0.266   3.697
  594WAT      O 2023   2.928   3.661   0.341
  594WAT     H1 2024   2.983   3.582   0.369
  594WAT     H2 2025   2.831   3.634   0.339
  595WAT      O 2026   7.807   2.013   4.559
  595WAT     H1 2027   7.818   2.038   4.656
  595WAT     H2 2028   7.823   2.094   4.502
  596WAT      O 2029   7.950   0.600   1.879
  596WAT     H1 2030   7.974   0.663   1.952
  596WAT     H2 2031   7.875   0.541   1.909
  597WAT      O 2032   7.593   4.016   8.008
  597WAT     H1 2033   7.507   4.008   8.059
  597WAT     H2 2034   7.591   3.953   7.930
  598WAT      O 2035   7.574   4.235   6.393
  598WAT     H1 2036   7.569   4.332   6.419
  598WAT     H2 2037   7.573   4.228   6.293
  599WAT      O 2038   0.954   7.643   1.354
  599WAT     H1 2039   1.050   7.668   1.368
  599WAT     H2 2040   0.950   7.555   1.306
  600WAT      O 2041   6.386   6.285   4.131
  600WAT     H1 2042   6.328   6.266   4.053
  600WAT     H2 2043   6.481   6.262   4.109
  601WAT      O 2044   2.539   7.950   9.064
  601WAT     H1 2045   2.540   8.050   9.064
  601WAT     H2 2046   2.501   7.917   9.151
  602WAT      O 2047   1.747   1.557   1.021
  602WAT     H1 2048   1.816   1.547   1.092
  602WAT     H2 2049   1.782   1.518   0.935
  603WAT      O 2050   0.211   0.286   9.310
  603WAT     H1 2051   0.155   0.211   9.276
  603WAT     H2 2052   0.295   0.292   9.257
  604WAT      O 2053   9.796   0.128   8.042
  604WAT     H1 2054   9.882   0.171   8.013
  604WAT     H2 2055   9.762   0.175   8.123
  605WAT      O 2056   4.520   6.259   0.052
  605WAT     H1 2057   4.498   6.211   0.137
  605WAT     H2 2058   4.453   6.236  -0.018
  606WAT      O 2059   3.757   2.440   0.452
  606WAT     H1 2060   3.722   2.520   0.501
  606WAT     H2 2061   3.819   2.389   0.512
  607WAT      O 2062   3.210   7.768   7.690
  607WAT     H1 2063   3.198   7.787   7.787
  607WAT     H2 2064   3.217   7.854   7.640
  608WAT      O 2065   2.218   8.592   5.148
  608WAT     H1 2066   2.282   8.668   5.156
  608WAT     H2 2067   2.242   8.536   5.068
  609WAT      O 2068   2.129   6.643   7.672
  609WAT     H1 2069   2.107   6.647   7.574
  609WAT     H2 2070   2.225   6.618   7.683
  610WAT      O 2071   6.914   1.598   4.506
  610WAT     H1 2072   6.822   1.559   4.516
  610WAT     H2 2073   6.956   1.563   4.423
  611WAT      O 2074   6.704   7.395   6.704
  611WAT     H1 2075   6.761   7.476   6.690
  611WAT     H2 2076   6.759   7.323   6.747
  612WAT      O 2077   8.773   9.171   4.942
  612WAT     H1 2078   8.703   9.231   4.902
  612WAT     H2 2079   8.819   9.219   5.017
  613WAT      O 2080   5.950   7.819   5.107
  613WAT     H1 2081   5.862   7.854   5.139
  613WAT     H2 2082   5.945   7.798   5.010
  614WAT      O 2083   3.805   0.075   1.461
  614WAT     H1 2084   3.705   0.070   1.467
  614WAT     H2 2085   3.844   0.075   1.554
  615WAT      O 2086   0.801   9.278   9.304
  615WAT     H1 2087   0.774   9.374   9.314
  615WAT     H2 2088   0.814   9.257   9.207
  616WAT      O 2089   0.765   4.449   6.625
  616WAT     H1 2090   0.783   4.543   6.596
  616WAT     H2 2091   0.667   4.438   6.641
  617WAT      O 2092   3.280   0.275   7.743
  617WAT     H1 2093   3.273   0.180   7.773
  617WAT     H2 2094   3.304   0.333   7.820
  618WAT      O 2095   5.299   6.339   1.862
  618WAT     H1 2096   5.307   6.267   1.793
  618WAT     H2 2097   5.239   6.309   1.936
  619WAT      O 2098   2.531   7.041   4.680
  619WAT     H1 2099   2.495   6.966   4.735
  619WAT     H2 2100   2.519   7.127   4.730
  620WAT      O 2101   5.171   4.328   4.887
  620WAT     H1 2102   5.242   4.340   4.956
  620WAT     H2 2103   5.089   4.292   4.931
  621WAT      O 2104   6.347   0.560   9.500
  621WAT     H1 2105   6.408   0.498   9.450
  621WAT     H2 2106   6.310   0.629   9.438
  622WAT      O 2107   0.523   8.765   5.611
  622WAT     H1 2108   0.589   8.780   5.538
  622WAT     H2 2109   0.453   8.837   5.609
  623WAT      O 2110   9.237   5.871   4.995
  623WAT     H1 2111   9.235   5.810   4.916
  623WAT     H2 2112   9.226   5.966   4.964
  624WAT      O 2113   3.444   2.070   2.915
  624WAT     H1 2114   3.422   1.975   2.935
  624WAT     H2 2115   3.440   2.124   2.999
  625WAT      O 2116   7.349   4.320   8.926
  625WAT     H1 2117   7.352   4.376   9.009
  625WAT     H2 2118   7.319   4.376   8.849
  626WAT      O 2119   9.681   8.986   7.334
  626WAT     H1 2120   9.751   8.999   7.264
  626WAT     H2 2121   9.724   8.987   7.425
  627WAT      O 2122   1.116   0.197   3.854
  627WAT     H1 2123   1.157   0.172   3.766
  627WAT     H2 2124   1.017   0.184   3.850
  628WAT      O 2125   3.959   2.051   6.501
  628WAT     H1 2126   3.976   2.138   6.454
  628WAT     H2 2127   4.032   2.034   6.567
  629WAT      O 2128   9.231   9.083   0.481
  629WAT     H1 2129   9.276   9.169   0.455
  629WAT     H2 2130   9.225   9.078   0.581
  630WAT      O 2131   3.897   9.207   1.822
  630WAT     H1 2132   3.890   9.306   1.814
  630WAT     H2 2133   3.965   9.173   1.756
  631WAT      O 2134   0.695   5.700   1.834
  631WAT     H1 2135   0.674   5.732   1.742
  631WAT     H2 2136   0.764   5.761   1.875
  632WAT      O 2137   2.709   7.407   3.611
  632WAT     H1 2138   2.799   7.430   3.646
  632WAT     H2 2139   2.661   7.491   3.584
  633WAT      O 2140   5.375   2.982   3.199
  633WAT     H1 2141   5.375   3.082   3.207
  633WAT     H2 2142   5.282   2.948   3.211
  634WAT      O 2143   2.200   7.273   6.487
  634WAT     H1 2144   2.255   7.196   6.455
  634WAT     H2 2145   2.145   7.243   6.565
  635WAT      O 2146   2.982   2.359   4.913
  635WAT     H1 2147   2.988   2.262   4.893
  635WAT     H2 2148   2.898   2.378   4.963
  636WAT      O 2149   8.571   1.781   7.074
  636WAT     H1 2150   8.519   1.697   7.060
  636WAT     H2 2151   8.618   1.777   7.162
  637WAT      O 2152   3.908   9.792   0.068
  637WAT     H1 2153   3.957   9.878   0.073
  637WAT     H2 2154   3.889   9.758   0.160
  638WAT      O 2155   5.278   9.594   8.682
  638WAT     H1 2156   5.363   9.545   8.701
  638WAT     H2 2157   5.201   9.544   8.722
  639WAT      O 2158   0.489   1.831   9.520
  639WAT     H1 2159   0.421   1.800   9.453
  639WAT     H2 2160   0.492   1.931   9.521
  640WAT      O 2161   2.098   9.823   6.531
  640WAT     H1 2162   2.145   9.743   6.567
  640WAT     H2 2163   2.049   9.869   6.605
  641WAT      O 2164   9.410   0.794   1.378
  641WAT     H1 2165   9.456   0.881   1.396
  641WAT     H2 2166   9.364   0.762   1.461
  642WAT      O 2167   2.496   6.434   2.912
  642WAT     H1 2168   2.477   6.342   2.879
  642WAT     H2 2169   2.593   6.442   2.934
  643WAT      O 2170   0.183   2.138   0.106
  643WAT     H1 2171   0.190   2.058   0.165
  643WAT     H2 2172   0.187   2.221   0.161
  644WAT      O 2173   7.762   6.389   6.107
  644WAT     H1 2174   7.806   6.327   6.043
  644WAT     H2 2175   7.824   6.409   6.183
  645WAT      O 2176   8.614   7.924   4.693
  645WAT     H1 2177   8.657   7.838   4.665
  645WAT     H2 2178   8.539   7.905   4.755
  646WAT      O 2179   6.112   3.920   8.409
  646WAT     H1 2180   6.087   3.883   8.320
  646WAT     H2 2181   6.181   3.861   8.452
  647WAT      O 2182   8.268   1.514   9.518
  647WAT     H1 2183   8.328   1.487   9.593
  647WAT     H2 2184   8.203   1.583   9.550
  648WAT      O 2185   8.762   7.119   3.634
  648WAT     H1 2186   8.678   7.169   3.614
  648WAT     H2 2187   8.833   7.147   3.569
  649WAT      O 2188   9.588   6.090   1.661
  649WAT     H1 2189   9.676   6.107   1.616
  649WAT     H2 2190   9.602   6.086   1.760
  650WAT      O 2191   0.751   4.704   6.532
  650WAT     H1 2192   0.846   4.732   6.514
  650WAT     H2 2193   0.700   4.702   6.446
  651WAT      O 2194   4.286   3.042   0.962
  651WAT     H1 2195   4.230   3.122   0.939
  651WAT     H2 2196   4.352   3.025   0.889
  652WAT      O 2197   4.159   2.450   7.875
  652WAT     H1 2198   4.109   2.381   7.928
  652WAT     H2 2199   4.149   2.539   7.918
  653WAT      O 2200   6.808   4.695   7.605
  653WAT     H1 2201   6.735   4.633   7.635
  653WAT     H2 2202   6.768   4.772   7.556
  654WAT      O 2203   5.808   1.671   9.828
  654WAT     H1 2204   5.749   1.610   9.776
  654WAT     H2 2205   5.815   1.638   9.922
  655WAT      O 2206   3.287   7.312   4.334
  655WAT     H1 2207   3.316   7.341   4.243
  655WAT     H2 2208   3.187   7.310   4.338
  656WAT      O 2209   3.629   0.518   0.032
  656WAT     H1 2210   3.722   0.500   0.063
  656WAT     H2 2211   3.573   0.545   0.111
  657WAT      O 2212   7.283   3.604   0.579
  657WAT     H1 2213   7.231   3.677   0.535
  657WAT     H2 2214   7.258   3.516   0.538
  658WAT      O 2215   2.960   5.392   5.848
  658WAT     H1 2216   3.000   5.422   5.761
  658WAT     H2 2217   2.861   5.379   5.837
  659WAT      O 2218   1.437   5.679   9.460
  659WAT     H1 2219   1.522   5.703   9.413
  659WAT     H2 2220   1.374   5.636   9.397
  660WAT      O 2221   7.521   3.279   8.233
  660WAT     H1 2222   7.505   3.195   8.182
  660WAT     H2 2223   7.608   3.273   8.281
  661WAT      O 2224   6.852   4.543   2.280
  661WAT     H1 2225   6.843   4.587   2.370
  661WAT     H2 2226   6.805   4.456   2.281
  662WAT      O 2227   4.330   9.546   5.426
  662WAT     H1 2228   4.337   9.630   5.373
  662WAT     H2 2229   4.259   9.556   5.496
  663WAT      O 2230   6.692   8.905   0.162
  663WAT     H1 2231   6.756   8.847   0.111
  663WAT     H2 2232   6.645   8.849   0.231
  664WAT      O 2233   3.318   4.828   0.853
  664WAT     H1 2234   3.319   4.816   0.953
  664WAT     H2 2235   3.397   4.883   0.826
  665WAT      O 2236   0.094   8.869   6.070
  665WAT     H1 2237   0.116   8.836   6.162
  665WAT     H2 2238   0.106   8.968   6.067
  666WAT      O 2239   1.826   6.333   6.214
  666WAT     H1 2240   1.920   6.327   6.247
  666WAT     H2 2241   1.793   6.427   6.224
  667WAT      O 2242   6.450   2.232   0.508
  667WAT     H1 2243   6.528   2.235   0.571
  667WAT     H2 2244   6.441   2.321   0.464
  668WAT      O 2245   5.297   6.911   3.127
  668WAT     H1 2246   5.383   6.947   3.164
  668WAT     H2 2247   5.267   6.833   3.182
  669WAT      O 2248   4.965   1.886   1.815
  669WAT     H1 2249   4.910   1.822   1.868
  669WAT     H2 2250   4.921   1.976   1.815
  670WAT      O 2251   3.269   1.987   1.422
  670WAT     H1 2252   3.296   1.921   1.492
  670WAT     H2 2253   3.351   2.031   1.384
  671WAT      O 2254   7.100   4.957   4.673
  671WAT     H1 2255   7.087   4.901   4.755
  671WAT     H2 2256   7.012   4.990   4.640
  672WAT      O 2257   2.078   2.170   2.088
  672WAT     H1 2258   2.090   2.100   2.018
  672WAT     H2 2259   1.982   2.201   2.089
  673WAT      O 2260   1.133   8.150   9.633
  673WAT     H1 2261   1.159   8.198   9.549
  673WAT     H2 2262   1.096   8.214   9.699
  674WAT      O 2263   8.309   0.574   1.596
  674WAT     H1 2264   8.327   0.491   1.542
  674WAT     H2 2265   8.335   0.654   1.543
  675WAT      O 2266   7.244   8.125   3.979
  675WAT     H1 2267   7.279   8.181   4.055
  675WAT     H2 2268   7.156   8.085   4.004
  676WAT      O 2269   4.022   0.415   3.486
  676WAT     H1 2270   3.982   0.388   3.574
  676WAT     H2 2271   4.076   0.338   3.450
  677WAT      O 2272   0.367   8.639   4.584
  677WAT     H1 2273   0.402   8.718   4.635
  677WAT     H2 2274   0.267   8.639   4.590
  678WAT      O 2275   5.649   6.021   2.460
  678WAT     H1 2276   5.655   6.118   2.484
  678WAT     H2 2277   5.622   6.011   2.364
  679WAT      O 2278   9.455   2.821   4.585
  679WAT     H1 2279   9.404   2.742   4.550
  679WAT     H2 2280   9.391   2.886   4.625
  680WAT      O 2281   0.235   7.952   3.481
  680WAT     H1 2282   0.197   8.040   3.511
  680WAT     H2 2283   0.183   7.878   3.522
  681WAT      O 2284   3.496   4.229   2.287
  681WAT     H1 2285   3.563   4.273   2.227
  681WAT     H2 2286   3.409   4.278   2.281
  682WAT      O 2287   7.943   4.655   8.366
  682WAT     H1 2288   8.020   4.597   8.341
  682WAT     H2 2289   7.927   4.723   8.294
  683WAT      O 2290   2.841   5.456   7.638
  683WAT     H1 2291   2.800   5.398   7.708
  683WAT     H2 2292   2.941   5.455   7.650
  684WAT      O 2293   2.801   7.940   7.054
  684WAT     H1 2294   2.798   8.038   7.036
  684WAT     H2 2295   2.713   7.898   7.030
  685WAT      O 2296   0.716   6.050   0.669
  685WAT     H1 2297   0.727   5.952   0.652
  685WAT     H2 2298   0.806   6.092   0.679
  686WAT      O 2299   0.065   7.640   6.282
  686WAT     H1 2300   0.125   7.658   6.359
  686WAT     H2 2301   0.051   7.724   6.229
  687WAT      O 2302   5.994   9.660   9.653
  687WAT     H1 2303   5.959   9.671   9.746
  687WAT     H2 2304   5.932   9.604   9.599
  688WAT      O 2305   0.324   2.302   8.329
  688WAT     H1 2306   0.351   2.322   8.235
  688WAT     H2 2307   0.241   2.354   8.352
  689WAT      O 2308   2.695   8.654   1.030
  689WAT     H1 2309   2.664   8.612   0.945
  689WAT     H2 2310   2.753   8.589   1.080
  690WAT      O 2311   3.589   1.960   3.768
  690WAT     H1 2312   3.500   1.918   3.787
  690WAT     H2 2313   3.590   2.054   3.802
  691WAT      O 2314   5.507   8.616   2.283
  691WAT     H1 2315   5.492   8.652   2.190
  691WAT     H2 2316   5.427   8.637   2.339
  692WAT      O 2317   0.742   0.180   1.667
  692WAT     H1 2318   0.794   0.160   1.584
  692WAT     H2 2319   0.805   0.205   1.740
  693WAT      O 2320   1.567   4.360   0.236
  693WAT     H1 2321   1.593   4.455   0.216
  693WAT     H2 2322   1.639   4.299   0.204
  694WAT      O 2323   4.369   8.313   6.137
  694WAT     H1 2324   4.408   8.249   6.071
  694WAT     H2 2325   4.317   8.383   6.088
  695WAT      O 2326   7.366   5.201   6.350
  695WAT     H1 2327   7.442   5.140   6.327
  695WAT     H2 2328   7.283   5.171   6.303
  696WAT      O 2329   5.363   4.771   6.877
  696WAT     H1 2330   5.348   4.673   6.880
  696WAT     H2 2331   5.295   4.813   6.817
  697WAT      O 2332   3.497   0.277   6.682
  697WAT     H1 2333   3.454   0.363   6.654
  697WAT     H2 2334   3.540   0.234   6.603
  698WAT      O 2335   1.005   9.137   2.640
  698WAT     H1 2336   0.993   9.045   2.678
  698WAT     H2 2337   1.014   9.203   2.714
  699WAT      O 2338   7.780   0.548   9.834
  699WAT     H1 2339   7.749   0.641   9.853
  699WAT     H2 2340   7.707   0.496   9.790
  700WAT      O 2341   9.254   0.026   7.440
  700WAT     H1 2342   9.165   0.026   7.394
  700WAT     H2 2343   9.292   0.118   7.441
  701WAT      O 2344   6.177   4.593   9.241
  701WAT     H1 2345   6.249   4.555   9.183
  701WAT     H2 2346   6.100   4.529   9.244
  702WAT      O 2347   8.314   5.197   9.689
  702WAT     H1 2348   8.385   5.126   9.683
  702WAT     H2 2349   8.335   5.260   9.763
  703WAT      O 2350   0.910   8.632   3.278
  703WAT     H1 2351   0.870   8.541   3.289
  703WAT     H2 2352   0.970   8.652   3.355
  704WAT      O 2353   9.069   0.611   8.943
  704WAT     H1 2354   9.146   0.646   8.997
  704WAT     H2 2355   9.045   0.678   8.873
  705WAT      O 2356   0.908   1.346   0.014
  705WAT     H1 2357   0.922   1.350  -0.085
  705WAT     H2 2358   0.950   1.425   0.057
  706WAT      O 2359   3.037   5.425   5.188
  706WAT     H1 2360   3.032   5.479   5.104
  706WAT     H2 2361   3.098   5.471   5.253
  707WAT      O 2362   0.263   5.341   2.478
  707WAT     H1 2363   0.228   5.290   2.556
  707WAT     H2 2364   0.363   5.346   2.482
  708WAT      O 2365   1.292   6.093   1.311
  708WAT     H1 2366   1.197   6.115   1.335
  708WAT     H2 2367   1.298   6.071   1.213
  709WAT      O 2368   4.518   4.475   8.413
  709WAT     H1 2369   4.503   4.446   8.319
  709WAT     H2 2370   4.460   4.422   8.474
  710WAT      O 2371   0.407   3.335   9.174
  710WAT     H1 2372   0.316   3.368   9.198
  710WAT     H2 2373   0.476   3.396   9.213
  711WAT      O 2374   1.956   7.265   5.088
  711WAT     H1 2375   1.870   7.299   5.051
  711WAT     H2 2376   2.003   7.338   5.136
  712WAT      O 2377   9.141   7.732   2.268
  712WAT     H1 2378   9.103   7.726   2.176
  712WAT     H2 2379   9.205   7.809   2.272
  713WAT      O 2380   4.568   6.713   3.558
  713WAT     H1 2381   4.590   6.810   3.567
  713WAT     H2 2382   4.480   6.702   3.512
  714WAT      O 2383   2.052   6.333   2.659
  714WAT     H1 2384   1.982   6.404   2.650
  714WAT     H2 2385   2.014   6.256   2.710
  715WAT      O 2386   7.118   0.160   5.201
  715WAT     H1 2387   7.056   0.089   5.235
  715WAT     H2 2388   7.203   0.117   5.171
  716WAT      O 2389   1.413   3.862   4.540
  716WAT     H1 2390   1.398   3.785   4.478
  716WAT     H2 2391   1.473   3.929   4.496
  717WAT      O 2392   3.381   9.204   6.152
  717WAT     H1 2393   3.448   9.198   6.226
  717WAT     H2 2394   3.363   9.112   6.116
  718WAT      O 2395   5.529   5.249   8.940
  718WAT     H1 2396   5.453   5.284   8.994
  718WAT     H2 2397   5.501   5.239   8.844
  719WAT      O 2398   6.628   9.797   4.394
  719WAT     H1 2399   6.651   9.832   4.485
  719WAT     H2 2400   6.579   9.710   4.404
  720WAT      O 2401   6.876   2.127   0.932
  720WAT     H1 2402   6.929   2.156   0.852
  720WAT     H2 2403   6.791   2.180   0.937
  721WAT      O 2404   0.487   2.705   1.331
  721WAT     H1 2405   0.585   2.699   1.314
  721WAT     H2 2406   0.467   2.681   1.425
  722WAT      O 2407   7.326   5.516   2.616
  722WAT     H1 2408   7.394   5.580   2.650
  722WAT     H2 2409   7.296   5.456   2.690
  723WAT      O 2410   6.874   7.022   5.668
  723WAT     H1 2411   6.955   6.977   5.706
  723WAT     H2 2412   6.844   6.974   5.586
  724WAT      O 2413   5.394   0.253   1.360
  724WAT     H1 2414   5.409   0.184   1.289
  724WAT     H2 2415   5.422   0.218   1.449
  725WAT      O 2416   5.117   4.583   9.195
  725WAT     H1 2417   5.188   4.588   9.124
  725WAT     H2 2418   5.048   4.653   9.178
  726WAT      O 2419   0.676   4.615   6.256
  726WAT     H1 2420   0.718   4.526   6.272
  726WAT     H2 2421   0.717   4.658   6.176
  727WAT      O 2422   5.952   1.861   6.905
  727WAT     H1 2423   5.903   1.910   6.977
  727WAT     H2 2424   5.887   1.813   6.846
  728WAT      O 2425   8.918   7.215   0.334
  728WAT     H1 2426   8.938   7.186   0.241
  728WAT     H2 2427   8.856   7.150   0.377
  729WAT      O 2428   5.084   4.556   0.518
  729WAT     H1 2429   5.107   4.653   0.518
  729WAT     H2 2430   5.004   4.540   0.461
  730WAT      O 2431   5.536   3.220   2.116
  730WAT     H1 2432   5.510   3.147   2.052
  730WAT     H2 2433   5.514   3.308   2.075
  731WAT      O 2434   5.936   3.161   8.224
  731WAT     H1 2435   5.935   3.068   8.260
  731WAT     H2 2436   5.986   3.163   8.137
  732WAT      O 2437   1.885   1.784   1.452
  732WAT     H1 2438   1.891   1.684   1.453
  732WAT     H2 2439   1.906   1.818   1.361
  733WAT      O 2440   6.034   2.614   3.833
  733WAT     H1 2441   6.034   2.705   3.875
  733WAT     H2 2442   6.114   2.604   3.774
  734WAT      O 2443   6.500   3.551   3.839
  734WAT     H1 2444   6.401   3.540   3.845
  734WAT     H2 2445   6.523   3.648   3.826
  735WAT      O 2446   1.377   0.547   2.988
  735WAT     H1 2447   1.295   0.497   2.962
  735WAT     H2 2448   1.395   0.620   2.922
  736WAT      O 2449   1.646   5.667   1.858
  736WAT     H1 2450   1.631   5.712   1.946
  736WAT     H2 2451   1.568   5.608   1.837
  737WAT      O 2452   6.720   0.002   1.784
  737WAT     H1 2453   6.679   0.011   1.875
  737WAT     H2 2454   6.819   0.016   1.791
  738WAT      O 2455   6.856   1.826   3.739
  738WAT     H1 2456   6.881   1.736   3.702
  738WAT     H2 2457   6.783   1.866   3.683
  739WAT      O 2458   7.488   1.376   3.026
  739WAT     H1 2459   7.435   1.351   2.945
  739WAT     H2 2460   7.582   1.344   3.016
  740WAT      O 2461   9.702   3.488   8.414
  740WAT     H1 2462   9.616   3.482   8.466
  740WAT     H2 2463   9.779   3.474   8.476
  741WAT      O 2464   3.668   2.731   9.873
  741WAT     H1 2465   3.622   2.658   9.922
  741WAT     H2 2466   3.749   2.759   9.924
  742WAT      O 2467   6.467   2.577   5.206
  742WAT     H1 2468   6.399   2.638   5.245
  742WAT     H2 2469   6.537   2.631   5.158
  743WAT      O 2470   4.468   7.927   7.370
  743WAT     H1 2471   4.549   7.904   7.315
  743WAT     H2 2472   4.395   7.861   7.351
  744WAT      O 2473   6.611   3.143   9.593
  744WAT     H1 2474   6.636   3.170   9.500
  744WAT     H2 2475   6.513   3.153   9.605
  745WAT      O 2476   8.168   7.326   1.344
  745WAT     H1 2477   8.191   7.234   1.314
  745WAT     H2 2478   8.126   7.376   1.268
  746WAT      O 2479   4.362   2.186   4.467
  746WAT     H1 2480   4.287   2.121   4.477
  746WAT     H2 2481   4.410   2.169   4.381
  747WAT      O 2482   5.766   0.488   9.776
  747WAT     H1 2483   5.806   0.407   9.819
  747WAT     H2 2484   5.674   0.503   9.812
  748WAT      O 2485   8.364   4.994   4.575
  748WAT     H1 2486   8.318   4.907   4.560
  748WAT     H2 2487   8.461   4.985   4.554
  749WAT      O 2488   1.648   2.632   3.405
  749WAT     H1 2489   1.549   2.640   3.393
  749WAT     H2 2490   1.694   2.656   3.319
  750WAT      O 2491   8.098   6.340   6.166
  750WAT     H1 2492   8.035   6.335   6.243
  750WAT     H2 2493   8.143   6.252   6.154
  751WAT      O 2494   9.204   5.443   2.665
  751WAT     H1 2495   9.199   5.521   2.602
  751WAT     H2 2496   9.300   5.425   2.689
  752WAT      O 2497   9.433   1.620   5.921
  752WAT     H1 2498   9.519   1.601   5.969
  752WAT     H2 2499   9.445   1.696   5.858
  753WAT      O 2500   3.391   6.639   5.661
  753WAT     H1 2501   3.367   6.542   5.660
  753WAT     H2 2502   3.312   6.693   5.689
  754WAT      O 2503   5.142   0.226   1.112
  754WAT     H1 2504   5.137   0.160   1.036
  754WAT     H2 2505   5.198   0.188   1.185
  755WAT      O 2506   0.458   6.363   6.711
  755WAT     H1 2507   0.394   6.440   6.713
  755WAT     H2 2508   0.550   6.396   6.691
  756WAT      O 2509   6.291   3.569   0.332
  756WAT     H1 2510   6.294   3.662   0.369
  756WAT     H2 2511   6.228   3.514   0.385
  757WAT      O 2512   4.013   8.818   8.175
  757WAT     H1 2513   3.984   8.723   8.179
  757WAT     H2 2514   4.065   8.840   8.258
  758WAT      O 2515   7.877   2.506   0.301
  758WAT     H1 2516   7.936   2.478   0.377
  758WAT     H2 2517   7.843   2.598   0.318
  759WAT      O 2518   2.673   7.035   8.804
  759WAT     H1 2519   2.660   7.134   8.801
  759WAT     H2 2520   2.766   7.013   8.773
  760WAT      O 2521   8.739   1.475   2.925
  760WAT     H1 2522   8.762   1.523   3.010
  760WAT     H2 2523   8.785   1.519   2.848
  761WAT      O 2524   4.748   8.223   8.748
  761WAT     H1 2525   4.714   8.279   8.824
  761WAT     H2 2526   4.802   8.148   8.785
  762WAT      O 2527   1.091   5.465   0.795
  762WAT     H1 2528   1.142   5.417   0.866
  762WAT     H2 2529   0.997   5.430   0.792
  763WAT      O 2530   8.716   6.341   7.382
  763WAT     H1 2531   8.660   6.396   7.444
  763WAT     H2 2532   8.808   6.331   7.421
  764WAT      O 2533   3.490   4.739   9.160
  764WAT     H1 2534   3.414   4.786   9.114
  764WAT     H2 2535   3.533   4.801   9.226
  765WAT      O 2536   9.406   7.909   5.233
  765WAT     H1 2537   9.392   7.923   5.135
  765WAT     H2 2538   9.389   7.814   5.256
  766WAT      O 2539   6.862   3.448   2.050
  766WAT     H1 2540   6.874   3.443   2.149
  766WAT     H2 2541   6.909   3.371   2.007
  767WAT      O 2542   8.945   4.432   2.858
  767WAT     H1 2543   8.867   4.453   2.800
  767WAT     H2 2544   9.028   4.469   2.817
  768WAT      O 2545   4.748   2.079   2.249
  768WAT     H1 2546   4.670   2.061   2.309
  768WAT     H2 2547   4.800   1.994   2.235
  769WAT      O 2548   7.508   0.925   7.357
  769WAT     H1 2549   7.498   0.930   7.258
  769WAT     H2 2550   7.418   0.920   7.399
  770WAT      O 2551   0.019   5.270   7.999
  770WAT     H1 2552  -0.031   5.255   8.084
  770WAT     H2 2553   0.041   5.181   7.957
  771WAT      O 2554   3.698   3.468   6.690
  771WAT     H1 2555   3.786   3.420   6.683
  771WAT     H2 2556   3.714   3.561   6.722
  772WAT      O 2557   2.833   6.730   8.306
  772WAT     H1 2558   2.913   6.785   8.328
  772WAT     H2 2559   2.836   6.704   8.209
  773WAT      O 2560   0.217   6.900   3.430
  773WAT     H1 2561   0.202   6.967   3.358
  773WAT     H2 2562   0.246   6.946   3.514
  774WAT      O 2563   4.248   4.338   7.449
  774WAT     H1 2564   4.307   4.269   7.490
  774WAT     H2 2565   4.279   4.356   7.356
  775WAT      O 2566   3.068   4.160   3.275
  775WAT     H1 2567   3.131   4.222   3.322
  775WAT     H2 2568   3.005   4.213   3.219
  776WAT      O 2569   8.168   1.132   5.793
  776WAT     H1 2570   8.182   1.116   5.695
  776WAT     H2 2571   8.247   1.181   5.830
  777WAT      O 2572   9.142   3.824   6.680
  777WAT     H1 2573   9.210   3.855   6.613
  777WAT     H2 2574   9.051   3.827   6.638
  778WAT      O 2575   8.565   0.297   5.438
  778WAT     H1 2576   8.485   0.296   5.498
  778WAT     H2 2577   8.536   0.306   5.343
  779WAT      O 2578   5.665   9.577   8.941
  779WAT     H1 2579   5.682   9.556   9.037
  779WAT     H2 2580   5.601   9.654   8.934
  780WAT      O 2581   0.747   2.366   0.512
  780WAT     H1 2582   0.727   2.454   0.554
  780WAT     H2 2583   0.846   2.351   0.512
  781WAT      O 2584   8.788   7.495   3.726
  781WAT     H1 2585   8.695   7.502   3.689
  781WAT     H2 2586   8.799   7.561   3.800
  782WAT      O 2587   8.504   4.035   6.824
  782WAT     H1 2588   8.490   4.104   6.753
  782WAT     H2 2589   8.598   4.042   6.859
  783WAT      O 2590   0.154   1.603   9.442
  783WAT     H1 2591   0.079   1.635   9.500
  783WAT     H2 2592   0.138   1.508   9.416
  784WAT      O 2593   5.606   1.579   6.456
  784WAT     H1 2594   5.587   1.521   6.535
  784WAT     H2 2595   5.549   1.551   6.379
  785WAT      O 2596   0.263   5.800   3.440
  785WAT     H1 2597   0.316   5.737   3.383
  785WAT     H2 2598   0.325   5.866   3.483
  786WAT      O 2599   8.036   0.640   4.841
  786WAT     H1 2600   8.094   0.676   4.914
  786WAT     H2 2601   8.043   0.700   4.761
  787WAT      O 2602   2.318   9.683   7.427
  787WAT     H1 2603   2.275   9.769   7.455
  787WAT     H2 2604   2.358   9.694   7.336
  788WAT      O 2605   2.354   7.390   8.102
  788WAT     H1 2606   2.369   7.480   8.061
  788WAT     H2 2607   2.403   7.321   8.050
  789WAT      O 2608   2.222   9.448   0.400
  789WAT     H1 2609   2.216   9.540   0.359
  789WAT     H2 2610   2.195   9.452   0.496
  790WAT      O 2611   7.569   2.051   7.148
  790WAT     H1 2612   7.518   1.973   7.111
  790WAT     H2 2613   7.667   2.036   7.136
  791WAT      O 2614   5.750   2.478   7.984
  791WAT     H1 2615   5.849   2.462   7.993
  791WAT     H2 2616   5.723   2.554   8.043
  792WAT      O 2617   9.111   0.724   8.063
  792WAT     H1 2618   9.195   0.694   8.018
  792WAT     H2 2619   9.074   0.804   8.015
  793WAT      O 2620   4.224   9.351   1.783
  793WAT     H1 2621   4.201   9.444   1.814
  793WAT     H2 2622   4.263   9.300   1.859
  794WAT      O 2623   6.744   6.289   5.811
  794WAT     H1 2624   6.681   6.292   5.733
  794WAT     H2 2625   6.736   6.374   5.863
  795WAT      O 2626   7.495   6.819   1.851
  795WAT     H1 2627   7.416   6.878   1.864
  795WAT     H2 2628   7.516   6.771   1.937
  796WAT      O 2629   2.382   6.215   2.756
  796WAT     H1 2630   2.352   6.124   2.787
  796WAT     H2 2631   2.368   6.223   2.658
  797WAT      O 2632   2.472   7.624   6.844
  797WAT     H1 2633   2.394   7.575   6.883
  797WAT     H2 2634   2.450   7.651   6.750
  798WAT      O 2635   8.555   9.190   0.223
  798WAT     H1 2636   8.645   9.161   0.257
  798WAT     H2 2637   8.500   9.110   0.202
  799WAT      O 2638   0.693   5.572   7.083
  799WAT     H1 2639   0.624   5.627   7.035
  799WAT     H2 2640   0.735   5.628   7.155
  800WAT      O 2641   4.123   3.514   0.990
  800WAT     H1 2642   4.182   3.550   0.918
  800WAT     H2 2643   4.071   3.589   1.032
  801WAT      O 2644   8.647   7.612   9.099
  801WAT     H1 2645   8.605   7.658   9.177
  801WAT     H2 2646   8.741   7.644   9.087
  802WAT      O 2647   2.469   3.770   4.987
  802WAT     H1 2648   2.435   3.796   4.896
  802WAT     H2 2649   2.566   3.794   4.994
  803WAT      O 2650   6.455   9.330   2.710
  803WAT     H1 2651   6.389   9.385   2.659
  803WAT     H2 2652   6.520   9.289   2.647
  804WAT      O 2653   7.342   5.941   1.479
  804WAT     H1 2654   7.339   6.038   1.505
  804WAT     H2 2655   7.427   5.923   1.430
  805WAT      O 2656   3.566   7.234   3.171
  805WAT     H1 2657   3.525   7.324   3.159
  805WAT     H2 2658   3.666   7.243   3.169
  806WAT      O 2659   9.494   4.254   7.121
  806WAT     H1 2660   9.461   4.348   7.113
  806WAT     H2 2661   9.513   4.233   7.217
  807WAT      O 2662   0.156   3.398   9.259
  807WAT     H1 2663   0.113   3.487   9.270
  807WAT     H2 2664   0.090   3.326   9.281
  808WAT      O 2665   3.125   6.646   9.873
  808WAT     H1 2666   3.033   6.610   9.885
  808WAT     H2 2667   3.124   6.745   9.887
  809WAT      O 2668   6.369   2.465   4.522
  809WAT     H1 2669   6.287   2.518   4.498
  809WAT     H2 2670   6.437   2.526   4.564
  810WAT      O 2671   3.982   4.881   6.018
  810WAT     H1 2672   3.962   4.786   5.993
  810WAT     H2 2673   3.897   4.933   6.021
  811WAT      O 2674   0.906   8.229   2.531
  811WAT     H1 2675   0.932   8.320   2.498
  811WAT     H2 2676   0.897   8.166   2.453
  812WAT      O 2677   0.290   2.419   0.859
  812WAT     H1 2678   0.357   2.360   0.905
  812WAT     H2 2679   0.296   2.512   0.895
  813WAT      O 2680   1.339   5.268   3.477
  813WAT     H1 2681   1.343   5.351   3.533
  813WAT     H2 2682   1.277   5.283   3.400
  814WAT      O 2683   8.605   1.794   4.971
  814WAT     H1 2684   8.580   1.761   4.880
  814WAT     H2 2685   8.523   1.799   5.028
  815WAT      O 2686   6.963   4.542   9.634
  815WAT     H1 2687   7.036   4.483   9.600
  815WAT     H2 2688   6.905   4.491   9.698
  816WAT      O 2689   0.896   7.950   9.514
  816WAT     H1 2690   0.934   8.039   9.536
  816WAT     H2 2691   0.930   7.882   9.577
  817WAT      O 2692   1.680   2.620   1.733
  817WAT     H1 2693   1.776   2.640   1.751
  817WAT     H2 2694   1.642   2.568   1.809
  818WAT      O 2695   8.409   4.210   0.772
  818WAT     H1 2696   8.435   4.132   0.830
  818WAT     H2 2697   8.492   4.257   0.741
  819WAT      O 2698   1.401   2.199   7.582
  819WAT     H1 2699   1.456   2.128   7.627
  819WAT     H2 2700   1.436   2.289   7.609
  820WAT      O 2701   7.777   3.679   3.434
  820WAT     H1 2702   7.702   3.734   3.398
  820WAT     H2 2703   7.861   3.735   3.436
  821WAT      O 2704   8.918   4.976   1.929
  821WAT     H1 2705   8.999   4.953   1.983
  821WAT     H2 2706   8.836   4.953   1.982
  822WAT      O 2707   9.680   9.170   9.307
  822WAT     H1 2708   9.587   9.209   9.309
  822WAT     H2 2709   9.712   9.154   9.400
  823WAT      O 2710   7.347   5.991   3.264
  823WAT     H1 2711   7.439   5.997   3.302
  823WAT     H2 2712   7.296   6.074   3.287
  824WAT      O 2713   4.926   2.968   8.642
  824WAT     H1 2714   4.933   3.051   8.698
  824WAT     H2 2715   4.846   2.915   8.670
  825WAT      O 2716   5.703   2.138   4.115
  825WAT     H1 2717   5.673   2.088   4.196
  825WAT     H2 2718   5.742   2.226   4.142
  826WAT      O 2719   3.473   9.062   7.357
  826WAT     H1 2720   3.476   8.967   7.325
  826WAT     H2 2721   3.392   9.108   7.320
  827WAT      O 2722   3.317   3.289   9.358
  827WAT     H1 2723   3.241   3.288   9.292
  827WAT     H2 2724   3.370   3.373   9.346
  828WAT      O 2725   8.785   3.458   6.203
  828WAT     H1 2726   8.780   3.468   6.302
  828WAT     H2 2727   8.854   3.521   6.167
  829WAT      O 2728   4.545   4.910   2.325
  829WAT     H1 2729   4.562   4.978   2.396
  829WAT     H2 2730   4.577   4.945   2.237
  830WAT      O 2731   6.177   4.329   2.754
  830WAT     H1 2732   6.193   4.268   2.832
  830WAT     H2 2733   6.200   4.423   2.781
  831WAT      O 2734   8.169   1.279   2.136
  831WAT     H1 2735   8.174   1.206   2.205
  831WAT     H2 2736   8.256   1.283   2.087
  832WAT      O 2737   2.620   6.844   6.411
  832WAT     H1 2738   2.521   6.838   6.418
  832WAT     H2 2739   2.651   6.933   6.446
  833WAT      O 2740   6.885   0.691   7.807
  833WAT     H1 2741   6.969   0.650   7.772
  833WAT     H2 2742   6.906   0.775   7.856
  834WAT      O 2743   8.246   1.232   7.874
  834WAT     H1 2744   8.282   1.139   7.872
  834WAT     H2 2745   8.146   1.229   7.870
  835WAT      O 2746   3.787   2.120   5.707
  835WAT     H1 2747   3.690   2.141   5.721
  835WAT     H2 2748   3.801   2.090   5.613
  836WAT      O 2749   5.503   0.013   9.006
  836WAT     H1 2750   5.521   0.106   8.972
  836WAT     H2 2751   5.406   0.002   9.023
  837WAT      O 2752   7.194   1.177   8.367
  837WAT     H1 2753   7.184   1.270   8.333
  837WAT     H2 2754   7.168   1.174   8.463
  838WAT      O 2755   1.311   8.779   7.605
  838WAT     H1 2756   1.271   8.711   7.544
  838WAT     H2 2757   1.345   8.734   7.688
  839WAT      O 2758   6.643   4.260   5.678
  839WAT     H1 2759   6.731   4.248   5.632
  839WAT     H2 2760   6.659   4.295   5.771
  840WAT      O 2761   1.032   0.601   4.087
  840WAT     H1 2762   1.048   0.640   4.177
  840WAT     H2 2763   0.972   0.662   4.034
  841WAT      O 2764   7.344   7.657   7.165
  841WAT     H1 2765   7.356   7.690   7.259
  841WAT     H2 2766   7.248   7.633   7.150
  842WAT      O 2767   1.763   1.779   8.028
  842WAT     H1 2768   1.819   1.784   7.945
  842WAT     H2 2769   1.821   1.793   8.108
  843WAT      O 2770   4.672   4.923   8.373
  843WAT     H1 2771   4.715   4.910   8.462
  843WAT     H2 2772   4.594   4.861   8.364
  844WAT      O 2773   6.946   0.506   3.037
  844WAT     H1 2774   6.878   0.437   3.062
  844WAT     H2 2775   7.002   0.472   2.962
  845WAT      O 2776   5.354   4.286   7.047
  845WAT     H1 2777   5.401   4.199   7.036
  845WAT     H2 2778   5.270   4.286   6.992
  846WAT      O 2779   3.207   5.426   6.777
  846WAT     H1 2780   3.142   5.497   6.802
  846WAT     H2 2781   3.196   5.348   6.838
  847WAT      O 2782   6.990   2.331   2.072
  847WAT     H1 2783   7.060   2.402   2.079
  847WAT     H2 2784   6.915   2.352   2.134
  848WAT      O 2785   7.597   6.751   7.345
  848WAT     H1 2786   7.665   6.681   7.370
  848WAT     H2 2787   7.642   6.840   7.339
  849WAT      O 2788   6.534   5.372   0.118
  849WAT     H1 2789   6.575   5.463   0.127
  849WAT     H2 2790   6.435   5.382   0.107
  850WAT      O 2791   7.595   9.689   9.431
  850WAT     H1 2792   7.556   9.597   9.436
  850WAT     H2 2793   7.627   9.706   9.338
  851WAT      O 2794   9.554   5.028   2.177
  851WAT     H1 2795   9.474   4.975   2.204
  851WAT     H2 2796   9.569   5.019   2.078
  852WAT      O 2797   4.588   9.481   5.551
  852WAT     H1 2798   4.674   9.502   5.503
  852WAT     H2 2799   4.511   9.512   5.496
  853WAT      O 2800   3.052   3.247   1.195
  853WAT     H1 2801   3.088   3.217   1.107
  853WAT     H2 2802   3.113   3.316   1.235
  854WAT      O 2803   6.359   7.541   8.758
  854WAT     H1 2804   6.271   7.589   8.761
  854WAT     H2 2805   6.361   7.482   8.677
  855WAT      O 2806   0.253   2.061   8.817
  855WAT     H1 2807   0.177   2.018   8.865
  855WAT     H2 2808   0.239   2.053   8.718
  856WAT      O 2809   7.773   2.715   5.699
  856WAT     H1 2810   7.854   2.713   5.641
  856WAT     H2 2811   7.795   2.757   5.787
  857WAT      O 2812   5.286   5.521   2.375
  857WAT     H1 2813   5.305   5.568   2.288
  857WAT     H2 2814   5.270   5.424   2.357
  858WAT      O 2815   6.075   6.832   1.297
  858WAT     H1 2816   6.070   6.915   1.241
  858WAT     H2 2817   5.983   6.795   1.310
  859WAT      O 2818   7.144   2.765   6.336
  859WAT     H1 2819   7.149   2.865   6.344
  859WAT     H2 2820   7.236   2.727   6.345
  860WAT      O 2821   6.706   7.747   5.114
  860WAT     H1 2822   6.612   7.724   5.139
  860WAT     H2 2823   6.728   7.839   5.147
  861WAT      O 2824   5.203   6.252   4.604
  861WAT     H1 2825   5.203   6.272   4.506
  861WAT     H2 2826   5.109   6.237   4.635
  862WAT      O 2827   7.440   6.272   9.421
  862WAT     H1 2828   7.356   6.277   9.367
  862WAT     H2 2829   7.517   6.249   9.361
  863WAT      O 2830   8.270   7.572   8.342
  863WAT     H1 2831   8.275   7.514   8.260
  863WAT     H2 2832   8.208   7.649   8.325
  864WAT      O 2833   4.941   1.179   7.111
  864WAT     H1 2834   4.870   1.207   7.047
  864WAT     H2 2835   4.938   1.080   7.123
  865WAT      O 2836   3.519   0.159   5.639
  865WAT     H1 2837   3.486   0.133   5.548
  865WAT     H2 2838   3.446   0.147   5.706
  866WAT      O 2839   6.325   8.359   5.317
  866WAT     H1 2840   6.304   8.331   5.223
  866WAT     H2 2841   6.253   8.420   5.350
  867WAT      O 2842   0.896   2.362   6.168
  867WAT     H1 2843   0.798   2.379   6.182
  867WAT     H2 2844   0.918   2.270   6.200
  868WAT      O 2845   3.188   1.716   1.157
  868WAT     H1 2846   3.239   1.637   1.189
  868WAT     H2 2847   3.251   1.791   1.137
  869WAT      O 2848   1.931   1.555   1.964
  869WAT     H1 2849   1.971   1.561   2.056
  869WAT     H2 2850   1.897   1.645   1.936
  870WAT      O 2851   4.025   2.914   9.019
  870WAT     H1 2852   4.023   3.013   9.012
  870WAT     H2 2853   3.942   2.876   8.978
  871WAT      O 2854   7.307   2.138   1.893
  871WAT     H1 2855   7.350   2.048   1.887
  871WAT     H2 2856   7.362   2.197   1.952
  872WAT      O 2857   3.232   7.512   1.560
  872WAT     H1 2858   3.254   7.461   1.476
  872WAT     H2 2859   3.242   7.610   1.543
  873WAT      O 2860   2.667   7.036   0.602
  873WAT     H1 2861   2.581   7.025   0.651
  873WAT     H2 2862   2.655   7.010   0.506
  874WAT      O 2863   1.325   7.874   4.185
  874WAT     H1 2864   1.424   7.868   4.196
  874WAT     H2 2865   1.285   7.922   4.263
  875WAT      O 2866   8.334   7.961   5.715
  875WAT     H1 2867   8.334   8.054   5.678
  875WAT     H2 2868   8.245   7.918   5.697
  876WAT      O 2869   2.861   5.493   9.461
  876WAT     H1 2870   2.934   5.554   9.430
  876WAT     H2 2871   2.778   5.512   9.408
  877WAT      O 2872   1.776   2.341   5.613
  877WAT     H1 2873   1.782   2.408   5.539
  877WAT     H2 2874   1.776   2.388   5.701
  878WAT      O 2875   3.746   3.256   2.313
  878WAT     H1 2876   3.723   3.179   2.372
  878WAT     H2 2877   3.822   3.231   2.253
  879WAT      O 2878   9.292   6.160   4.461
  879WAT     H1 2879   9.373   6.186   4.408
  879WAT     H2 2880   9.228   6.236   4.465
  880WAT      O 2881   2.456   2.768   0.618
  880WAT     H1 2882   2.411   2.839   0.563
  880WAT     H2 2883   2.390   2.697   0.642
  881WAT      O 2884   8.917   2.645   0.810
  881WAT     H1 2885   8.960   2.692   0.888
  881WAT     H2 2886   8.891   2.712   0.741
  882WAT      O 2887   9.386   1.562   3.060
  882WAT     H1 2888   9.387   1.543   2.962
  882WAT     H2 2889   9.442   1.642   3.079
  883WAT      O 2890   7.559   2.843   9.832
  883WAT     H1 2891   7.601   2.801   9.913
  883WAT     H2 2892   7.529   2.935   9.855
  884WAT      O 2893   7.999   3.560   7.380
  884WAT     H1 2894   7.975   3.469   7.412
  884WAT     H2 2895   8.032   3.554   7.285
  885WAT      O 2896   5.610   8.116   1.235
  885WAT     H1 2897   5.557   8.198   1.213
  885WAT     H2 2898   5.548   8.039   1.252
  886WAT      O 2899   4.801   0.445   2.814
  886WAT     H1 2900   4.847   0.491   2.738
  886WAT     H2 2901   4.764   0.515   2.877
  887WAT      O 2902   6.317   8.097   7.868
  887WAT     H1 2903   6.382   8.046   7.812
  887WAT     H2 2904   6.353   8.189   7.886
  888WAT      O 2905   5.009   6.613   6.936
  888WAT     H1 2906   5.003   6.698   6.883
  888WAT     H2 2907   4.932   6.554   6.915
  889WAT      O 2908   4.784   1.647   0.351
  889WAT     H1 2909   4.869   1.605   0.319
  889WAT     H2 2910   4.804   1.715   0.421
  890WAT      O 2911   2.751   1.866   5.094
  890WAT     H1 2912   2.710   1.777   5.076
  890WAT     H2 2913   2.696   1.915   5.162
  891WAT      O 2914   7.850   2.563   6.342
  891WAT     H1 2915   7.809   2.514   6.265
  891WAT     H2 2916   7.870   2.499   6.415
  892WAT      O 2917   3.467   1.118   2.153
  892WAT     H1 2918   3.475   1.199   2.212
  892WAT     H2 2919   3.388   1.129   2.093
  893WAT      O 2920   2.859   4.491   7.209
  893WAT     H1 2921   2.831   4.444   7.292
  893WAT     H2 2922   2.811   4.452   7.131
  894WAT      O 2923   2.888   6.795   5.693
  894WAT     H1 2924   2.828   6.837   5.625
  894WAT     H2 2925   2.984   6.806   5.665
  895WAT      O 2926   3.494   4.578   2.970
  895WAT     H1 2927   3.528   4.492   2.931
  895WAT     H2 2928   3.423   4.558   3.037
  896WAT      O 2929   4.393   7.402   4.734
  896WAT     H1 2930   4.414   7.474   4.668
  896WAT     H2 2931   4.326   7.340   4.695
  897WAT      O 2932   5.550   8.428   3.693
  897WAT     H1 2933   5.544   8.528   3.694
  897WAT     H2 2934   5.491   8.392   3.621
  898WAT      O 2935   0.006   4.864   5.690
  898WAT     H1 2936   0.011   4.865   5.591
  898WAT     H2 2937   0.015   4.770   5.724
  899WAT      O 2938   0.503   1.479   2.174
  899WAT     H1 2939   0.509   1.539   2.254
  899WAT     H2 2940   0.408   1.455   2.157
  900WAT      O 2941   2.658   6.155   5.807
  900WAT     H1 2942   2.599   6.185   5.732
  900WAT     H2 2943   2.753   6.179   5.787
  901WAT      O 2944   4.860   2.624   7.373
  901WAT     H1 2945   4.958   2.642   7.378
  901WAT     H2 2946   4.812   2.709   7.351
  902WAT      O 2947   8.944   0.776   1.842
  902WAT     H1 2948   8.964   0.859   1.895
  902WAT     H2 2949   8.862   0.732   1.879
  903WAT      O 2950   5.983   0.509   1.805
  903WAT     H1 2951   6.067   0.545   1.847
  903WAT     H2 2952   5.993   0.411   1.791
  904WAT      O 2953   2.369   1.345   2.385
  904WAT     H1 2954   2.274   1.345   2.352
  904WAT     H2 2955   2.421   1.415   2.338
  905WAT      O 2956   1.419   4.263   2.089
  905WAT     H1 2957   1.391   4.200   2.162
  905WAT     H2 2958   1.426   4.355   2.126
  906WAT      O 2959   2.712   2.102   0.538
  906WAT     H1 2960   2.744   2.184   0.492
  906WAT     H2 2961   2.715   2.025   0.474
  907WAT      O 2962   6.897   9.129   7.771
  907WAT     H1 2963   6.834   9.154   7.698
  907WAT     H2 2964   6.939   9.041   7.750
  908WAT      O 2965   6.815   7.856   2.943
  908WAT     H1 2966   6.907   7.890   2.962
  908WAT     H2 2967   6.801   7.770   2.992
  909WAT      O 2968   3.689   7.898   8.291
  909WAT     H1 2969   3.759   7.843   8.336
  909WAT     H2 2970   3.608   7.842   8.275
  910WAT      O 2971   2.602   8.031   2.092
  910WAT     H1 2972   2.540   8.105   2.120
  910WAT     H2 2973   2.684   8.033   2.149
  911WAT      O 2974   5.815   4.965   5.801
  911WAT     H1 2975   5.832   4.949   5.898
  911WAT     H2 2976   5.742   4.904   5.770
  912WAT      O 2977   6.072   0.076   9.681
  912WAT     H1 2978   6.118   0.105   9.597
  912WAT     H2 2979   6.059  -0.023   9.680
  913WAT      O 2980   9.060   1.517   4.090
  913WAT     H1 2981   9.078   1.532   3.993
  913WAT     H2 2982   9.133   1.559   4.144
  914WAT      O 2983   1.899   7.836   8.309
  914WAT     H1 2984   1.955   7.764   8.270
  914WAT     H2 2985   1.945   7.925   8.299
  915WAT      O 2986   6.197   9.292   1.630
  915WAT     H1 2987   6.149   9.264   1.713
  915WAT     H2 2988   6.291   9.259   1.634
  916WAT      O 2989   9.470   3.899   7.854
  916WAT     H1 2990   9.520   3.835   7.911
  916WAT     H2 2991   9.489   3.992   7.884
  917WAT      O 2992   6.163   9.387   4.962
  917WAT     H1 2993   6.211   9.311   5.005
  917WAT     H2 2994   6.226   9.437   4.902
  918WAT      O 2995   9.531   2.152   5.054
  918WAT     H1 2996   9.595   2.208   5.002
  918WAT     H2 2997   9.438   2.185   5.040
  919WAT      O 2998   4.510   0.239   8.555
  919WAT     H1 2999   4.499   0.182   8.637
  919WAT     H2 3000   4.512   0.335   8.582
  920WAT      O 3001   5.884   1.783   0.637
  920WAT     H1 3002   5.895   1.829   0.549
  920WAT     H2 3003   5.851   1.690   0.622
  921WAT      O 3004   2.373   2.471   2.442
  921WAT     H1 3005   2.335   2.559   2.469
  921WAT     H2 3006   2.421   2.481   2.354
  922WAT      O 3007   2.987   5.637   3.391
  922WAT     H1 3008   2.986   5.546   3.433
  922WAT     H2 3009   3.072   5.649   3.340
  923WAT      O 3010   8.920   2.172   6.193
  923WAT     H1 3011   8.826   2.189   6.166
  923WAT     H2 3012   8.922   2.103   6.265
  924WAT      O 3013   6.775   8.272   1.607
  924WAT     H1 3014   6.727   8.247   1.692
  924WAT     H2 3015   6.810   8.365   1.615
  925WAT      O 3016   0.086   8.948   3.442
  925WAT     H1 3017   0.147   8.872   3.465
  925WAT     H2 3018   0.070   9.004   3.523
  926WAT      O 3019   9.382   8.103   5.578
  926WAT     H1 3020   9.465   8.047   5.577
  926WAT     H2 3021   9.403   8.191   5.622
  927WAT      O 3022   4.332   5.701   6.013
  927WAT     H1 3023   4.383   5.757   6.077
  927WAT     H2 3024   4.250   5.665   6.057
  928WAT      O 3025   9.319   9.038   4.614
  928WAT     H1 3026   9.402   8.989   4.642
  928WAT     H2 3027   9.292   9.102   4.686
  929WAT      O 3028   7.616   7.545   9.166
  929WAT     H1 3029   7.628   7.579   9.259
  929WAT     H2 3030   7.558   7.463   9.168
  930WAT      O 3031   0.237   1.460   4.356
  930WAT     H1 3032   0.256   1.551   4.320
  930WAT     H2 3033   0.198   1.403   4.284
  931WAT      O 3034   1.572   2.574   2.947
  931WAT     H1 3035   1.605   2.626   3.025
  931WAT     H2 3036   1.583   2.476   2.964
  932WAT      O 3037   2.360   9.356   9.462
  932WAT     H1 3038   2.331   9.422   9.393
  932WAT     H2 3039   2.397   9.274   9.418
  933WAT      O 3040   6.794   7.871   6.778
  933WAT     H1 3041   6.701   7.887   6.745
  933WAT     H2 3042   6.859   7.917   6.717
  934WAT      O 3043   9.454   5.372   2.722
  934WAT     H1 3044   9.514   5.305   2.679
  934WAT     H2 3045   9.415   5.333   2.806
  935WAT      O 3046   3.971   3.931   4.421
  935WAT     H1 3047   3.963   4.030   4.429
  935WAT     H2 3048   3.884   3.888   4.445
  936WAT      O 3049   9.499   6.957   2.130
  936WAT     H1 3050   9.514   7.056   2.124
  936WAT     H2 3051   9.456   6.935   2.218
  937WAT      O 3052   8.660   9.817   5.984
  937WAT     H1 3053   8.576   9.836   5.933
  937WAT     H2 3054   8.731   9.785   5.920
  938WAT      O 3055   9.837   9.616   9.040
  938WAT     H1 3056   9.815   9.565   9.124
  938WAT     H2 3057   9.827   9.556   8.961
  939WAT      O 3058   7.257   8.161   0.958
  939WAT     H1 3059   7.225   8.159   1.052
  939WAT     H2 3060   7.232   8.076   0.912
  940WAT      O 3061   7.153   0.492   8.280
  940WAT     H1 3062   7.059   0.526   8.287
  940WAT     H2 3063   7.208   0.559   8.230
  941WAT      O 3064   8.881   7.814   1.831
  941WAT     H1 3065   8.968   7.861   1.823
  941WAT     H2 3066   8.893   7.717   1.810
  942WAT      O 3067   2.224   6.122   6.798
  942WAT     H1 3068   2.155   6.193   6.786
  942WAT     H2 3069   2.188   6.035   6.766
  943WAT      O 3070   8.573   4.363   5.192
  943WAT     H1 3071   8.537   4.334   5.103
  943WAT     H2 3072   8.592   4.461   5.190
  944WAT      O 3073   7.093   8.782   6.684
  944WAT     H1 3074   7.053   8.697   6.650
  944WAT     H2 3075   7.145   8.763   6.767
  945WAT      O 3076   1.225   3.865   1.682
  945WAT     H1 3077   1.146   3.806   1.697
  945WAT     H2 3078   1.293   3.849   1.753
  946WAT      O 3079   9.089   8.918   3.853
  946WAT     H1 3080   9.089   8.952   3.947
  946WAT     H2 3081   8.996   8.925   3.816
  947WAT      O 3082   9.396   9.064   2.970
  947WAT     H1 3083   9.321   9.101   3.024
  947WAT     H2 3084   9.363   8.985   2.918
  948WAT      O 3085   7.875   7.919   0.673
  948WAT     H1 3086   7.796   7.909   0.734
  948WAT     H2 3087   7.862   7.864   0.591
  949WAT      O 3088   6.675   1.485   6.344
  949WAT     H1 3089   6.619   1.438   6.412
  949WAT     H2 3090   6.772   1.463   6.360
  950WAT      O 3091   6.500   6.073   9.165
  950WAT     H1 3092   6.419   6.055   9.221
  950WAT     H2 3093   6.477   6.058   9.069
  951WAT      O 3094   5.392   3.463   4.457
  951WAT     H1 3095   5.353   3.439   4.368
  951WAT     H2 3096   5.318   3.489   4.520
  952WAT      O 3097   5.760   2.330   1.077
  952WAT     H1 3098   5.792   2.420   1.048
  952WAT     H2 3099   5.795   2.261   1.014
  953WAT      O 3100   0.149   1.119   6.465
  953WAT     H1 3101   0.067   1.148   6.514
  953WAT     H2 3102   0.230   1.159   6.508
  954WAT      O 3103   8.752   9.342   1.825
  954WAT     H1 3104   8.839   9.342   1.776
  954WAT     H2 3105   8.680   9.304   1.767
  955WAT      O 3106   9.442   7.282   8.806
  955WAT     H1 3107   9.361   7.241   8.764
  955WAT     H2 3108   9.453   7.246   8.898
  956WAT      O 3109   8.881   9.782   1.021
  956WAT     H1 3110   8.930   9.732   1.091
  956WAT     H2 3111   8.930   9.775   0.934
  957WAT      O 3112   8.492   7.645   1.641
  957WAT     H1 3113   8.394   7.652   1.661
  957WAT     H2 3114   8.511   7.558   1.595
  958WAT      O 3115   6.222   4.004   8.743
  958WAT     H1 3116   6.138   3.999   8.688
  958WAT     H2 3117   6.300   4.021   8.682
  959WAT      O 3118   2.324   0.514   3.947
  959WAT     H1 3119   2.262   0.437   3.960
  959WAT     H2 3120   2.405   0.502   4.004
  960WAT      O 3121   0.926   5.667   9.808
  960WAT     H1 3122   0.998   5.632   9.747
  960WAT     H2 3123   0.922   5.609   9.890
  961WAT      O 3124   4.559   8.709   9.140
  961WAT     H1 3125   4.506   8.633   9.103
  961WAT     H2 3126   4.581   8.773   9.066
  962WAT      O 3127   4.584   9.009   6.752
  962WAT     H1 3128   4.507   8.987   6.691
  962WAT     H2 3129   4.599   8.933   6.815
  963WAT      O 3130   3.597   6.440   5.967
  963WAT     H1 3131   3.603   6.540   5.967
  963WAT     H2 3132   3.598   6.406   6.061
  964WAT      O 3133   1.189   1.472   4.747
  964WAT     H1 3134   1.146   1.486   4.836
  964WAT     H2 3135   1.265   1.536   4.736
  965WAT      O 3136   5.221   4.584   8.511
  965WAT     H1 3137   5.317   4.559   8.502
  965WAT     H2 3138   5.206   4.629   8.599
  966WAT      O 3139   4.321   7.030   4.334
  966WAT     H1 3140   4.237   6.985   4.363
  966WAT     H2 3141   4.383   6.963   4.294
  967WAT      O 3142   6.218   0.337   6.206
  967WAT     H1 3143   6.191   0.363   6.299
  967WAT     H2 3144   6.315   0.312   6.206
  968WAT      O 3145   7.219   8.917   4.441
  968WAT     H1 3146   7.264   8.828   4.448
  968WAT     H2 3147   7.274   8.977   4.382
  969WAT      O 3148   9.318   4.265   1.100
  969WAT     H1 3149   9.373   4.339   1.063
  969WAT     H2 3150   9.276   4.294   1.186
  970WAT      O 3151   7.098   9.458   4.072
  970WAT     H1 3152   7.111   9.546   4.026
  970WAT     H2 3153   7.028   9.405   4.025
  971WAT      O 3154   8.035   1.732   9.539
  971WAT     H1 3155   8.064   1.801   9.472
  971WAT     H2 3156   8.037   1.772   9.631
  972WAT      O 3157   9.112   3.383   4.454
  972WAT     H1 3158   9.077   3.296   4.418
  972WAT     H2 3159   9.119   3.449   4.379
  973WAT      O 3160   2.529   7.892   7.644
  973WAT     H1 3161   2.577   7.804   7.638
  973WAT     H2 3162   2.568   7.956   7.578
  974WAT      O 3163   7.479   8.893   1.616
  974WAT     H1 3164   7.548   8.956   1.651
  974WAT     H2 3165   7.453   8.920   1.524
  975WAT      O 3166   6.806   6.607   8.414
  975WAT     H1 3167   6.847   6.697   8.428
  975WAT     H2 3168   6.846   6.541   8.478
  976WAT      O 3169   8.531   0.903   2.759
  976WAT     H1 3170   8.504   0.993   2.793
  976WAT     H2 3171   8.486   0.886   2.671
  977WAT      O 3172   9.395   3.108   9.587
  977WAT     H1 3173   9.307   3.151   9.606
  977WAT     H2 3174   9.412   3.109   9.488
  978WAT      O 3175   3.947   8.662   5.254
  978WAT     H1 3176   3.992   8.749   5.236
  978WAT     H2 3177   3.998   8.612   5.325
  979WAT      O 3178   6.591   5.493   6.776
  979WAT     H1 3179   6.579   5.414   6.836
  979WAT     H2 3180   6.679   5.536   6.796
  980WAT      O 3181   7.894   2.775   0.296
  980WAT     H1 3182   7.888   2.811   0.389
  980WAT     H2 3183   7.958   2.831   0.243
  981WAT      O 3184   8.939   2.475   5.895
  981WAT     H1 3185   8.847   2.485   5.933
  981WAT     H2 3186   8.958   2.379   5.877
  982WAT      O 3187   4.737   3.470   4.527
  982WAT     H1 3188   4.724   3.557   4.478
  982WAT     H2 3189   4.653   3.448   4.577
  983WAT      O 3190   1.761   2.525   5.053
  983WAT     H1 3191   1.710   2.610   5.054
  983WAT     H2 3192   1.799   2.510   4.962
  984WAT      O 3193   2.443   9.120   5.402
  984WAT     H1 3194   2.533   9.082   5.379
  984WAT     H2 3195   2.425   9.202   5.348
  985WAT      O 3196   7.743   5.312   5.220
  985WAT     H1 3197   7.805   5.248   5.175
  985WAT     H2 3198   7.767   5.319   5.316
  986WAT      O 3199   9.328   5.706   5.770
  986WAT     H1 3200   9.342   5.636   5.700
  986WAT     H2 3201   9.352   5.669   5.860
  987WAT      O 3202   9.443   8.869   5.669
  987WAT     H1 3203   9.534   8.894   5.636
  987WAT     H2 3204   9.403   8.800   5.609
  988WAT      O 3205   2.621   1.306   0.631
  988WAT     H1 3206   2.664   1.217   0.621
  988WAT     H2 3207   2.569   1.308   0.717
  989WAT      O 3208   0.452   2.364   9.431
  989WAT     H1 3209   0.361   2.352   9.472
  989WAT     H2 3210   0.521   2.365   9.503
  990WAT      O 3211   4.716   6.816   3.223
  990WAT     H1 3212   4.692   6.721   3.240
  990WAT     H2 3213   4.763   6.853   3.303
  991WAT      O 3214   9.217   6.975   3.778
  991WAT     H1 3215   9.147   6.964   3.708
  991WAT     H2 3216   9.213   6.898   3.841
  992WAT      O 3217   8.787   5.154   6.202
  992WAT     H1 3218   8.704   5.160   6.257
  992WAT     H2 3219   8.857   5.215   6.239
  993WAT      O 3220   1.845   9.318   0.158
  993WAT     H1 3221   1.917   9.306   0.226
  993WAT     H2 3222   1.766   9.361   0.201
  994WAT      O 3223   5.146   3.851   1.210
  994WAT     H1 3224   5.087   3.928   1.187
  994WAT     H2 3225   5.224   3.849   1.147
  995WAT      O 3226   7.960   6.359   1.646
  995WAT     H1 3227   7.922   6.418   1.574
  995WAT     H2 3228   7.960   6.264   1.615
  996WAT      O 3229   3.425   2.386   5.894
  996WAT     H1 3230   3.327   2.382   5.911
  996WAT     H2 3231   3.471   2.426   5.973
  997WAT      O 3232   4.152   4.558   8.559
  997WAT     H1 3233   4.175   4.654   8.574
  997WAT     H2 3234   4.236   4.504   8.550
  998WAT      O 3235   9.073   2.972   9.325
  998WAT     H1 3236   9.022   2.946   9.242
  998WAT     H2 3237   9.082   3.071   9.329
  999WAT      O 3238   5.391   2.405   9.774
  999WAT     H1 3239   5.406   2.407   9.872
  999WAT     H2 3240   5.304   2.448   9.751
 1000WAT      O 3241   4.186   8.688   3.928
 1000WAT     H1 3242   4.251   8.633   3.875
 1000WAT     H2 3243   4.093   8.657   3.909
 1001WAT      O 3244   8.436   0.264   5.180
 1001WAT     H1 3245   8.364   0.212   5.226
 1001WAT     H2 3246   8.468   0.213   5.100
 1002WAT      O 3247   1.128   7.939   1.103
 1002WAT     H1 3248   1.175   7.877   1.040
 1002WAT     H2 3249   1.181   8.022   1.114
 1003WAT      O 3250   0.266   8.619   8.145
 1003WAT     H1 3251   0.179   8.651   8.184
 1003WAT     H2 3252   0.329   8.696   8.138
 1004WAT      O 3253   3.495   1.572   8.408
 1004WAT     H1 3254   3.546   1.587   8.492
 1004WAT     H2 3255   3.464   1.660   8.371
 1005WAT      O 3256   0.673   2.929   5.557
 1005WAT     H1 3257   0.690   2.836   5.588
 1005WAT     H2 3258   0.587   2.962   5.597
 1006WAT      O 3259   4.586   3.801   4.361
 1006WAT     H1 3260   4.583   3.897   4.333
 1006WAT     H2 3261   4.672   3.783   4.410
 1007WAT      O 3262   7.268   0.506   7.181
 1007WAT     H1 3263   7.320   0.573   7.129
 1007WAT     H2 3264   7.315   0.418   7.179
 1008WAT      O 3265   6.372   7.368   0.253
 1008WAT     H1 3266   6.455   7.409   0.215
 1008WAT     H2 3267   6.375   7.372   0.353
 1009WAT      O 3268   9.690   4.556   0.867
 1009WAT     H1 3269   9.666   4.461   0.844
 1009WAT     H2 3270   9.781   4.558   0.908
 1010WAT      O 3271   2.942   1.321   8.626
 1010WAT     H1 3272   2.974   1.237   8.582
 1010WAT     H2 3273   2.857   1.302   8.676
 1011WAT      O 3274   8.714   2.062   4.267
 1011WAT     H1 3275   8.714   1.994   4.340
 1011WAT     H2 3276   8.774   2.032   4.193
 1012WAT      O 3277   1.136   0.613   7.670
 1012WAT     H1 3278   1.158   0.531   7.723
 1012WAT     H2 3279   1.041   0.639   7.686
 1013WAT      O 3280   9.406   5.682   4.064
 1013WAT     H1 3281   9.309   5.663   4.049
 1013WAT     H2 3282   9.417   5.737   4.147
 1014WAT      O 3283   0.792   5.490   1.435
 1014WAT     H1 3284   0.844   5.545   1.502
 1014WAT     H2 3285   0.712   5.542   1.405
 1015WAT      O 3286   2.789   0.791   8.902
 1015WAT     H1 3287   2.793   0.724   8.976
 1015WAT     H2 3288   2.702   0.841   8.906
 1016WAT      O 3289   9.456   9.318   4.138
 1016WAT     H1 3290   9.457   9.327   4.039
 1016WAT     H2 3291   9.444   9.408   4.180
 1017WAT      O 3292   3.437   1.164   1.324
 1017WAT     H1 3293   3.501   1.138   1.252
 1017WAT     H2 3294   3.486   1.209   1.399
 1018WAT      O 3295   6.109   7.539   2.656
 1018WAT     H1 3296   6.088   7.443   2.675
 1018WAT     H2 3297   6.198   7.562   2.694
 1019WAT      O 3298   6.910   8.013   1.456
 1019WAT     H1 3299   6.858   8.075   1.514
 1019WAT     H2 3300   7.007   8.019   1.480
 1020WAT      O 3301   9.023   6.429   6.505
 1020WAT     H1 3302   8.988   6.409   6.596
 1020WAT     H2 3303   8.974   6.507   6.467
 1021WAT      O 3304   8.060   5.774   3.203
 1021WAT     H1 3305   8.067   5.740   3.109
 1021WAT     H2 3306   8.136   5.837   3.221
 1022WAT      O 3307   3.572   8.024   0.292
 1022WAT     H1 3308   3.492   7.968   0.270
 1022WAT     H2 3309   3.593   8.015   0.390
 1023WAT      O 3310   9.000   6.305   9.318
 1023WAT     H1 3311   8.905   6.312   9.347
 1023WAT     H2 3312   9.004   6.302   9.218
 1024WAT      O 3313   9.705   1.768   9.174
 1024WAT     H1 3314   9.655   1.750   9.089
 1024WAT     H2 3315   9.801   1.741   9.162
 1025WAT      O 3316   6.784   0.766   7.321
 1025WAT     H1 3317   6.738   0.850   7.292
 1025WAT     H2 3318   6.823   0.720   7.242
 1026WAT      O 3319   2.153   6.191   7.849
 1026WAT     H1 3320   2.220   6.144   7.791
 1026WAT     H2 3321   2.066   6.142   7.845
 1027WAT      O 3322   6.219   8.364   8.486
 1027WAT     H1 3323   6.121   8.365   8.503
 1027WAT     H2 3324   6.261   8.286   8.533
 1028WAT      O 3325   1.042   1.326   8.470
 1028WAT     H1 3326   0.946   1.351   8.466
 1028WAT     H2 3327   1.090   1.366   8.392
 1029WAT      O 3328   5.275   4.998   3.059
 1029WAT     H1 3329   5.263   4.915   3.005
 1029WAT     H2 3330   5.282   4.974   3.156
 1030WAT      O 3331   8.249   1.958   3.569
 1030WAT     H1 3332   8.263   1.877   3.625
 1030WAT     H2 3333   8.261   1.935   3.473
 1031WAT      O 3334   5.106   7.444   9.129
 1031WAT     H1 3335   5.136   7.358   9.088
 1031WAT     H2 3336   5.043   7.490   9.067
 1032WAT      O 3337   2.652   8.099   4.781
 1032WAT     H1 3338   2.679   8.088   4.877
 1032WAT     H2 3339   2.705   8.038   4.724
 1033WAT      O 3340   9.844   3.330   4.552
 1033WAT     H1 3341   9.806   3.317   4.643
 1033WAT     H2 3342   9.944   3.319   4.555
 1034WAT      O 3343   9.188   4.729   5.842
 1034WAT     H1 3344   9.223   4.752   5.933
 1034WAT     H2 3345   9.188   4.629   5.831
 1035WAT      O 3346   9.069   2.860   6.176
 1035WAT     H1 3347   9.151   2.897   6.220
 1035WAT     H2 3348   9.052   2.768   6.211
 1036WAT      O 3349   8.475   5.346   1.983
 1036WAT     H1 3350   8.458   5.249   1.998
 1036WAT     H2 3351   8.548   5.377   2.045
 1037WAT      O 3352   2.301   4.279   7.611
 1037WAT     H1 3353   2.383   4.308   7.562
 1037WAT     H2 3354   2.246   4.220   7.553
 1038WAT      O 3355   5.248   6.214   6.376
 1038WAT     H1 3356   5.156   6.173   6.373
 1038WAT     H2 3357   5.249   6.286   6.446
 1039WAT      O 3358   1.549   8.842   3.884
 1039WAT     H1 3359   1.595   8.886   3.962
 1039WAT     H2 3360   1.487   8.771   3.918
 1040WAT      O 3361   8.480   6.508   8.721
 1040WAT     H1 3362   8.432   6.441   8.777
 1040WAT     H2 3363   8.414   6.568   8.677
 1041WAT      O 3364   4.429   7.815   4.994
 1041WAT     H1 3365   4.394   7.723   4.974
 1041WAT     H2 3366   4.395   7.879   4.926
 1042WAT      O 3367   6.339   4.758   7.013
 1042WAT     H1 3368   6.427   4.766   7.060
 1042WAT     H2 3369   6.266   4.749   7.081
 1043WAT      O 3370   3.487   9.250   3.629
 1043WAT     H1 3371   3.565   9.187   3.627
 1043WAT     H2 3372   3.500   9.320   3.559
 1044WAT      O 3373   0.446   5.940   7.471
 1044WAT     H1 3374   0.473   5.947   7.567
 1044WAT     H2 3375   0.372   6.004   7.453
 1045WAT      O 3376   9.459   4.700   4.490
 1045WAT     H1 3377   9.535   4.744   4.442
 1045WAT     H2 3378   9.376   4.712   4.437
 1046WAT      O 3379   7.907   8.403   1.951
 1046WAT     H1 3380   7.838   8.352   2.002
 1046WAT     H2 3381   7.862   8.462   1.884
 1047WAT      O 3382   5.062   1.552   7.739
 1047WAT     H1 3383   4.994   1.540   7.666
 1047WAT     H2 3384   5.153   1.558   7.699
 1048WAT      O 3385   3.581   8.270   9.043
 1048WAT     H1 3386   3.519   8.204   8.998
 1048WAT     H2 3387   3.554   8.280   9.139
 1049WAT      O 3388   1.705   2.433   1.301
 1049WAT     H1 3389   1.665   2.490   1.372
 1049WAT     H2 3390   1.692   2.477   1.212
 1050WAT      O 3391   5.837   7.855   8.962
 1050WAT     H1 3392   5.762   7.794   8.987
 1050WAT     H2 3393   5.922   7.822   9.002
 1051WAT      O 3394   5.446   9.466   5.032
 1051WAT     H1 3395   5.469   9.528   4.957
 1051WAT     H2 3396   5.351   9.481   5.061
 1052WAT      O 3397   0.051   8.626   4.355
 1052WAT     H1 3398   0.138   8.653   4.315
 1052WAT     H2 3399   0.050   8.647   4.453
 1053WAT      O 3400   9.823   9.425   6.717
 1053WAT     H1 3401   9.806   9.487   6.794
 1053WAT     H2 3402   9.910   9.378   6.731
 1054WAT      O 3403   8.846   6.903   0.065
 1054WAT     H1 3404   8.768   6.899   0.127
 1054WAT     H2 3405   8.828   6.846  -0.015
 1055WAT      O 3406   0.254   7.216   5.938
 1055WAT     H1 3407   0.226   7.306   5.971
 1055WAT     H2 3408   0.193   7.146   5.975
 1056WAT      O 3409   8.380   5.792   3.091
 1056WAT     H1 3410   8.316   5.764   3.020
 1056WAT     H2 3411   8.400   5.890   3.081
 1057WAT      O 3412   8.162   6.019   7.837
 1057WAT     H1 3413   8.165   5.919   7.839
 1057WAT     H2 3414   8.105   6.049   7.761
 1058WAT      O 3415   8.263   5.406   2.564
 1058WAT     H1 3416   8.267   5.327   2.504
 1058WAT     H2 3417   8.288   5.489   2.513
 1059WAT      O 3418   2.392   8.948   9.829
 1059WAT     H1 3419   2.421   8.989   9.743
 1059WAT     H2 3420   2.292   8.951   9.835
 1060WAT      O 3421   4.305   9.025   6.683
 1060WAT     H1 3422   4.275   9.094   6.749
 1060WAT     H2 3423   4.229   8.966   6.659
 1061WAT      O 3424   6.140   2.989   6.302
 1061WAT     H1 3425   6.196   2.911   6.273
 1061WAT     H2 3426   6.049   2.981   6.262
 1062WAT      O 3427   5.468   9.512   7.004
 1062WAT     H1 3428   5.376   9.488   7.034
 1062WAT     H2 3429   5.522   9.542   7.083
 1063WAT      O 3430   7.062   1.357   4.741
 1063WAT     H1 3431   6.964   1.378   4.729
 1063WAT     H2 3432   7.078   1.261   4.717
 1064WAT      O 3433   2.348   4.343   4.460
 1064WAT     H1 3434   2.382   4.428   4.419
 1064WAT     H2 3435   2.375   4.339   4.556
 1065WAT      O 3436   5.761   6.576   8.981
 1065WAT     H1 3437   5.764   6.574   9.081
 1065WAT     H2 3438   5.826   6.510   8.943
 1066WAT      O 3439   1.798   3.954   3.278
 1066WAT     H1 3440   1.801   3.953   3.378
 1066WAT     H2 3441   1.809   3.860   3.244
 1067WAT      O 3442   2.581   3.371   7.801
 1067WAT     H1 3443   2.586   3.290   7.861
 1067WAT     H2 3444   2.616   3.451   7.850
 1068WAT      O 3445   1.480   5.477   0.080
 1068WAT     H1 3446   1.381   5.466   0.072
 1068WAT     H2 3447   1.500   5.533   0.161
 1069WAT      O 3448   8.199   5.682   9.675
 1069WAT     H1 3449   8.175   5.617   9.604
 1069WAT     H2 3450   8.122   5.693   9.738
 1070WAT      O 3451   2.644   6.954   3.107
 1070WAT     H1 3452   2.696   6.949   3.192
 1070WAT     H2 3453   2.595   7.041   3.103
 1071WAT      O 3454   4.986   8.531   2.117
 1071WAT     H1 3455   4.995   8.446   2.169
 1071WAT     H2 3456   5.072   8.551   2.070
 1072WAT      O 3457   7.010   1.504   5.715
 1072WAT     H1 3458   7.026   1.435   5.645
 1072WAT     H2 3459   6.996   1.460   5.804
 1073WAT      O 3460   0.614   8.174   3.831
 1073WAT     H1 3461   0.526   8.173   3.880
 1073WAT     H2 3462   0.689   8.173   3.897
 1074WAT      O 3463   1.289   3.160   3.527
 1074WAT     H1 3464   1.321   3.218   3.452
 1074WAT     H2 3465   1.226   3.091   3.492
 1075WAT      O 3466   0.886   9.126   4.887
 1075WAT     H1 3467   0.959   9.160   4.827
 1075WAT     H2 3468   0.828   9.063   4.836
 1076WAT      O 3469   6.005   8.692   2.698
 1076WAT     H1 3470   5.950   8.694   2.615
 1076WAT     H2 3471   5.956   8.643   2.770
 1077WAT      O 3472   4.668   4.088   8.342
 1077WAT     H1 3473   4.578   4.050   8.366
 1077WAT     H2 3474   4.668   4.114   8.245
 1078WAT      O 3475   3.881   2.434   4.378
 1078WAT     H1 3476   3.856   2.525   4.412
 1078WAT     H2 3477   3.964   2.440   4.323
 1079WAT      O 3478   3.883   2.427   3.779
 1079WAT     H1 3479   3.901   2.522   3.804
 1079WAT     H2 3480   3.855   2.375   3.860
 1080WAT      O 3481   4.359   0.756   0.809
 1080WAT     H1 3482   4.405   0.702   0.738
 1080WAT     H2 3483   4.313   0.695   0.873
 1081WAT      O 3484   8.157   0.098   7.054
 1081WAT     H1 3485   8.102   0.017   7.074
 1081WAT     H2 3486   8.249   0.069   7.027
 1082WAT      O 3487   5.266   6.797   1.504
 1082WAT     H1 3488   5.320   6.787   1.420
 1082WAT     H2 3489   5.321   6.771   1.582
 1083WAT      O 3490   1.995   4.083   9.233
 1083WAT     H1 3491   2.062   4.155   9.215
 1083WAT     H2 3492   2.028   4.024   9.307
 1084WAT      O 3493   5.085   0.509   3.453
 1084WAT     H1 3494   5.105   0.607   3.456
 1084WAT     H2 3495   5.153   0.463   3.397
 1085WAT      O 3496   6.228   5.624   9.458
 1085WAT     H1 3497   6.148   5.644   9.514
 1085WAT     H2 3498   6.286   5.558   9.505
 1086WAT      O 3499   4.340   6.172   7.314
 1086WAT     H1 3500   4.379   6.265   7.313
 1086WAT     H2 3501   4.261   6.170   7.376
 1087WAT      O 3502   9.749   2.302   1.241
 1087WAT     H1 3503   9.720   2.209   1.263
 1087WAT     H2 3504   9.810   2.300   1.162
 1088WAT      O 3505   8.042   4.497   3.561
 1088WAT     H1 3506   8.096   4.566   3.610
 1088WAT     H2 3507   8.093   4.465   3.481
 1089WAT      O 3508   8.424   9.462   6.211
 1089WAT     H1 3509   8.450   9.376   6.166
 1089WAT     H2 3510   8.325   9.476   6.200
 1090WAT      O 3511   7.426   7.280   1.428
 1090WAT     H1 3512   7.441   7.272   1.527
 1090WAT     H2 3513   7.377   7.200   1.394
 1091WAT      O 3514   3.259   8.769   8.835
 1091WAT     H1 3515   3.243   8.868   8.840
 1091WAT     H2 3516   3.182   8.721   8.877
 1092WAT      O 3517   0.462   6.055   8.490
 1092WAT     H1 3518   0.560   6.063   8.509
 1092WAT     H2 3519   0.443   6.090   8.399
 1093WAT      O 3520   9.110   3.287   4.728
 1093WAT     H1 3521   9.201   3.275   4.767
 1093WAT     H2 3522   9.118   3.315   4.632
 1094WAT      O 3523   9.154   2.015   9.606
 1094WAT     H1 3524   9.156   1.984   9.701
 1094WAT     H2 3525   9.061   2.004   9.570
 1095WAT      O 3526   0.791   3.273   0.996
 1095WAT     H1 3527   0.876   3.307   1.036
 1095WAT     H2 3528   0.756   3.198   1.052
 1096WAT      O 3529   6.644   0.719   0.248
 1096WAT     H1 3530   6.726   0.662   0.255
 1096WAT     H2 3531   6.604   0.730   0.339
 1097WAT      O 3532   9.755   1.090   3.863
 1097WAT     H1 3533   9.694   1.163   3.832
 1097WAT     H2 3534   9.720   1.051   3.948
 1098WAT      O 3535   2.305   8.190   0.455
 1098WAT     H1 3536   2.369   8.117   0.432
 1098WAT     H2 3537   2.213   8.152   0.462
 1099WAT      O 3538   7.938   9.329   6.731
 1099WAT     H1 3539   7.942   9.388   6.811
 1099WAT     H2 3540   7.972   9.379   6.651
 1100WAT      O 3541   9.417   8.704   4.035
 1100WAT     H1 3542   9.438   8.721   3.938
 1100WAT     H2 3543   9.391   8.608   4.046
 1101WAT      O 3544   7.040   7.908   0.230
 1101WAT     H1 3545   7.099   7.856   0.168
 1101WAT     H2 3546   6.946   7.908   0.195
 1102WAT      O 3547   0.480   0.431   1.024
 1102WAT     H1 3548   0.490   0.491   0.944
 1102WAT     H2 3549   0.569   0.398   1.052
 1103WAT      O 3550   4.163   2.230   5.540
 1103WAT     H1 3551   4.252   2.254   5.578
 1103WAT     H2 3552   4.133   2.142   5.576
 1104WAT      O 3553   4.545   9.563   3.652
 1104WAT     H1 3554   4.518   9.526   3.741
 1104WAT     H2 3555   4.478   9.535   3.582
 1105WAT      O 3556   3.158   0.103   9.054
 1105WAT     H1 3557   3.184   0.162   8.977
 1105WAT     H2 3558   3.164   0.007   9.026
 1106WAT      O 3559   5.959   3.425   9.300
 1106WAT     H1 3560   5.867   3.463   9.293
 1106WAT     H2 3561   5.990   3.398   9.209
 1107WAT      O 3562   7.247   7.448   5.629
 1107WAT     H1 3563   7.223   7.474   5.722
 1107WAT     H2 3564   7.339   7.482   5.608
 1108WAT      O 3565   0.496   6.779   9.838
 1108WAT     H1 3566   0.525   6.868   9.875
 1108WAT     H2 3567   0.401   6.762   9.862
 1109WAT      O 3568   4.848   8.292   6.661
 1109WAT     H1 3569   4.854   8.193   6.645
 1109WAT     H2 3570   4.757   8.324   6.635
 1110WAT      O 3571   9.055   8.371   3.642
 1110WAT     H1 3572   9.110   8.302   3.689
 1110WAT     H2 3573   9.072   8.460   3.683
 1111WAT      O 3574   6.281   5.414   5.083
 1111WAT     H1 3575   6.311   5.319   5.079
 1111WAT     H2 3576   6.196   5.419   5.137
 1112WAT      O 3577   2.283   9.797   4.740
 1112WAT     H1 3578   2.202   9.837   4.698
 1112WAT     H2 3579   2.310   9.852   4.820
 1113WAT      O 3580   2.600   9.788   4.280
 1113WAT     H1 3581   2.672   9.799   4.212
 1113WAT     H2 3582   2.539   9.868   4.278
 1114WAT      O 3583   5.630   7.755   0.779
 1114WAT     H1 3584   5.674   7.686   0.722
 1114WAT     H2 3585   5.683   7.766   0.864
 1115WAT      O 3586   9.363   2.442   7.453
 1115WAT     H1 3587   9.451   2.419   7.413
 1115WAT     H2 3588   9.338   2.372   7.520
 1116WAT      O 3589   2.170   2.777   7.139
 1116WAT     H1 3590   2.163   2.762   7.238
 1116WAT     H2 3591   2.100   2.723   7.092
 1117WAT      O 3592   5.603   5.670   9.039
 1117WAT     H1 3593   5.520   5.670   8.983
 1117WAT     H2 3594   5.583   5.630   9.128
 1118WAT      O 3595   6.464   1.055   7.542
 1118WAT     H1 3596   6.489   0.963   7.573
 1118WAT     H2 3597   6.479   1.120   7.616
 1119WAT      O 3598   4.413   5.369   1.050
 1119WAT     H1 3599   4.347   5.414   0.990
 1119WAT     H2 3600   4.484   5.325   0.995
 1120WAT      O 3601   7.099   5.026   1.452
 1120WAT     H1 3602   7.080   4.928   1.445
 1120WAT     H2 3603   7.131   5.048   1.544
 1121WAT      O 3604   1.910   6.698   5.778
 1121WAT     H1 3605   1.819   6.659   5.764
 1121WAT     H2 3606   1.979   6.635   5.744
 1122WAT      O 3607   9.520   1.437   1.704
 1122WAT     H1 3608   9.514   1.447   1.605
 1122WAT     H2 3609   9.571   1.514   1.742
 1123WAT      O 3610   0.537   9.128   5.904
 1123WAT     H1 3611   0.484   9.088   5.829
 1123WAT     H2 3612   0.485   9.204   5.944
 1124WAT      O 3613   3.021   9.058   6.078
 1124WAT     H1 3614   2.926   9.027   6.081
 1124WAT     H2 3615   3.049   9.069   5.982
 1125WAT      O 3616   8.992   1.632   4.432
 1125WAT     H1 3617   9.045   1.652   4.349
 1125WAT     H2 3618   8.938   1.549   4.418
 1126WAT      O 3619   4.197   4.749   4.771
 1126WAT     H1 3620   4.122   4.702   4.727
 1126WAT     H2 3621   4.284   4.706   4.745
 1127WAT      O 3622   4.072   1.588   1.136
 1127WAT     H1 3623   4.101   1.516   1.199
 1127WAT     H2 3624   4.084   1.677   1.179
 1128WAT      O 3625   2.422   6.826   5.754
 1128WAT     H1 3626   2.395   6.764   5.827
 1128WAT     H2 3627   2.502   6.880   5.784
 1129WAT      O 3628   5.525   9.277   5.227
 1129WAT     H1 3629   5.509   9.344   5.154
 1129WAT     H2 3630   5.437   9.247   5.264
 1130WAT      O 3631   4.978   9.203   2.723
 1130WAT     H1 3632   4.889   9.228   2.684
 1130WAT     H2 3633   4.967   9.125   2.785
 1131WAT      O 3634   8.699   1.801   3.143
 1131WAT     H1 3635   8.743   1.711   3.143
 1131WAT     H2 3636   8.601   1.789   3.130
 1132WAT      O 3637   7.250   0.298   4.055
 1132WAT     H1 3638   7.172   0.288   3.993
 1132WAT     H2 3639   7.333   0.264   4.010
 1133WAT      O 3640   4.062   1.198   3.755
 1133WAT     H1 3641   4.088   1.200   3.659
 1133WAT     H2 3642   4.075   1.289   3.795
 1134WAT      O 3643   2.394   6.307   8.748
 1134WAT     H1 3644   2.343   6.363   8.683
 1134WAT     H2 3645   2.351   6.314   8.839
 1135WAT      O 3646   5.644   8.167   2.314
 1135WAT     H1 3647   5.558   8.147   2.362
 1135WAT     H2 3648   5.690   8.082   2.292
 1136WAT      O 3649   1.909   5.440   0.276
 1136WAT     H1 3650   1.976   5.374   0.309
 1136WAT     H2 3651   1.955   5.512   0.224
 1137WAT      O 3652   3.269   5.236   8.843
 1137WAT     H1 3653   3.343   5.239   8.775
 1137WAT     H2 3654   3.254   5.141   8.871
 1138WAT      O 3655   1.081   7.185   1.728
 1138WAT     H1 3656   1.043   7.110   1.783
 1138WAT     H2 3657   1.085   7.268   1.784
 1139WAT      O 3658   7.388   5.587   4.696
 1139WAT     H1 3659   7.368   5.570   4.599
 1139WAT     H2 3660   7.487   5.586   4.710
 1140WAT      O 3661   5.862   3.992   5.279
 1140WAT     H1 3662   5.883   4.088   5.301
 1140WAT     H2 3663   5.765   3.984   5.255
 1141WAT      O 3664   9.377   6.854   4.201
 1141WAT     H1 3665   9.421   6.765   4.216
 1141WAT     H2 3666   9.438   6.927   4.230
 1142WAT      O 3667   9.576   1.359   8.330
 1142WAT     H1 3668   9.653   1.359   8.267
 1142WAT     H2 3669   9.605   1.391   8.420
 1143WAT      O 3670   8.710   1.374   8.229
 1143WAT     H1 3671   8.703   1.445   8.158
 1143WAT     H2 3672   8.633   1.384   8.292
 1144WAT      O 3673   9.552   4.068   0.426
 1144WAT     H1 3674   9.652   4.073   0.430
 1144WAT     H2 3675   9.525   4.025   0.340
 1145WAT      O 3676   5.169   3.501   5.015
 1145WAT     H1 3677   5.233   3.578   5.017
 1145WAT     H2 3678   5.216   3.419   4.981
 1146WAT      O 3679   5.570   9.809   8.741
 1146WAT     H1 3680   5.523   9.851   8.818
 1146WAT     H2 3681   5.503   9.764   8.681
 1147WAT      O 3682   1.470   0.708   4.848
 1147WAT     H1 3683   1.512   0.625   4.885
 1147WAT     H2 3684   1.489   0.715   4.750
 1148WAT      O 3685   1.541   5.032   0.432
 1148WAT     H1 3686   1.494   5.050   0.519
 1148WAT     H2 3687   1.489   4.964   0.380
 1149WAT      O 3688   3.171   4.157   0.681
 1149WAT     H1 3689   3.204   4.107   0.600
 1149WAT     H2 3690   3.071   4.159   0.680
 1150WAT      O 3691   5.377   2.990   8.184
 1150WAT     H1 3692   5.445   3.040   8.237
 1150WAT     H2 3693   5.421   2.947   8.105
 1151WAT      O 3694   3.537   7.775   2.351
 1151WAT     H1 3695   3.499   7.764   2.260
 1151WAT     H2 3696   3.475   7.832   2.406
 1152WAT      O 3697   5.192   7.063   2.201
 1152WAT     H1 3698   5.194   7.010   2.117
 1152WAT     H2 3699   5.267   7.128   2.201
 1153WAT      O 3700   4.596   5.107   1.358
 1153WAT     H1 3701   4.579   5.099   1.260
 1153WAT     H2 3702   4.520   5.156   1.401
 1154WAT      O 3703   6.457   0.733   8.463
 1154WAT     H1 3704   6.544   0.779   8.479
 1154WAT     H2 3705   6.473   0.635   8.448
 1155WAT      O 3706   6.466   7.907   7.176
 1155WAT     H1 3707   6.370   7.900   7.146
 1155WAT     H2 3708   6.520   7.836   7.130
 1156WAT      O 3709   8.563   5.474   9.643
 1156WAT     H1 3710   8.498   5.450   9.716
 1156WAT     H2 3711   8.584   5.571   9.648
 1157WAT      O 3712   1.805   4.608   3.282
 1157WAT     H1 3713   1.716   4.607   3.328
 1157WAT     H2 3714   1.875   4.642   3.345
 1158WAT      O 3715   7.248   8.950   7.456
 1158WAT     H1 3716   7.158   8.948   7.413
 1158WAT     H2 3717   7.318   8.933   7.387
 1159WAT      O 3718   3.651   4.822   5.165
 1159WAT     H1 3719   3.621   4.744   5.111
 1159WAT     H2 3720   3.746   4.843   5.143
 1160WAT      O 3721   4.493   0.306   9.489
 1160WAT     H1 3722   4.553   0.371   9.442
 1160WAT     H2 3723   4.398   0.329   9.469
 1161WAT      O 3724   5.840   5.021   7.462
 1161WAT     H1 3725   5.748   5.060   7.460
 1161WAT     H2 3726   5.892   5.063   7.537
 1162WAT      O 3727   9.351   4.782   9.203
 1162WAT     H1 3728   9.379   4.826   9.289
 1162WAT     H2 3729   9.267   4.730   9.218
 1163WAT      O 3730   4.085   3.320   6.796
 1163WAT     H1 3731   4.091   3.357   6.704
 1163WAT     H2 3732   4.149   3.244   6.806
 1164WAT      O 3733   5.404   2.321   0.685
 1164WAT     H1 3734   5.478   2.260   0.714
 1164WAT     H2 3735   5.350   2.276   0.614
 1165WAT      O 3736   7.980   2.886   6.078
 1165WAT     H1 3737   7.991   2.795   6.037
 1165WAT     H2 3738   8.054   2.945   6.046
 1166WAT      O 3739   8.182   8.581   0.802
 1166WAT     H1 3740   8.123   8.501   0.785
 1166WAT     H2 3741   8.197   8.631   0.717
 1167WAT      O 3742   3.513   8.694   6.184
 1167WAT     H1 3743   3.449   8.650   6.247
 1167WAT     H2 3744   3.604   8.653   6.194
 1168WAT      O 3745   4.439   4.637   4.715
 1168WAT     H1 3746   4.505   4.682   4.655
 1168WAT     H2 3747   4.472   4.640   4.809
 1169WAT      O 3748   3.740   5.078   8.056
 1169WAT     H1 3749   3.724   5.160   8.002
 1169WAT     H2 3750   3.834   5.046   8.043
 1170WAT      O 3751   5.378   3.691   9.341
 1170WAT     H1 3752   5.384   3.750   9.421
 1170WAT     H2 3753   5.315   3.730   9.275
 1171WAT      O 3754   8.374   4.569   8.228
 1171WAT     H1 3755   8.292   4.539   8.275
 1171WAT     H2 3756   8.453   4.517   8.262
 1172WAT      O 3757   3.575   5.782   0.259
 1172WAT     H1 3758   3.658   5.826   0.294
 1172WAT     H2 3759   3.595   5.738   0.171
 1173WAT      O 3760   7.709   7.983   1.698
 1173WAT     H1 3761   7.627   7.968   1.643
 1173WAT     H2 3762   7.790   7.959   1.644
 1174WAT      O 3763   1.686   9.737   5.913
 1174WAT     H1 3764   1.750   9.774   5.980
 1174WAT     H2 3765   1.624   9.810   5.882
 1175WAT      O 3766   3.509   8.348   5.817
 1175WAT     H1 3767   3.479   8.299   5.735
 1175WAT     H2 3768   3.433   8.404   5.852
 1176WAT      O 3769   7.104   8.964   8.091
 1176WAT     H1 3770   7.167   8.902   8.138
 1176WAT     H2 3771   7.139   9.058   8.097
 1177WAT      O 3772   7.290   9.155   7.621
 1177WAT     H1 3773   7.305   9.233   7.560
 1177WAT     H2 3774   7.281   9.071   7.567
 1178WAT      O 3775   6.895   9.318   3.652
 1178WAT     H1 3776   6.947   9.401   3.633
 1178WAT     H2 3777   6.951   9.238   3.632
 1179WAT      O 3778   8.627   6.450   1.154
 1179WAT     H1 3779   8.666   6.538   1.183
 1179WAT     H2 3780   8.691   6.405   1.091
 1180WAT      O 3781   1.144   9.777   9.218
 1180WAT     H1 3782   1.209   9.701   9.220
 1180WAT     H2 3783   1.147   9.820   9.128
 1181WAT      O 3784   7.041   0.622   5.225
 1181WAT     H1 3785   7.052   0.684   5.147
 1181WAT     H2 3786   7.128   0.616   5.275
 1182WAT      O 3787   3.426   8.569   5.058
 1182WAT     H1 3788   3.390   8.658   5.087
 1182WAT     H2 3789   3.525   8.576   5.046
 1183WAT      O 3790   5.354   7.459   1.168
 1183WAT     H1 3791   5.349   7.480   1.265
 1183WAT     H2 3792   5.322   7.538   1.115
 1184WAT      O 3793   4.169   6.064   9.193
 1184WAT     H1 3794   4.140   5.974   9.158
 1184WAT     H2 3795   4.263   6.057   9.226
 1185WAT      O 3796   2.936   1.364   4.392
 1185WAT     H1 3797   3.005   1.430   4.363
 1185WAT     H2 3798   2.846   1.405   4.387
 1186WAT      O 3799   3.370   6.253   1.990
 1186WAT     H1 3800   3.438   6.199   1.941
 1186WAT     H2 3801   3.298   6.192   2.025
 1187WAT      O 3802   7.703   4.997   0.897
 1187WAT     H1 3803   7.705   5.082   0.845
 1187WAT     H2 3804   7.789   4.987   0.947
 1188WAT      O 3805   8.320   4.687   6.827
 1188WAT     H1 3806   8.264   4.604   6.824
 1188WAT     H2 3807   8.308   4.732   6.915
 1189WAT      O 3808   6.818   6.664   0.888
 1189WAT     H1 3809   6.751   6.738   0.881
 1189WAT     H2 3810   6.771   6.577   0.901
 1190WAT      O 3811   1.090   4.549   3.391
 1190WAT     H1 3812   1.039   4.621   3.345
 1190WAT     H2 3813   1.063   4.460   3.355
 1191WAT      O 3814   1.022   5.008   6.193
 1191WAT     H1 3815   1.008   5.055   6.106
 1191WAT     H2 3816   1.072   5.068   6.256
 1192WAT      O 3817   1.976   7.920   9.427
 1192WAT     H1 3818   1.946   8.007   9.389
 1192WAT     H2 3819   1.940   7.910   9.520
 1193WAT      O 3820   2.495   7.736   5.426
 1193WAT     H1 3821   2.418   7.800   5.435
 1193WAT     H2 3822   2.579   7.781   5.454
 1194WAT      O 3823   1.586   5.521   3.754
 1194WAT     H1 3824   1.599   5.507   3.852
 1194WAT     H2 3825   1.675   5.517   3.708
 1195WAT      O 3826   5.509   0.766   5.494
 1195WAT     H1 3827   5.590   0.721   5.457
 1195WAT     H2 3828   5.443   0.782   5.421
 1196WAT      O 3829   7.047   0.322   0.074
 1196WAT     H1 3830   7.119   0.297   0.139
 1196WAT     H2 3831   6.994   0.241   0.050
 1197WAT      O 3832   1.760   4.939   5.054
 1197WAT     H1 3833   1.844   4.957   5.003
 1197WAT     H2 3834   1.765   4.983   5.143
 1198WAT      O 3835   0.252   7.778   8.867
 1198WAT     H1 3836   0.229   7.756   8.961
 1198WAT     H2 3837   0.170   7.776   8.810
 1199WAT      O 3838   7.580   7.157   4.555
 1199WAT     H1 3839   7.490   7.176   4.595
 1199WAT     H2 3840   7.600   7.225   4.485
 1200WAT      O 3841   9.806   0.311   2.835
 1200WAT     H1 3842   9.722   0.348   2.794
 1200WAT     H2 3843   9.866   0.278   2.763
 1201WAT      O 3844   9.526   2.099   3.439
 1201WAT     H1 3845   9.526   2.024   3.373
 1201WAT     H2 3846   9.549   2.064   3.530
 1202WAT      O 3847   2.642   0.621   6.860
 1202WAT     H1 3848   2.681   0.620   6.768
 1202WAT     H2 3849   2.558   0.568   6.861
 1203WAT      O 3850   7.718   2.787   6.519
 1203WAT     H1 3851   7.746   2.709   6.464
 1203WAT     H2 3852   7.796   2.819   6.573
 1204WAT      O 3853   5.343   6.038   6.996
 1204WAT     H1 3854   5.278   6.009   6.927
 1204WAT     H2 3855   5.414   6.095   6.954
 1205WAT      O 3856   8.167   6.258   2.848
 1205WAT     H1 3857   8.100   6.188   2.871
 1205WAT     H2 3858   8.252   6.214   2.819
 1206WAT      O 3859   8.662   9.508   5.787
 1206WAT     H1 3860   8.569   9.545   5.788
 1206WAT     H2 3861   8.659   9.411   5.766
 1207WAT      O 3862   4.408   0.922   4.180
 1207WAT     H1 3863   4.333   0.962   4.234
 1207WAT     H2 3864   4.378   0.912   4.085
 1208WAT      O 3865   7.885   4.513   1.045
 1208WAT     H1 3866   7.958   4.538   0.980
 1208WAT     H2 3867   7.924   4.456   1.118
 1209WAT      O 3868   7.975   2.806   4.076
 1209WAT     H1 3869   7.984   2.837   3.982
 1209WAT     H2 3870   8.063   2.771   4.109
 1210WAT      O 3871   6.470   7.322   5.955
 1210WAT     H1 3872   6.532   7.377   5.899
 1210WAT     H2 3873   6.404   7.382   6.000
 1211WAT      O 3874   8.287   4.019   1.217
 1211WAT     H1 3875   8.329   4.106   1.244
 1211WAT     H2 3876   8.343   3.976   1.146
 1212WAT      O 3877   0.560   0.804   3.247
 1212WAT     H1 3878   0.492   0.735   3.273
 1212WAT     H2 3879   0.524   0.895   3.265
 1213WAT      O 3880   9.519   9.596   2.257
 1213WAT     H1 3881   9.605   9.577   2.210
 1213WAT     H2 3882   9.538   9.615   2.354
 1214WAT      O 3883   1.707   3.578   9.007
 1214WAT     H1 3884   1.662   3.561   9.094
 1214WAT     H2 3885   1.764   3.660   9.013
 1215WAT      O 3886   6.930   8.309   5.842
 1215WAT     H1 3887   6.984   8.229   5.813
 1215WAT     H2 3888   6.838   8.302   5.804
 1216WAT      O 3889   4.604   9.701   3.931
 1216WAT     H1 3890   4.540   9.629   3.902
 1216WAT     H2 3891   4.582   9.786   3.882
 1217WAT      O 3892   1.258   9.016   4.678
 1217WAT     H1 3893   1.276   8.962   4.597
 1217WAT     H2 3894   1.319   8.987   4.752
 1218WAT      O 3895   1.634   4.769   2.841
 1218WAT     H1 3896   1.727   4.739   2.824
 1218WAT     H2 3897   1.625   4.800   2.936
 1219WAT      O 3898   1.277   7.570   3.030
 1219WAT     H1 3899   1.215   7.645   3.007
 1219WAT     H2 3900   1.268   7.548   3.127
 1220WAT      O 3901   8.978   2.385   0.877
 1220WAT     H1 3902   8.960   2.483   0.868
 1220WAT     H2 3903   8.956   2.355   0.969
 1221WAT      O 3904   0.874   1.217   7.659
 1221WAT     H1 3905   0.842   1.187   7.749
 1221WAT     H2 3906   0.799   1.212   7.594
 1222WAT      O 3907   1.305   7.033   9.483
 1222WAT     H1 3908   1.290   6.985   9.569
 1222WAT     H2 3909   1.307   6.967   9.407
 1223WAT      O 3910   1.662   5.877   6.518
 1223WAT     H1 3911   1.650   5.869   6.616
 1223WAT     H2 3912   1.594   5.821   6.471
 1224WAT      O 3913   0.819   1.588   8.817
 1224WAT     H1 3914   0.806   1.687   8.823
 1224WAT     H2 3915   0.735   1.541   8.844
 1225WAT      O 3916   8.416   2.615   2.439
 1225WAT     H1 3917   8.328   2.662   2.442
 1225WAT     H2 3918   8.461   2.624   2.528
 1226WAT      O 3919   5.426   2.256   3.958
 1226WAT     H1 3920   5.459   2.244   3.864
 1226WAT     H2 3921   5.393   2.169   3.994
 1227WAT      O 3922   2.297   0.799   8.543
 1227WAT     H1 3923   2.238   0.725   8.577
 1227WAT     H2 3924   2.240   0.874   8.510
 1228WAT      O 3925   4.507   1.972   2.375
 1228WAT     H1 3926   4.514   2.061   2.419
 1228WAT     H2 3927   4.565   1.906   2.423
 1229WAT      O 3928   9.757   5.902   8.688
 1229WAT     H1 3929   9.827   5.870   8.624
 1229WAT     H2 3930   9.780   5.870   8.780
 1230WAT      O 3931   7.476   2.717   3.681
 1230WAT     H1 3932   7.403   2.761   3.732
 1230WAT     H2 3933   7.440   2.636   3.634
 1231WAT      O 3934   3.004   1.680   4.173
 1231WAT     H1 3935   3.073   1.748   4.198
 1231WAT     H2 3936   2.913   1.722   4.175
 1232WAT      O 3937   6.505   4.147   7.839
 1232WAT     H1 3938   6.450   4.116   7.761
 1232WAT     H2 3939   6.476   4.101   7.922
 1233WAT      O 3940   3.704   5.906   9.293
 1233WAT     H1 3941   3.735   5.811   9.285
 1233WAT     H2 3942   3.604   5.908   9.286
 1234WAT      O 3943   1.860   3.497   3.376
 1234WAT     H1 3944   1.892   3.426   3.314
 1234WAT     H2 3945   1.792   3.459   3.439
 1235WAT      O 3946   4.700   6.163   6.519
 1235WAT     H1 3947   4.697   6.087   6.585
 1235WAT     H2 3948   4.736   6.244   6.565
 1236WAT      O 3949   4.356   4.357   1.878
 1236WAT     H1 3950   4.416   4.427   1.839
 1236WAT     H2 3951   4.399   4.267   1.871
 1237WAT      O 3952   7.284   7.877   0.083
 1237WAT     H1 3953   7.259   7.959   0.032
 1237WAT     H2 3954   7.308   7.902   0.177
 1238WAT      O 3955   0.917   4.672   5.095
 1238WAT     H1 3956   0.992   4.733   5.067
 1238WAT     H2 3957   0.939   4.578   5.067
 1239WAT      O 3958   1.512   8.768   6.223
 1239WAT     H1 3959   1.601   8.802   6.195
 1239WAT     H2 3960   1.514   8.668   6.228
 1240WAT      O 3961   2.631   5.760   6.989
 1240WAT     H1 3962   2.569   5.838   7.002
 1240WAT     H2 3963   2.627   5.701   7.070
 1241WAT      O 3964   2.943   7.258   0.122
 1241WAT     H1 3965   2.949   7.165   0.160
 1241WAT     H2 3966   2.861   7.266   0.066
 1242WAT      O 3967   4.119   7.321   1.576
 1242WAT     H1 3968   4.178   7.241   1.562
 1242WAT     H2 3969   4.025   7.291   1.595
 1243WAT      O 3970   9.558   4.667   9.033
 1243WAT     H1 3971   9.582   4.731   8.960
 1243WAT     H2 3972   9.558   4.715   9.121
 1244WAT      O 3973   5.274   2.529   7.871
 1244WAT     H1 3974   5.275   2.562   7.965
 1244WAT     H2 3975   5.179   2.519   7.841
 1245WAT      O 3976   6.529   8.155   7.062
 1245WAT     H1 3977   6.530   8.067   7.110
 1245WAT     H2 3978   6.435   8.179   7.039
 1246WAT      O 3979   0.818   1.348   9.091
 1246WAT     H1 3980   0.810   1.339   9.190
 1246WAT     H2 3981   0.912   1.371   9.067
 1247WAT      O 3982   1.249   2.900   8.113
 1247WAT     H1 3983   1.198   2.985   8.109
 1247WAT     H2 3984   1.215   2.843   8.188
 1248WAT      O 3985   9.882   4.103   6.508
 1248WAT     H1 3986   9.936   4.181   6.538
 1248WAT     H2 3987   9.899   4.085   6.411
 1249WAT      O 3988   6.488   9.670   6.792
 1249WAT     H1 3989   6.407   9.633   6.836
 1249WAT     H2 3990   6.482   9.770   6.789
 1250WAT      O 3991   6.754   3.623   5.933
 1250WAT     H1 3992   6.763   3.527   5.959
 1250WAT     H2 3993   6.738   3.679   6.014
 1251WAT      O 3994   7.488   8.575   7.638
 1251WAT     H1 3995   7.507   8.544   7.544
 1251WAT     H2 3996   7.551   8.649   7.661
 1252WAT      O 3997   2.638   0.121   5.698
 1252WAT     H1 3998   2.595   0.035   5.723
 1252WAT     H2 3999   2.730   0.103   5.663
 1253WAT      O 4000   6.586   1.478   8.185
 1253WAT     H1 4001   6.498   1.525   8.193
 1253WAT     H2 4002   6.591   1.406   8.253
 1254WAT      O 4003   4.357   8.620   1.765
 1254WAT     H1 4004   4.283   8.587   1.707
 1254WAT     H2 4005   4.434   8.555   1.762
 1255WAT      O 4006   6.282   8.941   1.608
 1255WAT     H1 4007   6.358   8.937   1.672
 1255WAT     H2 4008   6.203   8.984   1.652
 1256WAT      O 4009   3.344   8.424   1.829
 1256WAT     H1 4010   3.438   8.404   1.799
 1256WAT     H2 4011   3.315   8.355   1.895
 1257WAT      O 4012   9.248   3.031   2.954
 1257WAT     H1 4013   9.333   2.979   2.958
 1257WAT     H2 4014   9.221   3.043   2.859
 1258WAT      O 4015   5.864   3.124   7.736
 1258WAT     H1 4016   5.907   3.172   7.660
 1258WAT     H2 4017   5.827   3.037   7.703
 1259WAT      O 4018   7.268   9.176   8.049
 1259WAT     H1 4019   7.331   9.099   8.046
 1259WAT     H2 4020   7.241   9.201   7.956
 1260WAT      O 4021   9.463   5.658   0.524
 1260WAT     H1 4022   9.443   5.709   0.441
 1260WAT     H2 4023   9.506   5.718   0.591
 1261WAT      O 4024   1.920   8.722   8.470
 1261WAT     H1 4025   1.996   8.746   8.529
 1261WAT     H2 4026   1.838   8.771   8.500
 1262WAT      O 4027   0.914   4.005   5.453
 1262WAT     H1 4028   1.011   4.026   5.460
 1262WAT     H2 4029   0.860   4.086   5.472
 1263WAT      O 4030   4.443   1.817   4.518
 1263WAT     H1 4031   4.348   1.833   4.490
 1263WAT     H2 4032   4.447   1.808   4.617
 1264WAT      O 4033   9.556   7.808   4.281
 1264WAT     H1 4034   9.457   7.813   4.268
 1264WAT     H2 4035   9.598   7.893   4.251
 1265WAT      O 4036   3.511   5.295   7.661
 1265WAT     H1 4037   3.591   5.285   7.601
 1265WAT     H2 4038   3.459   5.209   7.661
 1266WAT      O 4039   2.449   1.096   0.070
 1266WAT     H1 4040   2.514   1.062   0.002
 1266WAT     H2 4041   2.473   1.189   0.095
 1267WAT      O 4042   6.689   8.181   1.866
 1267WAT     H1 4043   6.703   8.213   1.960
 1267WAT     H2 4044   6.714   8.084   1.860
 1268WAT      O 4045   3.618   9.207   5.052
 1268WAT     H1 4046   3.643   9.211   4.955
 1268WAT     H2 4047   3.689   9.159   5.103
 1269WAT      O 4048   5.616   3.873   6.587
 1269WAT     H1 4049   5.644   3.926   6.668
 1269WAT     H2 4050   5.607   3.777   6.612
 1270WAT      O 4051   1.330   4.605   3.500
 1270WAT     H1 4052   1.239   4.575   3.473
 1270WAT     H2 4053   1.333   4.619   3.599
 1271WAT      O 4054   1.177   8.960   6.844
 1271WAT     H1 4055   1.195   8.930   6.750
 1271WAT     H2 4056   1.112   9.036   6.842
 1272WAT      O 4057   4.093   2.812   6.759
 1272WAT     H1 4058   4.094   2.842   6.664
 1272WAT     H2 4059   4.187   2.799   6.791
 1273WAT      O 4060   1.736   8.363   5.894
 1273WAT     H1 4061   1.827   8.400   5.916
 1273WAT     H2 4062   1.679   8.435   5.855
 1274WAT      O 4063   2.904   6.245   8.085
 1274WAT     H1 4064   2.868   6.302   8.159
 1274WAT     H2 4065   2.835   6.238   8.012
 1275WAT      O 4066   6.152   1.273   6.140
 1275WAT     H1 4067   6.151   1.182   6.100
 1275WAT     H2 4068   6.234   1.322   6.110
 1276WAT      O 4069   6.742   4.909   3.735
 1276WAT     H1 4070   6.781   4.875   3.649
 1276WAT     H2 4071   6.778   5.001   3.754
 1277WAT      O 4072   5.581   2.296   2.581
 1277WAT     H1 4073   5.544   2.203   2.586
 1277WAT     H2 4074   5.640   2.312   2.660
 1278WAT      O 4075   9.002   6.456   1.901
 1278WAT     H1 4076   8.956   6.539   1.868
 1278WAT     H2 4077   9.083   6.482   1.953
 1279WAT      O 4078   7.656   2.735   0.162
 1279WAT     H1 4079   7.746   2.730   0.205
 1279WAT     H2 4080   7.588   2.765   0.230
 1280WAT      O 4081   3.984   1.344   4.479
 1280WAT     H1 4082   4.007   1.438   4.452
 1280WAT     H2 4083   3.993   1.335   4.578
 1281WAT      O 4084   3.144   8.125   0.756
 1281WAT     H1 4085   3.092   8.170   0.828
 1281WAT     H2 4086   3.235   8.166   0.750
 1282WAT      O 4087   0.725   9.144   3.372
 1282WAT     H1 4088   0.646   9.098   3.332
 1282WAT     H2 4089   0.694   9.213   3.437
 1283WAT      O 4090   4.830   8.673   8.489
 1283WAT     H1 4091   4.907   8.659   8.426
 1283WAT     H2 4092   4.800   8.585   8.525
 1284WAT      O 4093   5.572   1.386   2.671
 1284WAT     H1 4094   5.626   1.342   2.599
 1284WAT     H2 4095   5.567   1.325   2.751
 1285WAT      O 4096   5.280   6.704   6.430
 1285WAT     H1 4097   5.231   6.776   6.480
 1285WAT     H2 4098   5.270   6.719   6.332
 1286WAT      O 4099   0.469   8.965   0.447
 1286WAT     H1 4100   0.547   8.904   0.465
 1286WAT     H2 4101   0.494   9.059   0.472
 1287WAT      O 4102   3.965   5.307   6.817
 1287WAT     H1 4103   4.018   5.253   6.751
 1287WAT     H2 4104   3.992   5.282   6.910
 1288WAT      O 4105   4.607   8.926   9.737
 1288WAT     H1 4106   4.513   8.906   9.711
 1288WAT     H2 4107   4.613   8.939   9.836
 1289WAT      O 4108   7.921   3.747   8.788
 1289WAT     H1 4109   7.942   3.782   8.880
 1289WAT     H2 4110   7.823   3.754   8.771
 1290WAT      O 4111   2.158   5.222   6.481
 1290WAT     H1 4112   2.150   5.131   6.439
 1290WAT     H2 4113   2.119   5.219   6.574
 1291WAT      O 4114   6.698   8.505   1.160
 1291WAT     H1 4115   6.673   8.597   1.131
 1291WAT     H2 4116   6.790   8.506   1.198
 1292WAT      O 4117   3.137   6.962   9.829
 1292WAT     H1 4118   3.195   7.016   9.890
 1292WAT     H2 4119   3.061   7.019   9.796
 1293WAT      O 4120   9.025   8.852   6.010
 1293WAT     H1 4121   9.072   8.833   5.924
 1293WAT     H2 4122   8.989   8.766   6.048
 1294WAT      O 4123   6.651   3.342   3.769
 1294WAT     H1 4124   6.721   3.358   3.699
 1294WAT     H2 4125   6.593   3.422   3.777
 1295WAT      O 4126   9.739   2.973   9.308
 1295WAT     H1 4127   9.667   2.927   9.359
 1295WAT     H2 4128   9.826   2.925   9.321
 1296WAT      O 4129   5.928   8.205   0.621
 1296WAT     H1 4130   6.014   8.153   0.630
 1296WAT     H2 4131   5.897   8.233   0.712
 1297WAT      O 4132   2.181   8.642   8.160
 1297WAT     H1 4133   2.215   8.578   8.091
 1297WAT     H2 4134   2.252   8.657   8.229
 1298WAT      O 4135   9.587   3.960   4.938
 1298WAT     H1 4136   9.509   3.939   4.997
 1298WAT     H2 4137   9.659   3.893   4.952
 1299WAT      O 4138   0.840   8.851   6.976
 1299WAT     H1 4139   0.885   8.938   7.000
 1299WAT     H2 4140   0.838   8.843   6.876
 1300WAT      O 4141   5.393   7.061   6.366
 1300WAT     H1 4142   5.427   7.014   6.448
 1300WAT     H2 4143   5.304   7.024   6.340
 1301WAT      O 4144   4.699   0.381   4.812
 1301WAT     H1 4145   4.731   0.391   4.906
 1301WAT     H2 4146   4.642   0.459   4.787
 1302WAT      O 4147   1.316   3.639   1.009
 1302WAT     H1 4148   1.414   3.619   1.012
 1302WAT     H2 4149   1.275   3.619   1.098
 1303WAT      O 4150   0.791   9.218   5.799
 1303WAT     H1 4151   0.699   9.195   5.832
 1303WAT     H2 4152   0.803   9.180   5.707
 1304WAT      O 4153   1.377   5.103   0.640
 1304WAT     H1 4154   1.288   5.060   0.626
 1304WAT     H2 4155   1.368   5.203   0.636
 1305WAT      O 4156   5.565   7.595   7.897
 1305WAT     H1 4157   5.500   7.665   7.868
 1305WAT     H2 4158   5.518   7.529   7.957
 1306WAT      O 4159   5.368   4.259   9.298
 1306WAT     H1 4160   5.379   4.167   9.258
 1306WAT     H2 4161   5.403   4.327   9.233
 1307WAT      O 4162   7.025   2.522   0.911
 1307WAT     H1 4163   7.085   2.594   0.877
 1307WAT     H2 4164   6.937   2.526   0.863
 1308WAT      O 4165   6.727   3.416   7.401
 1308WAT     H1 4166   6.695   3.511   7.390
 1308WAT     H2 4167   6.674   3.373   7.475
 1309WAT      O 4168   2.955   1.021   8.015
 1309WAT     H1 4169   2.898   0.941   8.034
 1309WAT     H2 4170   2.902   1.104   8.033
 1310WAT      O 4171   2.913   8.939   6.922
 1310WAT     H1 4172   2.881   8.888   7.002
 1310WAT     H2 4173   2.884   9.034   6.929
 1311WAT      O 4174   1.303   7.944   0.119
 1311WAT     H1 4175   1.343   7.972   0.032
 1311WAT     H2 4176   1.225   8.003   0.140
 1312WAT      O 4177   9.836   3.191   2.014
 1312WAT     H1 4178   9.781   3.159   1.937
 1312WAT     H2 4179   9.784   3.180   2.099
 1313WAT      O 4180   2.201   6.853   9.168
 1313WAT     H1 4181   2.130   6.877   9.234
 1313WAT     H2 4182   2.190   6.909   9.085
 1314WAT      O 4183   0.909   2.730   4.582
 1314WAT     H1 4184   0.917   2.636   4.615
 1314WAT     H2 4185   0.818   2.765   4.603
 1315WAT      O 4186   1.290   8.115   9.361
 1315WAT     H1 4187   1.209   8.056   9.358
 1315WAT     H2 4188   1.369   8.062   9.390
 1316WAT      O 4189   3.877   5.608   0.272
 1316WAT     H1 4190   3.796   5.572   0.319
 1316WAT     H2 4191   3.905   5.694   0.314
 1317WAT      O 4192   4.882   8.382   1.712
 1317WAT     H1 4193   4.846   8.292   1.737
 1317WAT     H2 4194   4.873   8.444   1.790
 1318WAT      O 4195   6.594   5.283   1.635
 1318WAT     H1 4196   6.661   5.357   1.647
 1318WAT     H2 4197   6.639   5.195   1.645
 1319WAT      O 4198   4.373   9.112   7.214
 1319WAT     H1 4199   4.410   9.024   7.242
 1319WAT     H2 4200   4.449   9.175   7.194
 1320WAT      O 4201   9.022   1.259   3.071
 1320WAT     H1 4202   8.984   1.190   3.133
 1320WAT     H2 4203   9.018   1.226   2.977
 1321WAT      O 4204   4.525   0.195   1.811
 1321WAT     H1 4205   4.583   0.189   1.729
 1321WAT     H2 4206   4.429   0.187   1.783
 1322WAT      O 4207   4.887   8.162   1.281
 1322WAT     H1 4208   4.835   8.243   1.308
 1322WAT     H2 4209   4.834   8.080   1.301
 1323WAT      O 4210   1.176   6.861   4.763
 1323WAT     H1 4211   1.118   6.939   4.789
 1323WAT     H2 4212   1.231   6.834   4.842
 1324WAT      O 4213   0.898   5.888   1.890
 1324WAT     H1 4214   0.976   5.827   1.909
 1324WAT     H2 4215   0.913   5.976   1.936
 1325WAT      O 4216   1.278   4.542   9.041
 1325WAT     H1 4217   1.366   4.494   9.039
 1325WAT     H2 4218   1.276   4.609   8.967
 1326WAT      O 4219   3.557   1.094   5.694
 1326WAT     H1 4220   3.619   1.064   5.622
 1326WAT     H2 4221   3.597   1.074   5.783
 1327WAT      O 4222   8.040   8.107   3.963
 1327WAT     H1 4223   8.041   8.078   4.058
 1327WAT     H2 4224   7.948   8.098   3.926
 1328WAT      O 4225   4.893   2.640   6.561
 1328WAT     H1 4226   4.864   2.718   6.616
 1328WAT     H2 4227   4.874   2.555   6.610
 1329WAT      O 4228   8.403   2.899   1.588
 1329WAT     H1 4229   8.425   2.876   1.494
 1329WAT     H2 4230   8.487   2.906   1.642
 1330WAT      O 4231   8.202   9.541   0.214
 1330WAT     H1 4232   8.144   9.615   0.180
 1330WAT     H2 4233   8.159   9.453   0.194
 1331WAT      O 4234   5.661   8.507   6.270
 1331WAT     H1 4235   5.696   8.416   6.291
 1331WAT     H2 4236   5.727   8.556   6.214
 1332WAT      O 4237   6.209   6.483   7.851
 1332WAT     H1 4238   6.145   6.437   7.790
 1332WAT     H2 4239   6.159   6.547   7.909
 1333WAT      O 4240   1.197   6.678   2.859
 1333WAT     H1 4241   1.158   6.669   2.767
 1333WAT     H2 4242   1.168   6.765   2.899
 1334WAT      O 4243   7.337   0.474   3.572
 1334WAT     H1 4244   7.241   0.496   3.592
 1334WAT     H2 4245   7.365   0.522   3.489
 1335WAT      O 4246   3.878   5.315   2.151
 1335WAT     H1 4247   3.901   5.378   2.077
 1335WAT     H2 4248   3.901   5.357   2.239
 1336WAT      O 4249   7.907   6.839   9.531
 1336WAT     H1 4250   7.988   6.815   9.583
 1336WAT     H2 4251   7.889   6.768   9.463
 1337WAT      O 4252   9.756   1.430   3.760
 1337WAT     H1 4253   9.699   1.364   3.809
 1337WAT     H2 4254   9.780   1.393   3.670
 1338WAT      O 4255   6.325   5.903   6.771
 1338WAT     H1 4256   6.284   5.853   6.847
 1338WAT     H2 4257   6.331   5.843   6.691
 1339WAT      O 4258   4.808   7.510   2.917
 1339WAT     H1 4259   4.756   7.533   2.834
 1339WAT     H2 4260   4.904   7.535   2.904
 1340WAT      O 4261   0.698   2.380   9.295
 1340WAT     H1 4262   0.602   2.362   9.317
 1340WAT     H2 4263   0.710   2.376   9.196
 1341WAT      O 4264   8.098   4.989   7.219
 1341WAT     H1 4265   8.161   5.063   7.240
 1341WAT     H2 4266   8.066   4.946   7.304
 1342WAT      O 4267   9.120   1.554   1.970
 1342WAT     H1 4268   9.135   1.631   2.033
 1342WAT     H2 4269   9.109   1.470   2.023
 1343WAT      O 4270   4.141   4.077   9.482
 1343WAT     H1 4271   4.067   4.142   9.468
 1343WAT     H2 4272   4.204   4.114   9.551
 1344WAT      O 4273   6.442   7.453   6.636
 1344WAT     H1 4274   6.533   7.433   6.673
 1344WAT     H2 4275   6.374   7.400   6.686
 1345WAT      O 4276   8.234   0.880   1.680
 1345WAT     H1 4277   8.147   0.924   1.706
 1345WAT     H2 4278   8.265   0.917   1.593
 1346WAT      O 4279   6.781   7.917   2.649
 1346WAT     H1 4280   6.717   7.864   2.593
 1346WAT     H2 4281   6.787   7.875   2.739
 1347WAT      O 4282   8.847   5.282   1.380
 1347WAT     H1 4283   8.808   5.329   1.301
 1347WAT     H2 4284   8.947   5.276   1.370
 1348WAT      O 4285   7.479   7.100   0.837
 1348WAT     H1 4286   7.430   7.181   0.806
 1348WAT     H2 4287   7.536   7.122   0.916
 1349WAT      O 4288   5.136   1.047   7.715
 1349WAT     H1 4289   5.110   0.952   7.695
 1349WAT     H2 4290   5.147   1.097   7.630
 1350WAT      O 4291   6.959   8.406   2.087
 1350WAT     H1 4292   6.872   8.358   2.090
 1350WAT     H2 4293   6.949   8.490   2.033
 1351WAT      O 4294   7.831   1.406   6.137
 1351WAT     H1 4295   7.815   1.484   6.077
 1351WAT     H2 4296   7.822   1.321   6.085
 1352WAT      O 4297   2.335   9.036   8.029
 1352WAT     H1 4298   2.312   9.124   8.070
 1352WAT     H2 4299   2.255   8.999   7.982
 1353WAT      O 4300   3.716   1.538   2.424
 1353WAT     H1 4301   3.625   1.576   2.407
 1353WAT     H2 4302   3.714   1.483   2.508
 1354WAT      O 4303   9.807   2.760   0.023
 1354WAT     H1 4304   9.756   2.831   0.071
 1354WAT     H2 4305   9.820   2.681   0.083
 1355WAT      O 4306   3.913   3.964   7.769
 1355WAT     H1 4307   3.863   3.912   7.700
 1355WAT     H2 4308   3.887   4.061   7.764
 1356WAT      O 4309   8.312   6.506   6.106
 1356WAT     H1 4310   8.382   6.467   6.047
 1356WAT     H2 4311   8.247   6.435   6.133
 1357WAT      O 4312   7.967   8.584   9.653
 1357WAT     H1 4313   7.928   8.559   9.742
 1357WAT     H2 4314   8.026   8.511   9.621
 1358WAT      O 4315   5.987   4.565   3.526
 1358WAT     H1 4316   5.982   4.544   3.624
 1358WAT     H2 4317   5.908   4.621   3.499
 1359WAT      O 4318   1.948   7.336   4.384
 1359WAT     H1 4319   1.897   7.325   4.470
 1359WAT     H2 4320   1.890   7.311   4.307
 1360WAT      O 4321   0.230   7.291   3.712
 1360WAT     H1 4322   0.149   7.290   3.654
 1360WAT     H2 4323   0.212   7.345   3.794
 1361WAT      O 4324   0.941   9.190   9.509
 1361WAT     H1 4325   0.881   9.225   9.438
 1361WAT     H2 4326   0.930   9.245   9.592
 1362WAT      O 4327   2.609   5.215   7.384
 1362WAT     H1 4328   2.673   5.139   7.374
 1362WAT     H2 4329   2.635   5.288   7.320
 1363WAT      O 4330   9.351   7.174   3.201
 1363WAT     H1 4331   9.368   7.250   3.137
 1363WAT     H2 4332   9.435   7.121   3.212
 1364WAT      O 4333   6.879   5.702   2.318
 1364WAT     H1 4334   6.966   5.711   2.269
 1364WAT     H2 4335   6.861   5.606   2.337
 1365WAT      O 4336   6.098   9.141   2.749
 1365WAT     H1 4337   6.069   9.056   2.705
 1365WAT     H2 4338   6.085   9.134   2.847
 1366WAT      O 4339   8.013   8.372   3.934
 1366WAT     H1 4340   7.956   8.378   4.016
 1366WAT     H2 4341   8.020   8.276   3.905
 1367WAT      O 4342   1.252   7.821   6.419
 1367WAT     H1 4343   1.326   7.773   6.372
 1367WAT     H2 4344   1.164   7.781   6.394
 1368WAT      O 4345   5.628   7.036   9.222
 1368WAT     H1 4346   5.584   6.964   9.168
 1368WAT     H2 4347   5.584   7.044   9.311
 1369WAT      O 4348   6.769   5.220   7.767
 1369WAT     H1 4349   6.702   5.293   7.756
 1369WAT     H2 4350   6.861   5.259   7.766
 1370WAT      O 4351   9.340   5.692   2.286
 1370WAT     H1 4352   9.384   5.602   2.290
 1370WAT     H2 4353   9.365   5.737   2.200
 1371WAT      O 4354   2.832   6.312   1.256
 1371WAT     H1 4355   2.875   6.256   1.185
 1371WAT     H2 4356   2.733   6.293   1.258
 1372WAT      O 4357   5.876   2.093   7.289
 1372WAT     H1 4358   5.859   2.191   7.294
 1372WAT     H2 4359   5.970   2.073   7.317
 1373WAT      O 4360   5.776   0.574   5.422
 1373WAT     H1 4361   5.785   0.669   5.450
 1373WAT     H2 4362   5.767   0.569   5.323
 1374WAT      O 4363   5.931   1.223   1.040
 1374WAT     H1 4364   6.027   1.250   1.051
 1374WAT     H2 4365   5.918   1.183   0.950
 1375WAT      O 4366   1.766   9.342   1.919
 1375WAT     H1 4367   1.701   9.347   1.844
 1375WAT     H2 4368   1.751   9.418   1.982
 1376WAT      O 4369   8.003   9.421   9.103
 1376WAT     H1 4370   8.087   9.426   9.050
 1376WAT     H2 4371   7.925   9.412   9.041
 1377WAT      O 4372   3.139   5.933   2.960
 1377WAT     H1 4373   3.228   5.896   2.989
 1377WAT     H2 4374   3.092   5.867   2.903
 1378WAT      O 4375   4.612   7.630   8.124
 1378WAT     H1 4376   4.542   7.591   8.184
 1378WAT     H2 4377   4.575   7.640   8.031
 1379WAT      O 4378   1.170   0.840   3.288
 1379WAT     H1 4379   1.211   0.816   3.376
 1379WAT     H2 4380   1.157   0.939   3.283
 1380WAT      O 4381   3.922   6.801   9.541
 1380WAT     H1 4382   4.018   6.819   9.520
 1380WAT     H2 4383   3.916   6.739   9.619
 1381WAT      O 4384   8.730   2.141   8.887
 1381WAT     H1 4385   8.763   2.114   8.796
 1381WAT     H2 4386   8.744   2.066   8.951
 1382WAT      O 4387   0.134   2.070   0.864
 1382WAT     H1 4388   0.159   2.113   0.777
 1382WAT     H2 4389   0.182   1.983   0.874
 1383WAT      O 4390   7.926   7.609   7.810
 1383WAT     H1 4391   7.917   7.553   7.728
 1383WAT     H2 4392   7.942   7.704   7.785
 1384WAT      O 4393   8.048   7.249   9.765
 1384WAT     H1 4394   7.979   7.312   9.799
 1384WAT     H2 4395   8.063   7.265   9.667
 1385WAT      O 4396   0.759   7.761   5.301
 1385WAT     H1 4397   0.855   7.743   5.281
 1385WAT     H2 4398   0.719   7.816   5.228
 1386WAT      O 4399   8.090   5.081   2.450
 1386WAT     H1 4400   8.182   5.068   2.415
 1386WAT     H2 4401   8.089   5.066   2.549
 1387WAT      O 4402   5.690   3.191   7.041
 1387WAT     H1 4403   5.649   3.248   6.971
 1387WAT     H2 4404   5.790   3.201   7.039
 1388WAT      O 4405   6.336   7.505   7.703
 1388WAT     H1 4406   6.377   7.485   7.615
 1388WAT     H2 4407   6.336   7.604   7.719
 1389WAT      O 4408   4.465   2.718   1.440
 1389WAT     H1 4409   4.474   2.809   1.480
 1389WAT     H2 4410   4.459   2.725   1.341
 1390WAT      O 4411   1.198   2.274   0.314
 1390WAT     H1 4412   1.216   2.249   0.219
 1390WAT     H2 4413   1.284   2.294   0.361
 1391WAT      O 4414   6.822   5.319   6.414
 1391WAT     H1 4415   6.768   5.397   6.447
 1391WAT     H2 4416   6.780   5.234   6.444
 1392WAT      O 4417   2.345   5.249   5.369
 1392WAT     H1 4418   2.358   5.168   5.426
 1392WAT     H2 4419   2.434   5.290   5.349
 1393WAT      O 4420   1.209   5.712   2.373
 1393WAT     H1 4421   1.239   5.721   2.467
 1393WAT     H2 4422   1.289   5.701   2.313
 1394WAT      O 4423   9.152   1.895   2.895
 1394WAT     H1 4424   9.212   1.844   2.956
 1394WAT     H2 4425   9.137   1.843   2.811
 1395WAT      O 4426   5.928   9.006   3.397
 1395WAT     H1 4427   5.892   9.064   3.470
 1395WAT     H2 4428   6.019   8.974   3.422
 1396WAT      O 4429   3.885   7.361   4.074
 1396WAT     H1 4430   3.792   7.378   4.106
 1396WAT     H2 4431   3.950   7.409   4.133
 1397WAT      O 4432   6.969   1.121   2.740
 1397WAT     H1 4433   6.898   1.086   2.679
 1397WAT     H2 4434   6.959   1.079   2.831
 1398WAT      O 4435   8.417   5.478   1.550
 1398WAT     H1 4436   8.323   5.494   1.582
 1398WAT     H2 4437   8.473   5.445   1.626
 1399WAT      O 4438   7.908   9.240   8.149
 1399WAT     H1 4439   7.993   9.281   8.182
 1399WAT     H2 4440   7.869   9.180   8.219
 1400WAT      O 4441   4.924   5.112   3.638
 1400WAT     H1 4442   4.994   5.040   3.646
 1400WAT     H2 4443   4.940   5.181   3.709
 1401WAT      O 4444   9.642   4.906   4.660
 1401WAT     H1 4445   9.632   4.864   4.569
 1401WAT     H2 4446   9.593   4.993   4.662
 1402WAT      O 4447   5.088   3.096   4.905
 1402WAT     H1 4448   5.074   3.089   4.806
 1402WAT     H2 4449   5.153   3.170   4.924
 1403WAT      O 4450   1.903   8.820   3.222
 1403WAT     H1 4451   2.002   8.816   3.234
 1403WAT     H2 4452   1.874   8.916   3.218
 1404WAT      O 4453   2.720   4.938   2.715
 1404WAT     H1 4454   2.817   4.916   2.705
 1404WAT     H2 4455   2.710   5.021   2.770
 1405WAT      O 4456   0.614   3.494   7.387
 1405WAT     H1 4457   0.696   3.538   7.424
 1405WAT     H2 4458   0.640   3.432   7.313
 1406WAT      O 4459   5.891   6.562   8.295
 1406WAT     H1 4460   5.989   6.558   8.277
 1406WAT     H2 4461   5.850   6.473   8.276
 1407WAT      O 4462   6.496   5.964   4.219
 1407WAT     H1 4463   6.439   6.025   4.164
 1407WAT     H2 4464   6.578   5.940   4.168
 1408WAT      O 4465   4.071   3.479   8.243
 1408WAT     H1 4466   4.122   3.401   8.278
 1408WAT     H2 4467   4.126   3.562   8.255
 1409WAT      O 4468   3.132   4.115   7.257
 1409WAT     H1 4469   3.054   4.120   7.320
 1409WAT     H2 4470   3.117   4.179   7.181
 1410WAT      O 4471   8.763   5.851   2.075
 1410WAT     H1 4472   8.738   5.947   2.064
 1410WAT     H2 4473   8.813   5.839   2.161
 1411WAT      O 4474   0.291   8.455   3.724
 1411WAT     H1 4475   0.213   8.502   3.682
 1411WAT     H2 4476   0.366   8.450   3.658
 1412WAT      O 4477   9.675   8.605   6.484
 1412WAT     H1 4478   9.751   8.604   6.548
 1412WAT     H2 4479   9.669   8.695   6.441
 1413WAT      O 4480   9.647   7.670   5.820
 1413WAT     H1 4481   9.554   7.633   5.819
 1413WAT     H2 4482   9.655   7.737   5.894
 1414WAT      O 4483   3.327   3.096   1.495
 1414WAT     H1 4484   3.228   3.083   1.486
 1414WAT     H2 4485   3.365   3.025   1.554
 1415WAT      O 4486   5.538   3.545   8.940
 1415WAT     H1 4487   5.454   3.567   8.890
 1415WAT     H2 4488   5.615   3.542   8.876
 1416WAT      O 4489   9.670   1.754   4.409
 1416WAT     H1 4490   9.714   1.737   4.321
 1416WAT     H2 4491   9.739   1.754   4.481
 1417WAT      O 4492   5.468   7.340   7.080
 1417WAT     H1 4493   5.528   7.270   7.041
 1417WAT     H2 4494   5.502   7.367   7.170
 1418WAT      O 4495   0.284   0.365   9.571
 1418WAT     H1 4496   0.365   0.306   9.570
 1418WAT     H2 4497   0.252   0.380   9.478
 1419WAT      O 4498   1.324   4.307   6.149
 1419WAT     H1 4499   1.403   4.270   6.101
 1419WAT     H2 4500   1.240   4.274   6.104
 1420WAT      O 4501   9.500   1.979   2.965
 1420WAT     H1 4502   9.425   1.943   3.022
 1420WAT     H2 4503   9.552   2.045   3.018
 1421WAT      O 4504   8.009   9.535   4.356
 1421WAT     H1 4505   7.968   9.621   4.326
 1421WAT     H2 4506   7.998   9.465   4.284
 1422WAT      O 4507   0.914   8.948   9.605
 1422WAT     H1 4508   0.929   9.040   9.568
 1422WAT     H2 4509   0.827   8.912   9.572
 1423WAT      O 4510   9.478   9.346   9.376
 1423WAT     H1 4511   9.384   9.362   9.407
 1423WAT     H2 4512   9.542   9.392   9.438
 1424WAT      O 4513   8.617   4.094   5.544
 1424WAT     H1 4514   8.636   3.997   5.559
 1424WAT     H2 4515   8.635   4.144   5.629
 1425WAT      O 4516   9.326   3.772   3.515
 1425WAT     H1 4517   9.382   3.689   3.511
 1425WAT     H2 4518   9.247   3.762   3.454
 1426WAT      O 4519   2.364   3.885   9.567
 1426WAT     H1 4520   2.372   3.793   9.607
 1426WAT     H2 4521   2.388   3.881   9.470
 1427WAT      O 4522   3.808   7.218   7.609
 1427WAT     H1 4523   3.874   7.161   7.560
 1427WAT     H2 4524   3.764   7.164   7.680
 1428WAT      O 4525   7.102   2.056   2.786
 1428WAT     H1 4526   7.147   2.064   2.875
 1428WAT     H2 4527   7.007   2.027   2.800
 1429WAT      O 4528   5.790   3.314   0.531
 1429WAT     H1 4529   5.877   3.343   0.492
 1429WAT     H2 4530   5.747   3.246   0.471
 1430WAT      O 4531   1.855   1.449   0.792
 1430WAT     H1 4532   1.853   1.484   0.698
 1430WAT     H2 4533   1.792   1.372   0.800
 1431WAT      O 4534   2.878   2.742   3.436
 1431WAT     H1 4535   2.789   2.763   3.476
 1431WAT     H2 4536   2.917   2.825   3.396
 1432WAT      O 4537   9.852   5.055   3.429
 1432WAT     H1 4538   9.925   5.044   3.496
 1432WAT     H2 4539   9.868   5.138   3.376
 1433WAT      O 4540   8.317   6.309   6.452
 1433WAT     H1 4541   8.259   6.234   6.483
 1433WAT     H2 4542   8.412   6.280   6.450
 1434WAT      O 4543   2.344   2.707   2.032
 1434WAT     H1 4544   2.248   2.697   2.059
 1434WAT     H2 4545   2.349   2.749   1.941
 1435WAT      O 4546   1.070   2.528   7.030
 1435WAT     H1 4547   1.056   2.526   7.129
 1435WAT     H2 4548   1.050   2.620   6.996
 1436WAT      O 4549   2.804   3.488   9.239
 1436WAT     H1 4550   2.705   3.490   9.253
 1436WAT     H2 4551   2.831   3.399   9.203
 1437WAT      O 4552   9.244   1.381   7.959
 1437WAT     H1 4553   9.196   1.450   7.905
 1437WAT     H2 4554   9.342   1.403   7.963
 1438WAT      O 4555   7.103   1.335   1.560
 1438WAT     H1 4556   7.044   1.313   1.483
 1438WAT     H2 4557   7.169   1.261   1.574
 1439WAT      O 4558   1.156   7.660   8.084
 1439WAT     H1 4559   1.142   7.580   8.026
 1439WAT     H2 4560   1.240   7.648   8.137
 1440WAT      O 4561   3.494   8.493   5.533
 1440WAT     H1 4562   3.582   8.528   5.564
 1440WAT     H2 4563   3.489   8.395   5.553
 1441WAT      O 4564   6.597   6.495   6.770
 1441WAT     H1 4565   6.621   6.401   6.794
 1441WAT     H2 4566   6.499   6.508   6.783
 1442WAT      O 4567   6.592   2.623   6.592
 1442WAT     H1 4568   6.531   2.554   6.555
 1442WAT     H2 4569   6.619   2.686   6.519
 1443WAT      O 4570   5.479   0.143   9.258
 1443WAT     H1 4571   5.524   0.157   9.169
 1443WAT     H2 4572   5.451   0.047   9.266
 1444WAT      O 4573   1.852   2.860   9.609
 1444WAT     H1 4574   1.877   2.888   9.516
 1444WAT     H2 4575   1.843   2.760   9.611
 1445WAT      O 4576   3.812   9.641   5.741
 1445WAT     H1 4577   3.869   9.660   5.821
 1445WAT     H2 4578   3.731   9.590   5.769
 1446WAT      O 4579   6.141   2.601   8.040
 1446WAT     H1 4580   6.086   2.575   7.961
 1446WAT     H2 4581   6.157   2.521   8.097
 1447WAT      O 4582   1.118   6.150   2.001
 1447WAT     H1 4583   1.159   6.184   1.916
 1447WAT     H2 4584   1.018   6.158   1.995
 1448WAT      O 4585   3.242   7.349   7.086
 1448WAT     H1 4586   3.296   7.425   7.122
 1448WAT     H2 4587   3.187   7.310   7.160
 1449WAT      O 4588   5.473   0.728   2.223
 1449WAT     H1 4589   5.408   0.654   2.206
 1449WAT     H2 4590   5.552   0.717   2.164
 1450WAT      O 4591   0.748   6.569   4.995
 1450WAT     H1 4592   0.844   6.580   5.020
 1450WAT     H2 4593   0.691   6.594   5.073
 1451WAT      O 4594   0.307   0.064   8.360
 1451WAT     H1 4595   0.253  -0.004   8.311
 1451WAT     H2 4596   0.377   0.102   8.300
 1452WAT      O 4597   5.845   5.067   9.446
 1452WAT     H1 4598   5.904   5.142   9.477
 1452WAT     H2 4599   5.806   5.091   9.357
 1453WAT      O 4600   0.538   7.380   3.799
 1453WAT     H1 4601   0.492   7.337   3.722
 1453WAT     H2 4602   0.604   7.447   3.766
 1454WAT      O 4603   8.894   7.964   3.756
 1454WAT     H1 4604   8.973   7.916   3.718
 1454WAT     H2 4605   8.810   7.929   3.715
 1455WAT      O 4606   5.623   3.534   5.609
 1455WAT     H1 4607   5.573   3.589   5.542
 1455WAT     H2 4608   5.661   3.593   5.680
 1456WAT      O 4609   8.310   3.652   0.468
 1456WAT     H1 4610   8.373   3.575   0.480
 1456WAT     H2 4611   8.361   3.734   0.442
 1457WAT      O 4612   5.682   8.572   6.861
 1457WAT     H1 4613   5.773   8.602   6.887
 1457WAT     H2 4614   5.615   8.640   6.890
 1458WAT      O 4615   4.944   9.824   8.191
 1458WAT     H1 4616   5.024   9.871   8.154
 1458WAT     H2 4617   4.864   9.882   8.182
 1459WAT      O 4618   4.509   1.577   0.368
 1459WAT     H1 4619   4.594   1.627   0.347
 1459WAT     H2 4620   4.530   1.499   0.427
 1460WAT      O 4621   7.130   1.337   7.176
 1460WAT     H1 4622   7.224   1.305   7.167
 1460WAT     H2 4623   7.114   1.364   7.271
 1461WAT      O 4624   4.673   0.281   0.181
 1461WAT     H1 4625   4.752   0.227   0.151
 1461WAT     H2 4626   4.697   0.334   0.262
 1462WAT      O 4627   7.487   9.177   8.268
 1462WAT     H1 4628   7.412   9.213   8.212
 1462WAT     H2 4629   7.501   9.081   8.247
 1463WAT      O 4630   1.764   7.958   7.542
 1463WAT     H1 4631   1.713   7.961   7.628
 1463WAT     H2 4632   1.731   7.882   7.486
 1464WAT      O 4633   8.618   6.238   5.202
 1464WAT     H1 4634   8.532   6.238   5.153
 1464WAT     H2 4635   8.611   6.178   5.282
 1465WAT      O 4636   8.335   0.966   7.803
 1465WAT     H1 4637   8.309   0.924   7.716
 1465WAT     H2 4638   8.422   0.928   7.834
 1466WAT      O 4639   6.338   4.350   9.157
 1466WAT     H1 4640   6.303   4.292   9.083
 1466WAT     H2 4641   6.438   4.350   9.155
 1467WAT      O 4642   2.501   8.266   1.701
 1467WAT     H1 4643   2.556   8.345   1.673
 1467WAT     H2 4644   2.496   8.200   1.626
 1468WAT      O 4645   7.233   9.705   4.906
 1468WAT     H1 4646   7.257   9.608   4.910
 1468WAT     H2 4647   7.269   9.744   4.821
 1469WAT      O 4648   8.755   0.916   8.041
 1469WAT     H1 4649   8.854   0.927   8.043
 1469WAT     H2 4650   8.712   1.006   8.048
 1470WAT      O 4651   2.559   2.242   4.013
 1470WAT     H1 4652   2.498   2.164   4.030
 1470WAT     H2 4653   2.601   2.232   3.923
 1471WAT      O 4654   2.271   8.579   0.731
 1471WAT     H1 4655   2.329   8.510   0.688
 1471WAT     H2 4656   2.314   8.669   0.723
 1472WAT      O 4657   6.950   6.447   8.627
 1472WAT     H1 4658   6.936   6.348   8.624
 1472WAT     H2 4659   6.895   6.485   8.701
 1473WAT      O 4660   3.373   7.755   8.814
 1473WAT     H1 4661   3.351   7.780   8.908
 1473WAT     H2 4662   3.307   7.687   8.781
 1474WAT      O 4663   7.538   8.645   2.260
 1474WAT     H1 4664   7.471   8.720   2.260
 1474WAT     H2 4665   7.556   8.616   2.354
 1475WAT      O 4666   7.050   4.264   7.684
 1475WAT     H1 4667   6.985   4.289   7.756
 1475WAT     H2 4668   7.081   4.170   7.698
 1476WAT      O 4669   3.900   1.640   2.872
 1476WAT     H1 4670   3.966   1.604   2.937
 1476WAT     H2 4671   3.812   1.595   2.883
 1477WAT      O 4672   3.838   8.801   2.873
 1477WAT     H1 4673   3.843   8.719   2.816
 1477WAT     H2 4674   3.899   8.871   2.836
 1478WAT      O 4675   9.490   8.541   6.686
 1478WAT     H1 4676   9.411   8.598   6.662
 1478WAT     H2 4677   9.557   8.545   6.612
 1479WAT      O 4678   5.609   9.409   6.819
 1479WAT     H1 4679   5.550   9.440   6.894
 1479WAT     H2 4680   5.593   9.312   6.801
 1480WAT      O 4681   8.444   0.681   0.346
 1480WAT     H1 4682   8.534   0.651   0.313
 1480WAT     H2 4683   8.439   0.781   0.341
 1481WAT      O 4684   2.701   6.052   0.250
 1481WAT     H1 4685   2.663   6.128   0.303
 1481WAT     H2 4686   2.792   6.029   0.284
 1482WAT      O 4687   8.461   6.545   6.893
 1482WAT     H1 4688   8.369   6.556   6.855
 1482WAT     H2 4689   8.515   6.627   6.874
 1483WAT      O 4690   0.611   2.751   2.196
 1483WAT     H1 4691   0.678   2.686   2.232
 1483WAT     H2 4692   0.546   2.702   2.137
 1484WAT      O 4693   2.730   9.576   6.942
 1484WAT     H1 4694   2.750   9.601   7.037
 1484WAT     H2 4695   2.653   9.514   6.939
 1485WAT      O 4696   3.245   4.395   1.288
 1485WAT     H1 4697   3.158   4.395   1.238
 1485WAT     H2 4698   3.258   4.483   1.333
 1486WAT      O 4699   0.036   4.866   7.314
 1486WAT     H1 4700  -0.025   4.787   7.303
 1486WAT     H2 4701   0.130   4.835   7.322
 1487WAT      O 4702   1.425   6.513   3.970
 1487WAT     H1 4703   1.414   6.475   4.062
 1487WAT     H2 4704   1.340   6.558   3.942
 1488WAT      O 4705   5.300   5.995   9.152
 1488WAT     H1 4706   5.231   6.064   9.133
 1488WAT     H2 4707   5.298   5.924   9.082
 1489WAT      O 4708   2.523   7.400   1.450
 1489WAT     H1 4709   2.482   7.319   1.492
 1489WAT     H2 4710   2.452   7.470   1.436
 1490WAT      O 4711   1.518   1.428   2.808
 1490WAT     H1 4712   1.444   1.362   2.803
 1490WAT     H2 4713   1.510   1.493   2.731
 1491WAT      O 4714   8.937   5.439   8.054
 1491WAT     H1 4715   8.922   5.384   7.972
 1491WAT     H2 4716   8.852   5.488   8.077
 1492WAT      O 4717   8.492   5.596   3.732
 1492WAT     H1 4718   8.554   5.643   3.795
 1492WAT     H2 4719   8.408   5.571   3.779
 1493WAT      O 4720   3.959   9.785   4.277
 1493WAT     H1 4721   4.009   9.862   4.316
 1493WAT     H2 4722   3.997   9.700   4.312
 1494WAT      O 4723   3.866   1.047   3.877
 1494WAT     H1 4724   3.939   1.113   3.862
 1494WAT     H2 4725   3.783   1.077   3.829
 1495WAT      O 4726   4.154   4.879   2.874
 1495WAT     H1 4727   4.097   4.828   2.810
 1495WAT     H2 4728   4.209   4.815   2.928
 1496WAT      O 4729   8.244   6.568   8.469
 1496WAT     H1 4730   8.158   6.580   8.419
 1496WAT     H2 4731   8.230   6.594   8.565
 1497WAT      O 4732   9.644   9.598   2.705
 1497WAT     H1 4733   9.631   9.531   2.632
 1497WAT     H2 4734   9.664   9.687   2.665
 1498WAT      O 4735   0.981   8.867   1.740
 1498WAT     H1 4736   1.076   8.859   1.712
 1498WAT     H2 4737   0.932   8.783   1.716
 1499WAT      O 4738   8.470   4.665   3.036
 1499WAT     H1 4739   8.485   4.726   2.958
 1499WAT     H2 4740   8.384   4.615   3.024
 1500WAT      O 4741   5.355   7.934   6.825
 1500WAT     H1 4742   5.267   7.966   6.793
 1500WAT     H2 4743   5.343   7.848   6.875
 1501WAT      O 4744   6.400   0.189   1.848
 1501WAT     H1 4745   6.446   0.227   1.768
 1501WAT     H2 4746   6.334   0.256   1.884
 1502WAT      O 4747   1.906   2.616   1.186
 1502WAT     H1 4748   1.873   2.587   1.276
 1502WAT     H2 4749   1.988   2.564   1.162
 1503WAT      O 4750   6.040   2.446   5.328
 1503WAT     H1 4751   6.077   2.538   5.339
 1503WAT     H2 4752   6.091   2.382   5.386
 1504WAT      O 4753   2.754   0.015   8.651
 1504WAT     H1 4754   2.672  -0.041   8.644
 1504WAT     H2 4755   2.824  -0.034   8.703
 1505WAT      O 4756   2.741   6.255   6.061
 1505WAT     H1 4757   2.809   6.182   6.062
 1505WAT     H2 4758   2.681   6.244   5.982
 1506WAT      O 4759   4.835   1.983   6.475
 1506WAT     H1 4760   4.921   1.937   6.458
 1506WAT     H2 4761   4.759   1.927   6.443
 1507WAT      O 4762   2.562   9.696   6.755
 1507WAT     H1 4763   2.631   9.688   6.827
 1507WAT     H2 4764   2.497   9.768   6.780
 1508WAT      O 4765   4.532   3.462   7.088
 1508WAT     H1 4766   4.552   3.393   7.019
 1508WAT     H2 4767   4.557   3.427   7.178
 1509WAT      O 4768   5.150   6.309   2.794
 1509WAT     H1 4769   5.233   6.274   2.837
 1509WAT     H2 4770   5.117   6.388   2.845
 1510WAT      O 4771   4.642   4.705   9.384
 1510WAT     H1 4772   4.630   4.777   9.315
 1510WAT     H2 4773   4.621   4.743   9.474
 1511WAT      O 4774   5.607   8.610   4.673
 1511WAT     H1 4775   5.538   8.543   4.697
 1511WAT     H2 4776   5.631   8.664   4.754
 1512WAT      O 4777   5.111   7.646   2.473
 1512WAT     H1 4778   5.104   7.631   2.374
 1512WAT     H2 4779   5.129   7.559   2.519
 1513WAT      O 4780   0.030   4.172   7.963
 1513WAT     H1 4781  -0.032   4.165   8.041
 1513WAT     H2 4782   0.004   4.250   7.906
 1514WAT      O 4783   8.193   0.290   6.842
 1514WAT     H1 4784   8.185   0.204   6.893
 1514WAT     H2 4785   8.261   0.348   6.885
 1515WAT      O 4786   6.399   3.936   3.879
 1515WAT     H1 4787   6.427   4.007   3.944
 1515WAT     H2 4788   6.480   3.901   3.831
 1516WAT      O 4789   4.584   6.161   0.585
 1516WAT     H1 4790   4.563   6.104   0.664
 1516WAT     H2 4791   4.513   6.150   0.516
 1517WAT      O 4792   0.664   6.878   5.342
 1517WAT     H1 4793   0.664   6.780   5.325
 1517WAT     H2 4794   0.588   6.901   5.403
 1518WAT      O 4795   9.331   0.356   9.341
 1518WAT     H1 4796   9.394   0.355   9.419
 1518WAT     H2 4797   9.272   0.275   9.344
 1519WAT      O 4798   2.033   5.616   0.447
 1519WAT     H1 4799   2.039   5.522   0.414
 1519WAT     H2 4800   1.963   5.665   0.395
 1520WAT      O 4801   6.943   8.943   5.656
 1520WAT     H1 4802   6.845   8.955   5.671
 1520WAT     H2 4803   6.987   8.915   5.741
 1521WAT      O 4804   5.803   8.912   0.306
 1521WAT     H1 4805   5.790   8.815   0.284
 1521WAT     H2 4806   5.839   8.920   0.400
 1522WAT      O 4807   9.543   8.956   8.857
 1522WAT     H1 4808   9.508   9.007   8.778
 1522WAT     H2 4809   9.581   9.020   8.924
 1523WAT      O 4810   1.609   8.979   3.279
 1523WAT     H1 4811   1.551   8.954   3.201
 1523WAT     H2 4812   1.594   8.913   3.353
 1524WAT      O 4813   9.517   9.586   5.035
 1524WAT     H1 4814   9.442   9.554   5.093
 1524WAT     H2 4815   9.489   9.669   4.987
 1525WAT      O 4816   2.191   0.456   4.296
 1525WAT     H1 4817   2.250   0.536   4.305
 1525WAT     H2 4818   2.178   0.435   4.199
 1526WAT      O 4819   2.099   8.255   2.623
 1526WAT     H1 4820   2.086   8.230   2.527
 1526WAT     H2 4821   2.011   8.278   2.664
 1527WAT      O 4822   8.103   2.930   0.520
 1527WAT     H1 4823   8.004   2.918   0.516
 1527WAT     H2 4824   8.129   3.012   0.470
 1528WAT      O 4825   9.576   1.286   5.945
 1528WAT     H1 4826   9.602   1.210   6.004
 1528WAT     H2 4827   9.605   1.372   5.987
 1529WAT      O 4828   4.092   4.904   9.169
 1529WAT     H1 4829   4.127   4.994   9.192
 1529WAT     H2 4830   4.015   4.882   9.230
 1530WAT      O 4831   6.126   6.247   7.992
 1530WAT     H1 4832   6.176   6.330   7.965
 1530WAT     H2 4833   6.187   6.168   7.984
 1531WAT      O 4834   3.062   1.832   8.624
 1531WAT     H1 4835   3.002   1.881   8.560
 1531WAT     H2 4836   3.132   1.896   8.658
 1532WAT      O 4837   9.540   9.196   7.718
 1532WAT     H1 4838   9.496   9.266   7.774
 1532WAT     H2 4839   9.593   9.240   7.645
 1533WAT      O 4840   3.717   6.685   9.709
 1533WAT     H1 4841   3.685   6.661   9.801
 1533WAT     H2 4842   3.639   6.703   9.650
 1534WAT      O 4843   1.215   4.570   1.787
 1534WAT     H1 4844   1.128   4.564   1.836
 1534WAT     H2 4845   1.255   4.480   1.779
 1535WAT      O 4846   3.432   5.870   0.020
 1535WAT     H1 4847   3.382   5.860   0.106
 1535WAT     H2 4848   3.456   5.779  -0.015
 1536WAT      O 4849   8.493   9.482   5.039
 1536WAT     H1 4850   8.413   9.531   5.003
 1536WAT     H2 4851   8.544   9.542   5.100
 1537WAT      O 4852   6.992   3.624   8.285
 1537WAT     H1 4853   7.012   3.613   8.382
 1537WAT     H2 4854   6.960   3.537   8.247
 1538WAT      O 4855   7.881   3.922   0.515
 1538WAT     H1 4856   7.806   3.933   0.580
 1538WAT     H2 4857   7.931   3.838   0.535
 1539WAT      O 4858   0.949   8.807   8.673
 1539WAT     H1 4859   0.856   8.842   8.661
 1539WAT     H2 4860   0.949   8.708   8.660
 1540WAT      O 4861   5.640   6.922   6.204
 1540WAT     H1 4862   5.730   6.893   6.171
 1540WAT     H2 4863   5.635   7.022   6.204
 1541WAT      O 4864   3.826   0.725   4.705
 1541WAT     H1 4865   3.828   0.724   4.805
 1541WAT     H2 4866   3.733   0.711   4.673
 1542WAT      O 4867   1.530   5.842   4.902
 1542WAT     H1 4868   1.597   5.798   4.841
 1542WAT     H2 4869   1.525   5.939   4.881
 1543WAT      O 4870   5.198   5.264   1.960
 1543WAT     H1 4871   5.140   5.183   1.947
 1543WAT     H2 4872   5.236   5.262   2.052
 1544WAT      O 4873   6.028   8.961   4.565
 1544WAT     H1 4874   6.081   9.015   4.631
 1544WAT     H2 4875   5.948   8.922   4.611
 1545WAT      O 4876   9.596   7.199   6.801
 1545WAT     H1 4877   9.651   7.119   6.777
 1545WAT     H2 4878   9.599   7.213   6.900
 1546WAT      O 4879   4.341   2.182   6.632
 1546WAT     H1 4880   4.340   2.184   6.532
 1546WAT     H2 4881   4.304   2.268   6.667
 1547WAT      O 4882   6.072   5.973   1.193
 1547WAT     H1 4883   6.057   6.072   1.189
 1547WAT     H2 4884   6.140   5.953   1.263
 1548WAT      O 4885   1.019   3.363   3.952
 1548WAT     H1 4886   1.007   3.264   3.967
 1548WAT     H2 4887   1.050   3.379   3.859
 1549WAT      O 4888   8.405   1.975   3.919
 1549WAT     H1 4889   8.342   1.925   3.978
 1549WAT     H2 4890   8.383   2.072   3.922
 1550WAT      O 4891   9.461   4.061   8.111
 1550WAT     H1 4892   9.382   4.090   8.165
 1550WAT     H2 4893   9.464   4.113   8.026
 1551WAT      O 4894   9.177   9.734   6.444
 1551WAT     H1 4895   9.148   9.724   6.539
 1551WAT     H2 4896   9.222   9.823   6.432
 1552WAT      O 4897   8.860   2.059   1.728
 1552WAT     H1 4898   8.817   2.057   1.638
 1552WAT     H2 4899   8.867   1.966   1.764
 1553WAT      O 4900   0.626   3.043   5.017
 1553WAT     H1 4901   0.531   3.075   5.008
 1553WAT     H2 4902   0.628   2.943   5.011
 1554WAT      O 4903   2.688   1.598   5.212
 1554WAT     H1 4904   2.634   1.593   5.128
 1554WAT     H2 4905   2.628   1.611   5.290
 1555WAT      O 4906   2.414   4.770   5.488
 1555WAT     H1 4907   2.484   4.712   5.446
 1555WAT     H2 4908   2.358   4.714   5.549
 1556WAT      O 4909   8.524   3.581   6.491
 1556WAT     H1 4910   8.427   3.602   6.481
 1556WAT     H2 4911   8.536   3.483   6.505
 1557WAT      O 4912   6.455   8.543   9.493
 1557WAT     H1 4913   6.447   8.450   9.527
 1557WAT     H2 4914   6.434   8.545   9.395
 1558WAT      O 4915   6.334   8.622   8.503
 1558WAT     H1 4916   6.418   8.605   8.554
 1558WAT     H2 4917   6.288   8.534   8.485
 1559WAT      O 4918   7.761   1.703   8.176
 1559WAT     H1 4919   7.835   1.645   8.210
 1559WAT     H2 4920   7.750   1.782   8.237
 1560WAT      O 4921   7.564   3.866   3.388
 1560WAT     H1 4922   7.523   3.831   3.472
 1560WAT     H2 4923   7.612   3.952   3.409
 1561WAT      O 4924   5.486   3.332   5.703
 1561WAT     H1 4925   5.438   3.377   5.778
 1561WAT     H2 4926   5.526   3.401   5.642
 1562WAT      O 4927   3.078   9.093   9.389
 1562WAT     H1 4928   3.139   9.168   9.364
 1562WAT     H2 4929   3.095   9.067   9.484
 1563WAT      O 4930   7.432   1.004   9.011
 1563WAT     H1 4931   7.464   0.937   9.078
 1563WAT     H2 4932   7.498   1.078   9.003
 1564WAT      O 4933   5.298   9.034   5.796
 1564WAT     H1 4934   5.321   8.954   5.741
 1564WAT     H2 4935   5.220   9.013   5.854
 1565WAT      O 4936   6.906   0.641   8.324
 1565WAT     H1 4937   6.850   0.597   8.254
 1565WAT     H2 4938   6.870   0.618   8.414
 1566WAT      O 4939   0.817   7.761   7.165
 1566WAT     H1 4940   0.912   7.789   7.153
 1566WAT     H2 4941   0.763   7.838   7.197
 1567WAT      O 4942   6.437   7.241   8.739
 1567WAT     H1 4943   6.449   7.325   8.792
 1567WAT     H2 4944   6.432   7.263   8.641
 1568WAT      O 4945   9.841   7.167   4.474
 1568WAT     H1 4946   9.748   7.168   4.511
 1568WAT     H2 4947   9.876   7.074   4.474
 1569WAT      O 4948   8.283   6.375   9.884
 1569WAT     H1 4949   8.299   6.330   9.972
 1569WAT     H2 4950   8.358   6.352   9.821
 1570WAT      O 4951   4.959   9.251   5.368
 1570WAT     H1 4952   4.917   9.162   5.389
 1570WAT     H2 4953   4.977   9.299   5.454
 1571WAT      O 4954   8.340   9.122   1.735
 1571WAT     H1 4955   8.427   9.127   1.686
 1571WAT     H2 4956   8.281   9.197   1.705
 1572WAT      O 4957   3.949   2.838   8.181
 1572WAT     H1 4958   4.029   2.887   8.217
 1572WAT     H2 4959   3.866   2.891   8.202
 1573WAT      O 4960   9.776   2.179   0.634
 1573WAT     H1 4961   9.751   2.210   0.543
 1573WAT     H2 4962   9.874   2.192   0.649
 1574WAT      O 4963   3.936   4.923   7.979
 1574WAT     H1 4964   3.952   4.888   7.886
 1574WAT     H2 4965   3.972   4.858   8.046
 1575WAT      O 4966   2.771   9.299   1.110
 1575WAT     H1 4967   2.674   9.289   1.134
 1575WAT     H2 4968   2.824   9.319   1.193
 1576WAT      O 4969   2.075   2.809   5.315
 1576WAT     H1 4970   2.108   2.718   5.291
 1576WAT     H2 4971   2.092   2.826   5.412
 1577WAT      O 4972   3.497   4.557   8.824
 1577WAT     H1 4973   3.487   4.505   8.908
 1577WAT     H2 4974   3.422   4.624   8.817
 1578WAT      O 4975   5.515   8.032   1.841
 1578WAT     H1 4976   5.508   8.089   1.758
 1578WAT     H2 4977   5.535   8.091   1.919
 1579WAT      O 4978   1.495   6.759   8.577
 1579WAT     H1 4979   1.461   6.759   8.671
 1579WAT     H2 4980   1.421   6.734   8.515
 1580WAT      O 4981   8.231   6.648   4.718
 1580WAT     H1 4982   8.192   6.730   4.761
 1580WAT     H2 4983   8.296   6.606   4.780
 1581WAT      O 4984   2.857   7.043   9.187
 1581WAT     H1 4985   2.850   7.050   9.286
 1581WAT     H2 4986   2.791   6.976   9.153
 1582WAT      O 4987   1.997   3.218   4.654
 1582WAT     H1 4988   1.937   3.139   4.655
 1582WAT     H2 4989   2.083   3.194   4.610
 1583WAT      O 4990   7.133   0.327   4.843
 1583WAT     H1 4991   7.079   0.329   4.927
 1583WAT     H2 4992   7.229   0.311   4.865
 1584WAT      O 4993   4.104   7.819   5.350
 1584WAT     H1 4994   4.118   7.908   5.393
 1584WAT     H2 4995   4.172   7.806   5.277
 1585WAT      O 4996   0.874   1.628   2.177
 1585WAT     H1 4997   0.780   1.645   2.149
 1585WAT     H2 4998   0.911   1.552   2.122
 1586WAT      O 4999   6.702   2.811   7.703
 1586WAT     H1 5000   6.792   2.778   7.676
 1586WAT     H2 5001   6.655   2.851   7.624
 1587WAT      O 5002   2.301   5.325   5.879
 1587WAT     H1 5003   2.209   5.295   5.853
 1587WAT     H2 5004   2.298   5.367   5.970
 1588WAT      O 5005   9.544   0.225   1.955
 1588WAT     H1 5006   9.456   0.269   1.974
 1588WAT     H2 5007   9.608   0.294   1.921
 1589WAT      O 5008   4.348   5.903   5.541
 1589WAT     H1 5009   4.347   5.869   5.635
 1589WAT     H2 5010   4.380   5.831   5.480
 1590WAT      O 5011   9.038   3.458   3.636
 1590WAT     H1 5012   8.959   3.416   3.683
 1590WAT     H2 5013   9.086   3.518   3.700
 1591WAT      O 5014   6.160   3.514   8.280
 1591WAT     H1 5015   6.206   3.473   8.201
 1591WAT     H2 5016   6.103   3.591   8.250
 1592WAT      O 5017   0.888   0.037   8.227
 1592WAT     H1 5018   0.846   0.126   8.209
 1592WAT     H2 5019   0.983   0.038   8.195
 1593WAT      O 5020   7.763   1.219   5.826
 1593WAT     H1 5021   7.828   1.176   5.889
 1593WAT     H2 5022   7.683   1.161   5.816
 1594WAT      O 5023   0.037   7.476   9.374
 1594WAT     H1 5024   0.012   7.382   9.394
 1594WAT     H2 5025   0.080   7.481   9.283
 1595WAT      O 5026   3.140   1.654   7.918
 1595WAT     H1 5027   3.190   1.700   7.845
 1595WAT     H2 5028   3.041   1.661   7.900
 1596WAT      O 5029   1.899   0.618   9.324
 1596WAT     H1 5030   1.962   0.541   9.314
 1596WAT     H2 5031   1.933   0.697   9.273
 1597WAT      O 5032   3.607   7.104   1.128
 1597WAT     H1 5033   3.510   7.081   1.138
 1597WAT     H2 5034   3.639   7.073   1.039
 1598WAT      O 5035   9.240   2.885   9.711
 1598WAT     H1 5036   9.311   2.877   9.641
 1598WAT     H2 5037   9.150   2.884   9.667
 1599WAT      O 5038   8.036   9.427   4.054
 1599WAT     H1 5039   8.059   9.400   3.960
 1599WAT     H2 5040   8.117   9.421   4.111
 1600WAT      O 5041   2.399   7.525   9.501
 1600WAT     H1 5042   2.354   7.507   9.414
 1600WAT     H2 5043   2.364   7.462   9.571
 1601WAT      O 5044   3.474   4.973   3.516
 1601WAT     H1 5045   3.494   4.899   3.580
 1601WAT     H2 5046   3.540   5.047   3.528
 1602WAT      O 5047   3.202   5.990   5.398
 1602WAT     H1 5048   3.266   5.913   5.397
 1602WAT     H2 5049   3.253   6.076   5.405
 1603WAT      O 5050   0.355   2.997   8.751
 1603WAT     H1 5051   0.299   3.014   8.833
 1603WAT     H2 5052   0.450   3.021   8.770
 1604WAT      O 5053   4.089   4.461   1.831
 1604WAT     H1 5054   4.086   4.537   1.767
 1604WAT     H2 5055   4.184   4.437   1.851
 1605WAT      O 5056   6.018   6.602   3.000
 1605WAT     H1 5057   6.105   6.647   3.019
 1605WAT     H2 5058   6.012   6.517   3.052
 1606WAT      O 5059   9.424   6.022   4.029
 1606WAT     H1 5060   9.354   5.976   3.975
 1606WAT     H2 5061   9.388   6.108   4.064
 1607WAT      O 5062   5.601   7.782   5.199
 1607WAT     H1 5063   5.658   7.712   5.156
 1607WAT     H2 5064   5.631   7.798   5.292
 1608WAT      O 5065   8.708   0.161   6.817
 1608WAT     H1 5066   8.737   0.177   6.722
 1608WAT     H2 5067   8.672   0.067   6.824
 1609WAT      O 5068   5.066   5.203   2.778
 1609WAT     H1 5069   5.055   5.106   2.753
 1609WAT     H2 5070   4.989   5.255   2.741
 1610WAT      O 5071   8.866   6.704   0.863
 1610WAT     H1 5072   8.927   6.649   0.806
 1610WAT     H2 5073   8.881   6.801   0.844
 1611WAT      O 5074   7.603   5.529   9.083
 1611WAT     H1 5075   7.535   5.502   9.015
 1611WAT     H2 5076   7.591   5.626   9.105
 1612WAT      O 5077   8.768   3.852   9.044
 1612WAT     H1 5078   8.707   3.775   9.064
 1612WAT     H2 5079   8.781   3.860   8.945
 1613WAT      O 5080   2.598   9.590   0.468
 1613WAT     H1 5081   2.549   9.677   0.459
 1613WAT     H2 5082   2.557   9.522   0.409
 1614WAT      O 5083   9.584   4.018   4.657
 1614WAT     H1 5084   9.492   4.053   4.641
 1614WAT     H2 5085   9.597   4.002   4.754
 1615WAT      O 5086   9.053   9.136   3.611
 1615WAT     H1 5087   9.092   9.055   3.569
 1615WAT     H2 5088   8.981   9.173   3.552
 1616WAT      O 5089   8.290   4.426   3.740
 1616WAT     H1 5090   8.294   4.458   3.645
 1616WAT     H2 5091   8.315   4.329   3.744
 1617WAT      O 5092   6.879   3.501   2.328
 1617WAT     H1 5093   6.976   3.525   2.336
 1617WAT     H2 5094   6.840   3.492   2.420
 1618WAT      O 5095   0.369   2.881   6.380
 1618WAT     H1 5096   0.357   2.957   6.444
 1618WAT     H2 5097   0.356   2.794   6.429
 1619WAT      O 5098   4.154   3.247   8.753
 1619WAT     H1 5099   4.074   3.274   8.699
 1619WAT     H2 5100   4.220   3.201   8.694
 1620WAT      O 5101   7.425   0.047   1.954
 1620WAT     H1 5102   7.504   0.005   1.910
 1620WAT     H2 5103   7.436   0.147   1.954
 1621WAT      O 5104   6.330   1.906   8.889
 1621WAT     H1 5105   6.339   2.000   8.855
 1621WAT     H2 5106   6.233   1.886   8.907
 1622WAT      O 5107   1.725   3.282   1.326
 1622WAT     H1 5108   1.758   3.213   1.389
 1622WAT     H2 5109   1.632   3.259   1.296
 1623WAT      O 5110   6.447   2.256   5.390
 1623WAT     H1 5111   6.476   2.206   5.309
 1623WAT     H2 5112   6.528   2.292   5.437
 1624WAT      O 5113   0.620   8.918   6.596
 1624WAT     H1 5114   0.544   8.855   6.586
 1624WAT     H2 5115   0.660   8.937   6.506
 1625WAT      O 5116   9.306   2.408   5.278
 1625WAT     H1 5117   9.303   2.348   5.198
 1625WAT     H2 5118   9.402   2.429   5.300
 1626WAT      O 5119   7.892   6.386   8.843
 1626WAT     H1 5120   7.817   6.451   8.859
 1626WAT     H2 5121   7.905   6.374   8.745
 1627WAT      O 5122   5.247   2.122   2.991
 1627WAT     H1 5123   5.149   2.144   2.993
 1627WAT     H2 5124   5.278   2.120   2.896
 1628WAT      O 5125   4.319   4.559   5.216
 1628WAT     H1 5126   4.224   4.589   5.206
 1628WAT     H2 5127   4.332   4.473   5.166
 1629WAT      O 5128   6.924   7.552   2.160
 1629WAT     H1 5129   6.862   7.531   2.084
 1629WAT     H2 5130   6.979   7.632   2.136
 1630WAT      O 5131   9.808   6.523   8.351
 1630WAT     H1 5132   9.789   6.432   8.315
 1630WAT     H2 5133   9.902   6.549   8.329
 1631WAT      O 5134   4.362   2.274   8.945
 1631WAT     H1 5135   4.384   2.185   8.907
 1631WAT     H2 5136   4.267   2.274   8.978
 1632WAT      O 5137   9.776   5.417   9.550
 1632WAT     H1 5138   9.873   5.415   9.526
 1632WAT     H2 5139   9.738   5.506   9.529
 1633WAT      O 5140   4.482   7.350   2.247
 1633WAT     H1 5141   4.442   7.353   2.156
 1633WAT     H2 5142   4.580   7.333   2.240
 1634WAT      O 5143   9.200   8.240   2.233
 1634WAT     H1 5144   9.123   8.254   2.171
 1634WAT     H2 5145   9.284   8.276   2.192
 1635WAT      O 5146   6.932   6.995   1.251
 1635WAT     H1 5147   6.988   7.077   1.259
 1635WAT     H2 5148   6.983   6.916   1.285
 1636WAT      O 5149   7.687   9.459   1.389
 1636WAT     H1 5150   7.761   9.413   1.340
 1636WAT     H2 5151   7.715   9.476   1.484
 1637WAT      O 5152   9.753   5.180   8.700
 1637WAT     H1 5153   9.811   5.119   8.646
 1637WAT     H2 5154   9.802   5.266   8.717
 1638WAT      O 5155   6.674   2.861   0.393
 1638WAT     H1 5156   6.737   2.934   0.420
 1638WAT     H2 5157   6.648   2.875   0.298
 1639WAT      O 5158   2.450   1.858   5.398
 1639WAT     H1 5159   2.454   1.762   5.373
 1639WAT     H2 5160   2.472   1.869   5.495
 1640WAT      O 5161   9.012   4.322   3.583
 1640WAT     H1 5162   8.933   4.381   3.601
 1640WAT     H2 5163   8.998   4.234   3.627
 1641WAT      O 5164   5.328   3.759   8.730
 1641WAT     H1 5165   5.305   3.722   8.640
 1641WAT     H2 5166   5.417   3.803   8.726
 1642WAT      O 5167   6.561   2.052   8.750
 1642WAT     H1 5168   6.555   2.063   8.849
 1642WAT     H2 5169   6.474   2.077   8.708
 1643WAT      O 5170   5.506   0.898   9.028
 1643WAT     H1 5171   5.437   0.827   9.042
 1643WAT     H2 5172   5.589   0.875   9.080
 1644WAT      O 5173   2.462   1.824   7.826
 1644WAT     H1 5174   2.545   1.879   7.834
 1644WAT     H2 5175   2.418   1.815   7.915
 1645WAT      O 5176   0.907   6.105   2.536
 1645WAT     H1 5177   0.918   6.154   2.622
 1645WAT     H2 5178   0.828   6.043   2.543
 1646WAT      O 5179   3.518   8.230   9.323
 1646WAT     H1 5180   3.611   8.266   9.331
 1646WAT     H2 5181   3.456   8.290   9.373
 1647WAT      O 5182   5.163   6.228   4.087
 1647WAT     H1 5183   5.238   6.235   4.021
 1647WAT     H2 5184   5.078   6.259   4.044
 1648WAT      O 5185   5.687   7.118   7.751
 1648WAT     H1 5186   5.650   7.174   7.825
 1648WAT     H2 5187   5.713   7.177   7.674
 1649WAT      O 5188   5.649   5.935   8.875
 1649WAT     H1 5189   5.685   5.968   8.962
 1649WAT     H2 5190   5.662   5.836   8.869
 1650WAT      O 5191   0.134   7.105   5.435
 1650WAT     H1 5192   0.212   7.168   5.435
 1650WAT     H2 5193   0.088   7.109   5.524
 1651WAT      O 5194   2.894   4.471   0.708
 1651WAT     H1 5195   2.891   4.551   0.647
 1651WAT     H2 5196   2.970   4.482   0.772
 1652WAT      O 5197   9.681   1.571   6.019
 1652WAT     H1 5198   9.708   1.593   5.925
 1652WAT     H2 5199   9.761   1.576   6.079
 1653WAT      O 5200   3.654   3.478   3.597
 1653WAT     H1 5201   3.589   3.435   3.533
 1653WAT     H2 5202   3.606   3.546   3.653
 1654WAT      O 5203   2.913   7.625   0.437
 1654WAT     H1 5204   2.957   7.612   0.526
 1654WAT     H2 5205   2.813   7.622   0.449
 1655WAT      O 5206   4.901   6.534   2.152
 1655WAT     H1 5207   4.895   6.550   2.251
 1655WAT     H2 5208   4.986   6.573   2.117
 1656WAT      O 5209   9.091   6.633   3.565
 1656WAT     H1 5210   9.061   6.601   3.655
 1656WAT     H2 5211   9.126   6.555   3.512
 1657WAT      O 5212   7.158   6.992   6.848
 1657WAT     H1 5213   7.104   7.028   6.924
 1657WAT     H2 5214   7.130   6.898   6.829
 1658WAT      O 5215   9.698   2.385   9.646
 1658WAT     H1 5216   9.759   2.464   9.635
 1658WAT     H2 5217   9.735   2.307   9.594
 1659WAT      O 5218   8.613   4.222   3.040
 1659WAT     H1 5219   8.688   4.198   2.978
 1659WAT     H2 5220   8.553   4.143   3.051
 1660WAT      O 5221   4.914   7.437   9.331
 1660WAT     H1 5222   4.986   7.446   9.262
 1660WAT     H2 5223   4.825   7.439   9.285
 1661WAT      O 5224   9.123   0.527   4.071
 1661WAT     H1 5225   9.210   0.522   4.121
 1661WAT     H2 5226   9.049   0.496   4.130
 1662WAT      O 5227   8.692   3.193   5.580
 1662WAT     H1 5228   8.766   3.242   5.534
 1662WAT     H2 5229   8.720   3.170   5.673
 1663WAT      O 5230   8.528   3.748   7.125
 1663WAT     H1 5231   8.602   3.810   7.152
 1663WAT     H2 5232   8.467   3.795   7.061
 1664WAT      O 5233   4.590   9.801   7.026
 1664WAT     H1 5234   4.602   9.714   6.977
 1664WAT     H2 5235   4.632   9.795   7.116
 1665WAT      O 5236   2.840   7.713   7.807
 1665WAT     H1 5237   2.766   7.727   7.873
 1665WAT     H2 5238   2.919   7.673   7.854
 1666WAT      O 5239   7.727   7.349   2.655
 1666WAT     H1 5240   7.717   7.447   2.637
 1666WAT     H2 5241   7.805   7.334   2.716
 1667WAT      O 5242   3.150   3.645   2.089
 1667WAT     H1 5243   3.162   3.546   2.094
 1667WAT     H2 5244   3.143   3.682   2.182
 1668WAT      O 5245   9.881   2.619   6.663
 1668WAT     H1 5246   9.974   2.624   6.698
 1668WAT     H2 5247   9.875   2.547   6.594
 1669WAT      O 5248   5.375   1.176   6.914
 1669WAT     H1 5249   5.475   1.183   6.921
 1669WAT     H2 5250   5.347   1.199   6.820
 1670WAT      O 5251   6.931   5.079   2.134
 1670WAT     H1 5252   6.835   5.087   2.109
 1670WAT     H2 5253   6.966   4.990   2.105
 1671WAT      O 5254   6.160   7.449   1.487
 1671WAT     H1 5255   6.067   7.458   1.453
 1671WAT     H2 5256   6.205   7.538   1.489
 1672WAT      O 5257   3.609   4.284   7.911
 1672WAT     H1 5258   3.703   4.274   7.942
 1672WAT     H2 5259   3.548   4.235   7.973
 1673WAT      O 5260   0.561   5.436   7.572
 1673WAT     H1 5261   0.639   5.498   7.565
 1673WAT     H2 5262   0.488   5.480   7.624
 1674WAT      O 5263   5.659   8.733   7.825
 1674WAT     H1 5264   5.728   8.665   7.846
 1674WAT     H2 5265   5.586   8.691   7.770
 1675WAT      O 5266   3.760   4.450   7.500
 1675WAT     H1 5267   3.749   4.502   7.416
 1675WAT     H2 5268   3.852   4.411   7.503
 1676WAT      O 5269   5.750   5.440   6.587
 1676WAT     H1 5270   5.728   5.343   6.582
 1676WAT     H2 5271   5.783   5.462   6.679
 1677WAT      O 5272   0.871   7.202   1.520
 1677WAT     H1 5273   0.899   7.152   1.438
 1677WAT     H2 5274   0.950   7.217   1.579
 1678WAT      O 5275   4.934   4.749   0.783
 1678WAT     H1 5276   4.937   4.707   0.692
 1678WAT     H2 5277   5.019   4.729   0.831
 1679WAT      O 5278   3.443   1.030   9.192
 1679WAT     H1 5279   3.532   1.005   9.231
 1679WAT     H2 5280   3.375   0.963   9.220
 1680WAT      O 5281   7.579   0.559   1.508
 1680WAT     H1 5282   7.550   0.647   1.546
 1680WAT     H2 5283   7.569   0.488   1.578
 1681WAT      O 5284   6.996   2.362   4.877
 1681WAT     H1 5285   6.994   2.460   4.896
 1681WAT     H2 5286   7.046   2.315   4.950
 1682WAT      O 5287   2.243   7.571   5.381
 1682WAT     H1 5288   2.205   7.652   5.425
 1682WAT     H2 5289   2.343   7.576   5.383
 1683WAT      O 5290   8.794   9.517   3.448
 1683WAT     H1 5291   8.822   9.511   3.544
 1683WAT     H2 5292   8.850   9.455   3.394
 1684WAT      O 5293   5.376   6.718   0.626
 1684WAT     H1 5294   5.410   6.631   0.591
 1684WAT     H2 5295   5.290   6.703   0.674
 1685WAT      O 5296   6.008   3.928   1.318
 1685WAT     H1 5297   6.089   3.909   1.372
 1685WAT     H2 5298   5.965   3.841   1.291
 1686WAT      O 5299   0.763   1.988   7.385
 1686WAT     H1 5300   0.747   2.077   7.343
 1686WAT     H2 5301   0.801   1.925   7.318
 1687WAT      O 5302   4.773   9.247   6.303
 1687WAT     H1 5303   4.800   9.151   6.303
 1687WAT     H2 5304   4.720   9.266   6.386
 1688WAT      O 5305   9.772   6.256   8.226
 1688WAT     H1 5306   9.850   6.196   8.242
 1688WAT     H2 5307   9.781   6.300   8.136
 1689WAT      O 5308   2.341   8.753   0.424
 1689WAT     H1 5309   2.363   8.812   0.346
 1689WAT     H2 5310   2.337   8.658   0.394
 1690WAT      O 5311   6.943   5.884   5.855
 1690WAT     H1 5312   7.028   5.848   5.893
 1690WAT     H2 5313   6.933   5.851   5.761
 1691WAT      O 5314   8.022   3.542   6.779
 1691WAT     H1 5315   7.978   3.488   6.851
 1691WAT     H2 5316   7.960   3.548   6.700
 1692WAT      O 5317   4.220   1.818   1.745
 1692WAT     H1 5318   4.277   1.823   1.663
 1692WAT     H2 5319   4.275   1.785   1.822
 1693WAT      O 5320   2.125   2.632   4.917
 1693WAT     H1 5321   2.219   2.602   4.926
 1693WAT     H2 5322   2.103   2.648   4.821
 1694WAT      O 5323   2.846   9.508   6.677
 1694WAT     H1 5324   2.804   9.551   6.757
 1694WAT     H2 5325   2.774   9.474   6.616
 1695WAT      O 5326   2.971   5.786   8.269
 1695WAT     H1 5327   2.932   5.738   8.347
 1695WAT     H2 5328   2.929   5.876   8.260
 1696WAT      O 5329   2.067   6.723   0.146
 1696WAT     H1 5330   2.004   6.647   0.160
 1696WAT     H2 5331   2.073   6.743   0.048
 1697WAT      O 5332   2.035   8.047   4.215
 1697WAT     H1 5333   2.061   8.126   4.159
 1697WAT     H2 5334   1.970   8.077   4.285
 1698WAT      O 5335   6.839   5.030   9.722
 1698WAT     H1 5336   6.829   4.944   9.772
 1698WAT     H2 5337   6.749   5.068   9.702
 1699WAT      O 5338   2.182   0.995   0.026
 1699WAT     H1 5339   2.156   0.996   0.123
 1699WAT     H2 5340   2.278   1.025   0.017
 1700WAT      O 5341   1.864   1.374   7.487
 1700WAT     H1 5342   1.820   1.306   7.428
 1700WAT     H2 5343   1.937   1.420   7.437
 1701WAT      O 5344   1.023   8.825   8.976
 1701WAT     H1 5345   1.029   8.851   8.880
 1701WAT     H2 5346   1.081   8.746   8.993
 1702WAT      O 5347   7.438   0.677   5.811
 1702WAT     H1 5348   7.534   0.686   5.787
 1702WAT     H2 5349   7.382   0.728   5.745
 1703WAT      O 5350   5.477   5.281   9.753
 1703WAT     H1 5351   5.568   5.264   9.715
 1703WAT     H2 5352   5.410   5.225   9.705
 1704WAT      O 5353   5.108   8.218   1.794
 1704WAT     H1 5354   5.099   8.140   1.732
 1704WAT     H2 5355   5.053   8.294   1.759
 1705WAT      O 5356   9.348   6.477   4.375
 1705WAT     H1 5357   9.300   6.532   4.443
 1705WAT     H2 5358   9.413   6.534   4.325
 1706WAT      O 5359   4.156   8.079   5.404
 1706WAT     H1 5360   4.102   8.132   5.339
 1706WAT     H2 5361   4.253   8.095   5.387
 1707WAT      O 5362   4.023   7.646   3.426
 1707WAT     H1 5363   3.927   7.639   3.401
 1707WAT     H2 5364   4.079   7.653   3.344
 1708WAT      O 5365   1.869   4.341   5.912
 1708WAT     H1 5366   1.792   4.401   5.897
 1708WAT     H2 5367   1.948   4.373   5.859
 1709WAT      O 5368   8.062   3.709   0.532
 1709WAT     H1 5369   8.038   3.650   0.609
 1709WAT     H2 5370   8.152   3.683   0.497
 1710WAT      O 5371   8.832   0.625   3.921
 1710WAT     H1 5372   8.907   0.690   3.930
 1710WAT     H2 5373   8.756   0.667   3.872
 1711WAT      O 5374   2.105   3.493   4.302
 1711WAT     H1 5375   2.173   3.550   4.255
 1711WAT     H2 5376   2.014   3.526   4.280
 1712WAT      O 5377   0.038   6.520   6.895
 1712WAT     H1 5378   0.084   6.569   6.821
 1712WAT     H2 5379   0.053   6.422   6.884
 1713WAT      O 5380   3.722   4.184   3.745
 1713WAT     H1 5381   3.804   4.127   3.749
 1713WAT     H2 5382   3.648   4.133   3.701
 1714WAT      O 5383   5.883   3.584   2.589
 1714WAT     H1 5384   5.797   3.634   2.580
 1714WAT     H2 5385   5.879   3.500   2.535
 1715WAT      O 5386   7.830   3.343   8.001
 1715WAT     H1 5387   7.902   3.316   8.065
 1715WAT     H2 5388   7.798   3.262   7.952
 1716WAT      O 5389   4.843   5.295   8.272
 1716WAT     H1 5390   4.903   5.300   8.352
 1716WAT     H2 5391   4.899   5.288   8.189
 1717WAT      O 5392   7.247   0.713   8.497
 1717WAT     H1 5393   7.209   0.648   8.431
 1717WAT     H2 5394   7.184   0.726   8.573
 1718WAT      O 5395   1.018   0.541   7.161
 1718WAT     H1 5396   0.990   0.550   7.066
 1718WAT     H2 5397   1.031   0.445   7.183
 1719WAT      O 5398   1.290   1.676   0.530
 1719WAT     H1 5399   1.370   1.736   0.536
 1719WAT     H2 5400   1.211   1.721   0.571
 1720WAT      O 5401   4.927   1.326   8.668
 1720WAT     H1 5402   4.996   1.311   8.740
 1720WAT     H2 5403   4.909   1.240   8.621
 1721WAT      O 5404   7.484   1.029   9.606
 1721WAT     H1 5405   7.472   0.979   9.519
 1721WAT     H2 5406   7.438   0.978   9.679
 1722WAT      O 5407   9.065   3.356   5.239
 1722WAT     H1 5408   9.105   3.268   5.264
 1722WAT     H2 5409   9.072   3.370   5.141
 1723WAT      O 5410   2.837   6.659   3.554
 1723WAT     H1 5411   2.803   6.753   3.550
 1723WAT     H2 5412   2.801   6.607   3.476
 1724WAT      O 5413   9.211   8.853   1.939
 1724WAT     H1 5414   9.294   8.855   1.994
 1724WAT     H2 5415   9.205   8.766   1.890
 1725WAT      O 5416   7.636   5.762   6.565
 1725WAT     H1 5417   7.718   5.804   6.527
 1725WAT     H2 5418   7.656   5.668   6.593
 1726WAT      O 5419   5.057   7.742   1.545
 1726WAT     H1 5420   4.966   7.773   1.571
 1726WAT     H2 5421   5.094   7.682   1.617
 1727WAT      O 5422   2.838   4.557   5.119
 1727WAT     H1 5423   2.796   4.471   5.091
 1727WAT     H2 5424   2.798   4.632   5.066
 1728WAT      O 5425   7.339   6.507   3.794
 1728WAT     H1 5426   7.244   6.536   3.780
 1728WAT     H2 5427   7.346   6.409   3.777
 1729WAT      O 5428   0.695   1.463   0.287
 1729WAT     H1 5429   0.608   1.505   0.313
 1729WAT     H2 5430   0.679   1.396   0.214
 1730WAT      O 5431   1.691   7.219   6.240
 1730WAT     H1 5432   1.776   7.236   6.289
 1730WAT     H2 5433   1.700   7.137   6.183
 1731WAT      O 5434   9.221   4.951   0.654
 1731WAT     H1 5435   9.306   4.946   0.707
 1731WAT     H2 5436   9.182   5.043   0.663
 1732WAT      O 5437   5.430   4.047   2.867
 1732WAT     H1 5438   5.389   4.117   2.809
 1732WAT     H2 5439   5.359   3.985   2.900
 1733WAT      O 5440   3.657   1.781   2.118
 1733WAT     H1 5441   3.656   1.858   2.182
 1733WAT     H2 5442   3.564   1.756   2.094
 1734WAT      O 5443   0.023   0.363   8.942
 1734WAT     H1 5444  -0.038   0.352   8.864
 1734WAT     H2 5445   0.111   0.397   8.910
 1735WAT      O 5446   2.776   6.422   2.957
 1735WAT     H1 5447   2.844   6.396   2.889
 1735WAT     H2 5448   2.810   6.499   3.010
 1736WAT      O 5449   8.015   6.109   1.505
 1736WAT     H1 5450   8.068   6.176   1.453
 1736WAT     H2 5451   7.969   6.047   1.442
 1737WAT      O 5452   6.843   5.718   9.663
 1737WAT     H1 5453   6.826   5.786   9.592
 1737WAT     H2 5454   6.914   5.655   9.633
 1738WAT      O 5455   4.555   3.906   7.934
 1738WAT     H1 5456   4.533   3.857   8.019
 1738WAT     H2 5457   4.566   3.840   7.860
 1739WAT      O 5458   6.540   7.673   7.078
 1739WAT     H1 5459   6.506   7.656   6.986
 1739WAT     H2 5460   6.474   7.639   7.145
 1740WAT      O 5461   4.887   4.240   7.255
 1740WAT     H1 5462   4.946   4.161   7.274
 1740WAT     H2 5463   4.805   4.235   7.311
 1741WAT      O 5464   5.171   9.650   5.338
 1741WAT     H1 5465   5.163   9.578   5.407
 1741WAT     H2 5466   5.109   9.725   5.361
 1742WAT      O 5467   2.502   6.294   0.391
 1742WAT     H1 5468   2.421   6.273   0.445
 1742WAT     H2 5469   2.583   6.259   0.438
 1743WAT      O 5470   2.509   9.791   9.482
 1743WAT     H1 5471   2.524   9.752   9.573
 1743WAT     H2 5472   2.596   9.823   9.444
 1744WAT      O 5473   4.238   0.906   5.836
 1744WAT     H1 5474   4.261   0.996   5.798
 1744WAT     H2 5475   4.226   0.840   5.762
 1745WAT      O 5476   3.524   7.537   2.835
 1745WAT     H1 5477   3.573   7.472   2.777
 1745WAT     H2 5478   3.555   7.528   2.930
 1746WAT      O 5479   0.286   8.270   9.875
 1746WAT     H1 5480   0.375   8.262   9.921
 1746WAT     H2 5481   0.287   8.214   9.792
 1747WAT      O 5482   8.937   1.836   0.754
 1747WAT     H1 5483   8.902   1.842   0.661
 1747WAT     H2 5484   8.904   1.753   0.797
 1748WAT      O 5485   2.812   3.836   6.722
 1748WAT     H1 5486   2.852   3.881   6.801
 1748WAT     H2 5487   2.884   3.802   6.663
 1749WAT      O 5488   6.646   5.667   6.355
 1749WAT     H1 5489   6.599   5.610   6.421
 1749WAT     H2 5490   6.655   5.618   6.268
 1750WAT      O 5491   9.536   8.327   7.732
 1750WAT     H1 5492   9.481   8.255   7.689
 1750WAT     H2 5493   9.491   8.415   7.720
 1751WAT      O 5494   3.483   0.871   2.019
 1751WAT     H1 5495   3.448   0.791   2.067
 1751WAT     H2 5496   3.483   0.950   2.080
 1752WAT      O 5497   4.407   0.924   3.908
 1752WAT     H1 5498   4.488   0.880   3.871
 1752WAT     H2 5499   4.386   1.006   3.854
 1753WAT      O 5500   2.909   0.190   9.476
 1753WAT     H1 5501   2.907   0.288   9.458
 1753WAT     H2 5502   2.833   0.146   9.428
 1754WAT      O 5503   6.149   6.003   8.266
 1754WAT     H1 5504   6.089   6.078   8.236
 1754WAT     H2 5505   6.236   6.041   8.298
 1755WAT      O 5506   2.860   5.701   8.508
 1755WAT     H1 5507   2.762   5.713   8.497
 1755WAT     H2 5508   2.883   5.697   8.605
 1756WAT      O 5509   7.824   5.340   4.313
 1756WAT     H1 5510   7.790   5.389   4.233
 1756WAT     H2 5511   7.783   5.379   4.396
 1757WAT      O 5512   3.372   8.868   0.558
 1757WAT     H1 5513   3.368   8.803   0.482
 1757WAT     H2 5514   3.280   8.902   0.578
 1758WAT      O 5515   2.866   4.426   4.370
 1758WAT     H1 5516   2.779   4.378   4.381
 1758WAT     H2 5517   2.853   4.524   4.389
 1759WAT      O 5518   9.699   1.546   0.323
 1759WAT     H1 5519   9.629   1.617   0.325
 1759WAT     H2 5520   9.754   1.551   0.407
 1760WAT      O 5521   6.000   3.274   7.532
 1760WAT     H1 5522   6.062   3.351   7.519
 1760WAT     H2 5523   5.940   3.265   7.453
 1761WAT      O 5524   6.494   2.649   4.307
 1761WAT     H1 5525   6.533   2.608   4.225
 1761WAT     H2 5526   6.538   2.611   4.388
 1762WAT      O 5527   1.287   0.672   6.289
 1762WAT     H1 5528   1.342   0.639   6.213
 1762WAT     H2 5529   1.193   0.684   6.260
 1763WAT      O 5530   5.287   7.503   4.582
 1763WAT     H1 5531   5.248   7.515   4.673
 1763WAT     H2 5532   5.320   7.592   4.548
 1764WAT      O 5533   2.980   6.357   9.380
 1764WAT     H1 5534   2.904   6.422   9.391
 1764WAT     H2 5535   3.064   6.398   9.416
 1765WAT      O 5536   3.451   2.571   9.245
 1765WAT     H1 5537   3.497   2.605   9.327
 1765WAT     H2 5538   3.463   2.636   9.170
 1766WAT      O 5539   9.750   0.945   1.043
 1766WAT     H1 5540   9.757   0.861   1.097
 1766WAT     H2 5541   9.663   0.991   1.063
 1767WAT      O 5542   9.701   1.217   3.309
 1767WAT     H1 5543   9.626   1.246   3.248
 1767WAT     H2 5544   9.676   1.132   3.354
 1768WAT      O 5545   6.768   7.510   5.296
 1768WAT     H1 5546   6.863   7.523   5.269
 1768WAT     H2 5547   6.710   7.502   5.215
 1769WAT      O 5548   2.402   4.206   6.704
 1769WAT     H1 5549   2.501   4.198   6.696
 1769WAT     H2 5550   2.372   4.165   6.790
 1770WAT      O 5551   2.824   3.671   8.546
 1770WAT     H1 5552   2.738   3.673   8.494
 1770WAT     H2 5553   2.895   3.719   8.494
 1771WAT      O 5554   6.478   1.835   7.715
 1771WAT     H1 5555   6.382   1.847   7.690
 1771WAT     H2 5556   6.535   1.896   7.659
 1772WAT      O 5557   3.842   2.638   9.569
 1772WAT     H1 5558   3.813   2.572   9.638
 1772WAT     H2 5559   3.904   2.705   9.612
 1773WAT      O 5560   4.910   4.035   7.820
 1773WAT     H1 5561   4.919   3.983   7.735
 1773WAT     H2 5562   4.885   4.129   7.798
 1774WAT      O 5563   8.619   1.077   7.300
 1774WAT     H1 5564   8.681   1.020   7.353
 1774WAT     H2 5565   8.627   1.172   7.329
 1775WAT      O 5566   2.873   9.090   3.455
 1775WAT     H1 5567   2.891   9.010   3.398
 1775WAT     H2 5568   2.894   9.173   3.403
 1776WAT      O 5569   8.712   2.499   7.270
 1776WAT     H1 5570   8.661   2.413   7.274
 1776WAT     H2 5571   8.672   2.565   7.334
 1777WAT      O 5572   6.134   0.174   1.507
 1777WAT     H1 5573   6.086   0.093   1.540
 1777WAT     H2 5574   6.206   0.146   1.443
 1778WAT      O 5575   4.044   5.086   7.649
 1778WAT     H1 5576   4.071   5.163   7.591
 1778WAT     H2 5577   4.120   5.021   7.656
 1779WAT      O 5578   1.426   6.769   6.467
 1779WAT     H1 5579   1.516   6.746   6.432
 1779WAT     H2 5580   1.398   6.859   6.432
 1780WAT      O 5581   5.804   6.457   6.682
 1780WAT     H1 5582   5.846   6.372   6.715
 1780WAT     H2 5583   5.876   6.518   6.649
 1781WAT      O 5584   2.835   0.336   2.848
 1781WAT     H1 5585   2.795   0.312   2.937
 1781WAT     H2 5586   2.912   0.398   2.862
 1782WAT      O 5587   0.081   6.598   4.598
 1782WAT     H1 5588   0.134   6.676   4.632
 1782WAT     H2 5589   0.134   6.552   4.526
 1783WAT      O 5590   2.553   1.406   3.599
 1783WAT     H1 5591   2.636   1.438   3.554
 1783WAT     H2 5592   2.477   1.468   3.578
 1784WAT      O 5593   8.933   6.764   2.646
 1784WAT     H1 5594   8.935   6.669   2.615
 1784WAT     H2 5595   8.847   6.807   2.618
 1785WAT      O 5596   9.679   6.140   6.308
 1785WAT     H1 5597   9.718   6.232   6.297
 1785WAT     H2 5598   9.604   6.128   6.242
 1786WAT      O 5599   4.247   2.581   1.035
 1786WAT     H1 5600   4.214   2.656   0.978
 1786WAT     H2 5601   4.169   2.527   1.067
 1787WAT      O 5602   0.010   9.383   0.062
 1787WAT     H1 5603   0.082   9.452   0.068
 1787WAT     H2 5604  -0.033   9.388  -0.028
 1788WAT      O 5605   0.801   1.393   6.442
 1788WAT     H1 5606   0.880   1.360   6.495
 1788WAT     H2 5607   0.742   1.447   6.501
 1789WAT      O 5608   8.931   1.117   7.273
 1789WAT     H1 5609   8.869   1.062   7.329
 1789WAT     H2 5610   9.000   1.160   7.332
 1790WAT      O 5611   1.536   2.787   6.325
 1790WAT     H1 5612   1.466   2.855   6.347
 1790WAT     H2 5613   1.534   2.767   6.227
 1791WAT      O 5614   3.046   6.327   7.858
 1791WAT     H1 5615   3.138   6.319   7.819
 1791WAT     H2 5616   3.045   6.287   7.949
 1792WAT      O 5617   8.518   9.050   3.291
 1792WAT     H1 5618   8.503   9.120   3.221
 1792WAT     H2 5619   8.489   9.086   3.380
 1793WAT      O 5620   9.089   1.143   6.542
 1793WAT     H1 5621   9.129   1.083   6.611
 1793WAT     H2 5622   9.162   1.189   6.491
 1794WAT      O 5623   9.131   7.878   1.877
 1794WAT     H1 5624   9.137   7.798   1.937
 1794WAT     H2 5625   9.191   7.950   1.912
 1795WAT      O 5626   8.586   9.541   2.258
 1795WAT     H1 5627   8.664   9.479   2.270
 1795WAT     H2 5628   8.530   9.540   2.341
 1796WAT      O 5629   6.596   4.492   0.783
 1796WAT     H1 5630   6.542   4.571   0.754
 1796WAT     H2 5631   6.539   4.428   0.834
 1797WAT      O 5632   9.801   8.349   6.397
 1797WAT     H1 5633   9.754   8.262   6.414
 1797WAT     H2 5634   9.736   8.424   6.411
 1798WAT      O 5635   4.829   0.663   7.759
 1798WAT     H1 5636   4.814   0.633   7.853
 1798WAT     H2 5637   4.901   0.732   7.756
 1799WAT      O 5638   5.152   0.612   1.843
 1799WAT     H1 5639   5.148   0.711   1.857
 1799WAT     H2 5640   5.243   0.579   1.868
 1800WAT      O 5641   7.458   8.078   4.767
 1800WAT     H1 5642   7.367   8.094   4.728
 1800WAT     H2 5643   7.523   8.059   4.694
 1801WAT      O 5644   4.197   6.387   1.613
 1801WAT     H1 5645   4.212   6.308   1.554
 1801WAT     H2 5646   4.143   6.455   1.563
 1802WAT      O 5647   5.843   6.026   6.693
 1802WAT     H1 5648   5.766   5.994   6.749
 1802WAT     H2 5649   5.811   6.044   6.600
 1803WAT      O 5650   9.571   2.032   1.301
 1803WAT     H1 5651   9.574   1.960   1.232
 1803WAT     H2 5652   9.564   1.990   1.392
 1804WAT      O 5653   9.164   4.368   6.047
 1804WAT     H1 5654   9.093   4.397   6.110
 1804WAT     H2 5655   9.181   4.270   6.058
 1805WAT      O 5656   8.063   9.266   7.231
 1805WAT     H1 5657   7.997   9.248   7.304
 1805WAT     H2 5658   8.069   9.186   7.172
 1806WAT      O 5659   8.654   7.513   2.725
 1806WAT     H1 5660   8.650   7.478   2.818
 1806WAT     H2 5661   8.569   7.491   2.677
 1807WAT      O 5662   6.610   0.207   5.180
 1807WAT     H1 5663   6.630   0.154   5.097
 1807WAT     H2 5664   6.579   0.146   5.253
 1808WAT      O 5665   9.206   0.202   5.294
 1808WAT     H1 5666   9.116   0.242   5.277
 1808WAT     H2 5667   9.198   0.128   5.360
 1809WAT      O 5668   4.212   6.487   0.637
 1809WAT     H1 5669   4.283   6.486   0.708
 1809WAT     H2 5670   4.256   6.484   0.547
 1810WAT      O 5671   3.537   6.230   1.207
 1810WAT     H1 5672   3.577   6.198   1.121
 1810WAT     H2 5673   3.534   6.155   1.273
 1811WAT      O 5674   9.822   7.890   6.252
 1811WAT     H1 5675   9.843   7.985   6.277
 1811WAT     H2 5676   9.769   7.847   6.325
 1812WAT      O 5677   9.550   1.282   7.160
 1812WAT     H1 5678   9.471   1.299   7.100
 1812WAT     H2 5679   9.556   1.355   7.228
 1813WAT      O 5680   7.556   1.607   4.307
 1813WAT     H1 5681   7.591   1.685   4.359
 1813WAT     H2 5682   7.458   1.596   4.325
 1814WAT      O 5683   4.902   6.592   3.467
 1814WAT     H1 5684   4.999   6.589   3.492
 1814WAT     H2 5685   4.846   6.580   3.549
 1815WAT      O 5686   4.165   6.824   0.824
 1815WAT     H1 5687   4.134   6.763   0.896
 1815WAT     H2 5688   4.122   6.914   0.835
 1816WAT      O 5689   9.534   8.468   3.390
 1816WAT     H1 5690   9.515   8.416   3.307
 1816WAT     H2 5691   9.543   8.565   3.369
 1817WAT      O 5692   1.241   2.124   0.822
 1817WAT     H1 5693   1.250   2.048   0.758
 1817WAT     H2 5694   1.147   2.159   0.819
 1818WAT      O 5695   6.775   3.432   4.650
 1818WAT     H1 5696   6.874   3.432   4.640
 1818WAT     H2 5697   6.738   3.520   4.619
 1819WAT      O 5698   5.945   3.512   7.184
 1819WAT     H1 5699   6.016   3.577   7.155
 1819WAT     H2 5700   5.896   3.550   7.262
 1820WAT      O 5701   8.163   1.691   7.148
 1820WAT     H1 5702   8.080   1.718   7.100
 1820WAT     H2 5703   8.189   1.762   7.213
 1821WAT      O 5704   6.133   9.172   1.870
 1821WAT     H1 5705   6.154   9.076   1.888
 1821WAT     H2 5706   6.033   9.184   1.868
 1822WAT      O 5707   6.404   2.828   6.970
 1822WAT     H1 5708   6.427   2.734   6.996
 1822WAT     H2 5709   6.404   2.886   7.052
 1823WAT      O 5710   1.913   4.874   2.856
 1823WAT     H1 5711   1.917   4.948   2.924
 1823WAT     H2 5712   1.980   4.891   2.784
 1824WAT      O 5713   3.621   0.989   3.181
 1824WAT     H1 5714   3.564   0.982   3.099
 1824WAT     H2 5715   3.581   0.934   3.254
 1825WAT      O 5716   9.045   6.717   6.028
 1825WAT     H1 5717   9.075   6.623   6.010
 1825WAT     H2 5718   8.947   6.724   6.012
 1826WAT      O 5719   4.383   6.454   7.315
 1826WAT     H1 5720   4.414   6.543   7.349
 1826WAT     H2 5721   4.321   6.469   7.238
 1827WAT      O 5722   3.836   9.501   2.464
 1827WAT     H1 5723   3.906   9.570   2.483
 1827WAT     H2 5724   3.745   9.538   2.482
 1828WAT      O 5725   9.756   4.500   3.689
 1828WAT     H1 5726   9.683   4.479   3.754
 1828WAT     H2 5727   9.750   4.439   3.610
 1829WAT      O 5728   1.690   7.316   6.791
 1829WAT     H1 5729   1.695   7.256   6.870
 1829WAT     H2 5730   1.767   7.297   6.730
 1830WAT      O 5731   1.993   0.794   4.836
 1830WAT     H1 5732   2.017   0.697   4.837
 1830WAT     H2 5733   2.062   0.846   4.785
 1831WAT      O 5734   5.041   9.214   8.089
 1831WAT     H1 5735   5.115   9.281   8.084
 1831WAT     H2 5736   4.967   9.250   8.145
 1832WAT      O 5737   2.531   3.366   2.438
 1832WAT     H1 5738   2.468   3.383   2.362
 1832WAT     H2 5739   2.589   3.287   2.417
 1833WAT      O 5740   1.086   7.387   9.847
 1833WAT     H1 5741   1.020   7.368   9.774
 1833WAT     H2 5742   1.081   7.316   9.916
 1834WAT      O 5743   9.593   2.640   8.624
 1834WAT     H1 5744   9.613   2.737   8.640
 1834WAT     H2 5745   9.579   2.625   8.526
 1835WAT      O 5746   5.798   4.266   1.448
 1835WAT     H1 5747   5.837   4.191   1.501
 1835WAT     H2 5748   5.714   4.298   1.492
 1836WAT      O 5749   1.392   8.639   5.528
 1836WAT     H1 5750   1.335   8.718   5.505
 1836WAT     H2 5751   1.334   8.563   5.557
 1837WAT      O 5752   3.499   0.445   1.014
 1837WAT     H1 5753   3.537   0.534   1.042
 1837WAT     H2 5754   3.514   0.431   0.916
 1838WAT      O 5755   5.916   4.040   1.562
 1838WAT     H1 5756   5.959   4.024   1.473
 1838WAT     H2 5757   5.904   3.953   1.609
 1839WAT      O 5758   5.594   3.866   0.057
 1839WAT     H1 5759   5.495   3.876   0.067
 1839WAT     H2 5760   5.620   3.880  -0.038
 1840WAT      O 5761   6.608   0.318   3.797
 1840WAT     H1 5762   6.580   0.249   3.730
 1840WAT     H2 5763   6.527   0.356   3.842
 1841WAT      O 5764   2.587   5.861   1.569
 1841WAT     H1 5765   2.537   5.788   1.615
 1841WAT     H2 5766   2.680   5.867   1.607
 1842WAT      O 5767   3.467   0.156   2.350
 1842WAT     H1 5768   3.388   0.138   2.290
 1842WAT     H2 5769   3.485   0.075   2.406
 1843WAT      O 5770   9.259   1.800   5.335
 1843WAT     H1 5771   9.268   1.737   5.413
 1843WAT     H2 5772   9.217   1.753   5.258
 1844WAT      O 5773   0.075   3.624   4.328
 1844WAT     H1 5774   0.147   3.650   4.391
 1844WAT     H2 5775   0.007   3.697   4.322
 1845WAT      O 5776   9.269   5.339   4.089
 1845WAT     H1 5777   9.270   5.350   4.189
 1845WAT     H2 5778   9.247   5.427   4.047
 1846WAT      O 5779   7.692   2.801   8.803
 1846WAT     H1 5780   7.683   2.739   8.880
 1846WAT     H2 5781   7.758   2.873   8.825
 1847WAT      O 5782   6.204   3.846   1.051
 1847WAT     H1 5783   6.178   3.942   1.045
 1847WAT     H2 5784   6.133   3.790   1.007
 1848WAT      O 5785   8.305   2.496   7.208
 1848WAT     H1 5786   8.221   2.444   7.194
 1848WAT     H2 5787   8.377   2.461   7.147
 1849WAT      O 5788   5.848   1.400   9.496
 1849WAT     H1 5789   5.864   1.313   9.543
 1849WAT     H2 5790   5.817   1.382   9.403
 1850WAT      O 5791   3.087   2.986   9.199
 1850WAT     H1 5792   3.006   3.044   9.192
 1850WAT     H2 5793   3.167   3.043   9.220
 1851WAT      O 5794   1.670   9.601   4.228
 1851WAT     H1 5795   1.603   9.671   4.202
 1851WAT     H2 5796   1.641   9.512   4.193
 1852WAT      O 5797   2.415   8.737   4.850
 1852WAT     H1 5798   2.505   8.754   4.809
 1852WAT     H2 5799   2.383   8.820   4.897
 1853WAT      O 5800   7.818   2.885   2.018
 1853WAT     H1 5801   7.793   2.920   2.109
 1853WAT     H2 5802   7.874   2.953   1.971
 1854WAT      O 5803   2.505   2.035   5.964
 1854WAT     H1 5804   2.467   1.953   6.005
 1854WAT     H2 5805   2.449   2.064   5.886
 1855WAT      O 5806   3.476   7.466   1.781
 1855WAT     H1 5807   3.565   7.493   1.743
 1855WAT     H2 5808   3.403   7.511   1.731
 1856WAT      O 5809   6.403   9.757   7.956
 1856WAT     H1 5810   6.421   9.661   7.936
 1856WAT     H2 5811   6.323   9.787   7.905
 1857WAT      O 5812   8.392   5.465   3.500
 1857WAT     H1 5813   8.442   5.519   3.568
 1857WAT     H2 5814   8.457   5.419   3.440
 1858WAT      O 5815   0.789   0.779   9.140
 1858WAT     H1 5816   0.886   0.780   9.113
 1858WAT     H2 5817   0.782   0.756   9.237
 1859WAT      O 5818   9.775   0.334   0.526
 1859WAT     H1 5819   9.769   0.294   0.618
 1859WAT     H2 5820   9.690   0.316   0.477
 1860WAT      O 5821   6.506   5.693   4.815
 1860WAT     H1 5822   6.538   5.691   4.910
 1860WAT     H2 5823   6.480   5.786   4.790
 1861WAT      O 5824   3.979   8.489   5.818
 1861WAT     H1 5825   3.988   8.483   5.718
 1861WAT     H2 5826   3.883   8.503   5.842
 1862WAT      O 5827   0.536   8.544   7.611
 1862WAT     H1 5828   0.503   8.631   7.648
 1862WAT     H2 5829   0.474   8.512   7.539
 1863WAT      O 5830   6.172   4.779   7.456
 1863WAT     H1 5831   6.270   4.799   7.458
 1863WAT     H2 5832   6.144   4.759   7.362
 1864WAT      O 5833   2.228   6.906   4.607
 1864WAT     H1 5834   2.242   6.973   4.533
 1864WAT     H2 5835   2.297   6.921   4.678
 1865WAT      O 5836   0.744   3.307   7.970
 1865WAT     H1 5837   0.784   3.365   8.041
 1865WAT     H2 5838   0.648   3.332   7.957
 1866WAT      O 5839   7.537   1.019   5.882
 1866WAT     H1 5840   7.460   1.002   5.945
 1866WAT     H2 5841   7.607   0.949   5.896
 1867WAT      O 5842   2.472   5.263   7.044
 1867WAT     H1 5843   2.393   5.323   7.056
 1867WAT     H2 5844   2.543   5.287   7.111
 1868WAT      O 5845   4.397   0.178   2.373
 1868WAT     H1 5846   4.381   0.089   2.332
 1868WAT     H2 5847   4.427   0.242   2.302
 1869WAT      O 5848   4.222   5.784   8.756
 1869WAT     H1 5849   4.250   5.715   8.822
 1869WAT     H2 5850   4.162   5.850   8.801
 1870WAT      O 5851   0.239   4.807   0.991
 1870WAT     H1 5852   0.269   4.848   0.905
 1870WAT     H2 5853   0.153   4.849   1.019
 1871WAT      O 5854   7.119   9.366   8.678
 1871WAT     H1 5855   7.166   9.388   8.764
 1871WAT     H2 5856   7.172   9.299   8.627
 1872WAT      O 5857   7.647   3.654   6.735
 1872WAT     H1 5858   7.614   3.673   6.828
 1872WAT     H2 5859   7.721   3.717   6.713
 1873WAT      O 5860   0.764   2.229   0.128
 1873WAT     H1 5861   0.692   2.282   0.173
 1873WAT     H2 5862   0.850   2.279   0.134
 1874WAT      O 5863   6.436   3.254   2.887
 1874WAT     H1 5864   6.371   3.319   2.926
 1874WAT     H2 5865   6.529   3.289   2.898
 1875WAT      O 5866   8.103   8.443   6.459
 1875WAT     H1 5867   8.159   8.403   6.531
 1875WAT     H2 5868   8.107   8.542   6.465
 1876WAT      O 5869   2.954   2.441   7.475
 1876WAT     H1 5870   2.886   2.397   7.534
 1876WAT     H2 5871   2.914   2.457   7.385
 1877WAT      O 5872   6.855   1.315   7.468
 1877WAT     H1 5873   6.768   1.363   7.458
 1877WAT     H2 5874   6.848   1.224   7.428
 1878WAT      O 5875   8.974   7.055   2.688
 1878WAT     H1 5876   8.961   6.958   2.665
 1878WAT     H2 5877   8.886   7.102   2.682
 1879WAT      O 5878   2.614   5.200   8.933
 1879WAT     H1 5879   2.675   5.254   8.874
 1879WAT     H2 5880   2.669   5.155   9.004
 1880WAT      O 5881   6.106   5.494   5.821
 1880WAT     H1 5882   6.141   5.461   5.733
 1880WAT     H2 5883   6.182   5.518   5.881
 1881WAT      O 5884   6.907   8.846   1.211
 1881WAT     H1 5885   6.956   8.768   1.172
 1881WAT     H2 5886   6.957   8.930   1.190
 1882WAT      O 5887   0.461   3.159   4.072
 1882WAT     H1 5888   0.411   3.090   4.020
 1882WAT     H2 5889   0.400   3.235   4.092
 1883WAT      O 5890   3.162   4.071   4.741
 1883WAT     H1 5891   3.200   4.064   4.833
 1883WAT     H2 5892   3.218   4.134   4.687
 1884WAT      O 5893   5.846   3.829   1.715
 1884WAT     H1 5894   5.879   3.839   1.809
 1884WAT     H2 5895   5.901   3.760   1.667
 1885WAT      O 5896   5.303   7.819   6.409
 1885WAT     H1 5897   5.234   7.781   6.470
 1885WAT     H2 5898   5.303   7.768   6.323
 1886WAT      O 5899   0.336   3.075   1.810
 1886WAT     H1 5900   0.345   3.094   1.907
 1886WAT     H2 5901   0.323   2.977   1.796
 1887WAT      O 5902   0.166   5.046   3.618
 1887WAT     H1 5903   0.126   5.112   3.681
 1887WAT     H2 5904   0.260   5.072   3.598
 1888WAT      O 5905   7.811   3.873   1.716
 1888WAT     H1 5906   7.833   3.802   1.783
 1888WAT     H2 5907   7.741   3.838   1.654
 1889WAT      O 5908   0.506   3.583   1.154
 1889WAT     H1 5909   0.475   3.678   1.150
 1889WAT     H2 5910   0.588   3.573   1.098
 1890WAT      O 5911   4.757   1.124   2.877
 1890WAT     H1 5912   4.848   1.164   2.864
 1890WAT     H2 5913   4.703   1.139   2.794
 1891WAT      O 5914   4.325   7.774   3.380
 1891WAT     H1 5915   4.265   7.731   3.313
 1891WAT     H2 5916   4.330   7.716   3.461
 1892WAT      O 5917   6.407   1.574   7.333
 1892WAT     H1 5918   6.432   1.656   7.281
 1892WAT     H2 5919   6.352   1.601   7.412
 1893WAT      O 5920   1.243   9.185   2.153
 1893WAT     H1 5921   1.146   9.210   2.154
 1893WAT     H2 5922   1.293   9.251   2.096
 1894WAT      O 5923   6.628   6.306   0.429
 1894WAT     H1 5924   6.647   6.210   0.406
 1894WAT     H2 5925   6.601   6.312   0.525
 1895WAT      O 5926   7.070   2.863   4.968
 1895WAT     H1 5927   7.144   2.809   5.006
 1895WAT     H2 5928   7.058   2.947   5.022
 1896WAT      O 5929   1.300   3.537   5.701
 1896WAT     H1 5930   1.366   3.493   5.762
 1896WAT     H2 5931   1.334   3.535   5.607
 1897WAT      O 5932   5.780   1.596   8.172
 1897WAT     H1 5933   5.718   1.518   8.167
 1897WAT     H2 5934   5.775   1.635   8.264
 1898WAT      O 5935   5.984   3.566   5.913
 1898WAT     H1 5936   6.063   3.520   5.954
 1898WAT     H2 5937   5.963   3.649   5.964
 1899WAT      O 5938   5.211   0.549   9.748
 1899WAT     H1 5939   5.283   0.571   9.684
 1899WAT     H2 5940   5.232   0.588   9.838
 1900WAT      O 5941   8.344   2.426   0.869
 1900WAT     H1 5942   8.434   2.431   0.912
 1900WAT     H2 5943   8.273   2.437   0.939
 1901WAT      O 5944   2.127   7.862   0.574
 1901WAT     H1 5945   2.113   7.771   0.612
 1901WAT     H2 5946   2.180   7.855   0.490
 1902WAT      O 5947   9.681   3.840   8.815
 1902WAT     H1 5948   9.583   3.846   8.834
 1902WAT     H2 5949   9.714   3.928   8.781
 1903WAT      O 5950   8.427   0.518   1.912
 1903WAT     H1 5951   8.355   0.478   1.969
 1903WAT     H2 5952   8.450   0.453   1.839
 1904WAT      O 5953   6.219   0.432   1.623
 1904WAT     H1 5954   6.189   0.359   1.561
 1904WAT     H2 5955   6.297   0.400   1.676
 1905WAT      O 5956   9.247   7.751   6.378
 1905WAT     H1 5957   9.190   7.670   6.372
 1905WAT     H2 5958   9.280   7.777   6.287
 1906WAT      O 5959   3.475   2.732   2.305
 1906WAT     H1 5960   3.496   2.823   2.270
 1906WAT     H2 5961   3.464   2.668   2.228
 1907WAT      O 5962   7.132   3.020   9.248
 1907WAT     H1 5963   7.137   3.005   9.347
 1907WAT     H2 5964   7.206   3.081   9.219
 1908WAT      O 5965   2.119   0.672   3.357
 1908WAT     H1 5966   2.120   0.728   3.274
 1908WAT     H2 5967   2.213   0.648   3.381
 1909WAT      O 5968   5.121   0.025   7.168
 1909WAT     H1 5969   5.081  -0.034   7.099
 1909WAT     H2 5970   5.063   0.026   7.249
 1910WAT      O 5971   4.268   8.662   5.577
 1910WAT     H1 5972   4.234   8.717   5.654
 1910WAT     H2 5973   4.347   8.610   5.607
 1911WAT      O 5974   6.436   7.052   5.001
 1911WAT     H1 5975   6.495   7.080   5.076
 1911WAT     H2 5976   6.340   7.064   5.028
 1912WAT      O 5977   4.394   5.564   3.120
 1912WAT     H1 5978   4.420   5.619   3.041
 1912WAT     H2 5979   4.310   5.514   3.100
 1913WAT      O 5980   0.646   9.401   7.116
 1913WAT     H1 5981   0.711   9.423   7.189
 1913WAT     H2 5982   0.553   9.416   7.149
 1914WAT      O 5983   0.464   9.836   2.569
 1914WAT     H1 5984   0.382   9.890   2.584
 1914WAT     H2 5985   0.443   9.758   2.510
 1915WAT      O 5986   0.497   8.630   3.572
 1915WAT     H1 5987   0.578   8.584   3.537
 1915WAT     H2 5988   0.510   8.649   3.670
 1916WAT      O 5989   2.122   5.639   2.787
 1916WAT     H1 5990   2.098   5.555   2.836
 1916WAT     H2 5991   2.044   5.702   2.789
 1917WAT      O 5992   2.675   6.994   1.524
 1917WAT     H1 5993   2.641   6.990   1.430
 1917WAT     H2 5994   2.603   6.964   1.587
 1918WAT      O 5995   6.288   5.869   3.863
 1918WAT     H1 5996   6.346   5.794   3.894
 1918WAT     H2 5997   6.316   5.898   3.772
 1919WAT      O 5998   7.014   6.197   7.816
 1919WAT     H1 5999   7.088   6.157   7.868
 1919WAT     H2 6000   7.051   6.245   7.737
 1920WAT      O 6001   7.727   9.772   1.602
 1920WAT     H1 6002   7.686   9.815   1.521
 1920WAT     H2 6003   7.779   9.692   1.573
 1921WAT      O 6004   3.227   2.227   1.758
 1921WAT     H1 6005   3.241   2.168   1.837
 1921WAT     H2 6006   3.231   2.323   1.787
 1922WAT      O 6007   4.728   3.686   1.173
 1922WAT     H1 6008   4.659   3.615   1.188
 1922WAT     H2 6009   4.819   3.648   1.189
 1923WAT      O 6010   3.180   7.482   2.998
 1923WAT     H1 6011   3.259   7.544   2.991
 1923WAT     H2 6012   3.206   7.392   2.963
 1924WAT      O 6013   1.332   1.380   5.433
 1924WAT     H1 6014   1.401   1.449   5.454
 1924WAT     H2 6015   1.377   1.297   5.399
 1925WAT      O 6016   6.139   5.608   0.905
 1925WAT     H1 6017   6.104   5.578   0.994
 1925WAT     H2 6018   6.205   5.681   0.919
 1926WAT      O 6019   2.086   4.676   9.138
 1926WAT     H1 6020   2.127   4.679   9.047
 1926WAT     H2 6021   2.153   4.705   9.206
 1927WAT      O 6022   3.766   1.662   8.053
 1927WAT     H1 6023   3.857   1.669   8.011
 1927WAT     H2 6024   3.737   1.566   8.053
 1928WAT      O 6025   6.710   3.188   3.319
 1928WAT     H1 6026   6.763   3.222   3.397
 1928WAT     H2 6027   6.769   3.134   3.259
 1929WAT      O 6028   3.202   9.357   6.026
 1929WAT     H1 6029   3.124   9.354   6.089
 1929WAT     H2 6030   3.274   9.297   6.060
 1930WAT      O 6031   0.272   0.204   7.240
 1930WAT     H1 6032   0.178   0.168   7.242
 1930WAT     H2 6033   0.315   0.189   7.328
 1931WAT      O 6034   2.234   1.879   9.876
 1931WAT     H1 6035   2.223   1.831   9.789
 1931WAT     H2 6036   2.325   1.921   9.880
 1932WAT      O 6037   1.611   0.114   9.310
 1932WAT     H1 6038   1.549   0.132   9.386
 1932WAT     H2 6039   1.673   0.039   9.335
 1933WAT      O 6040   7.210   4.772   1.601
 1933WAT     H1 6041   7.131   4.762   1.661
 1933WAT     H2 6042   7.283   4.820   1.649
 1934WAT      O 6043   3.377   4.968   1.982
 1934WAT     H1 6044   3.359   5.037   2.053
 1934WAT     H2 6045   3.434   4.896   2.021
 1935WAT      O 6046   2.983   4.854   1.592
 1935WAT     H1 6047   3.061   4.795   1.611
 1935WAT     H2 6048   2.904   4.798   1.568
 1936WAT      O 6049   8.303   9.002   7.899
 1936WAT     H1 6050   8.222   8.984   7.956
 1936WAT     H2 6051   8.329   9.098   7.908
 1937WAT      O 6052   3.868   2.124   0.380
 1937WAT     H1 6053   3.935   2.064   0.336
 1937WAT     H2 6054   3.777   2.085   0.372
 1938WAT      O 6055   6.599   8.248   2.505
 1938WAT     H1 6056   6.662   8.236   2.583
 1938WAT     H2 6057   6.590   8.160   2.458
 1939WAT      O 6058   3.647   1.582   7.263
 1939WAT     H1 6059   3.588   1.655   7.296
 1939WAT     H2 6060   3.596   1.525   7.198
 1940WAT      O 6061   3.470   3.385   6.002
 1940WAT     H1 6062   3.482   3.448   5.926
 1940WAT     H2 6063   3.559   3.353   6.033
 1941WAT      O 6064   5.840   5.392   6.217
 1941WAT     H1 6065   5.854   5.381   6.315
 1941WAT     H2 6066   5.754   5.349   6.190
 1942WAT      O 6067   6.651   3.515   9.085
 1942WAT     H1 6068   6.630   3.483   9.177
 1942WAT     H2 6069   6.702   3.444   9.036
 1943WAT      O 6070   8.394   4.010   5.844
 1943WAT     H1 6071   8.473   4.002   5.905
 1943WAT     H2 6072   8.410   3.954   5.762
 1944WAT      O 6073   5.184   7.676   1.774
 1944WAT     H1 6074   5.184   7.580   1.803
 1944WAT     H2 6075   5.269   7.719   1.803
 1945WAT      O 6076   9.628   5.887   6.265
 1945WAT     H1 6077   9.589   5.833   6.340
 1945WAT     H2 6078   9.652   5.978   6.298
 1946WAT      O 6079   1.078   9.591   7.717
 1946WAT     H1 6080   1.154   9.636   7.764
 1946WAT     H2 6081   1.001   9.581   7.780
 1947WAT      O 6082   6.986   6.020   1.251
 1947WAT     H1 6083   6.896   6.058   1.276
 1947WAT     H2 6084   6.976   5.923   1.227
 1948WAT      O 6085   4.360   5.682   5.359
 1948WAT     H1 6086   4.420   5.649   5.285
 1948WAT     H2 6087   4.290   5.742   5.321
 1949WAT      O 6088   9.780   6.097   2.433
 1949WAT     H1 6089   9.813   6.097   2.339
 1949WAT     H2 6090   9.857   6.087   2.496
 1950WAT      O 6091   8.310   4.021   4.881
 1950WAT     H1 6092   8.326   4.001   4.978
 1950WAT     H2 6093   8.383   3.980   4.826
 1951WAT      O 6094   9.712   4.402   4.575
 1951WAT     H1 6095   9.640   4.459   4.615
 1951WAT     H2 6096   9.795   4.409   4.630
 1952WAT      O 6097   2.546   5.358   9.217
 1952WAT     H1 6098   2.585   5.441   9.255
 1952WAT     H2 6099   2.618   5.302   9.177
 1953WAT      O 6100   4.634   5.283   0.894
 1953WAT     H1 6101   4.733   5.301   0.891
 1953WAT     H2 6102   4.596   5.290   0.802
 1954WAT      O 6103   3.919   3.498   8.907
 1954WAT     H1 6104   3.827   3.460   8.920
 1954WAT     H2 6105   3.965   3.503   8.995
 1955WAT      O 6106   1.640   7.558   4.433
 1955WAT     H1 6107   1.665   7.461   4.429
 1955WAT     H2 6108   1.542   7.567   4.448
 1956WAT      O 6109   7.256   0.706   8.951
 1956WAT     H1 6110   7.257   0.629   8.888
 1956WAT     H2 6111   7.292   0.787   8.906
 1957WAT      O 6112   8.663   3.691   3.715
 1957WAT     H1 6113   8.758   3.721   3.699
 1957WAT     H2 6114   8.644   3.611   3.657
 1958WAT      O 6115   3.175   9.681   9.020
 1958WAT     H1 6116   3.192   9.684   8.921
 1958WAT     H2 6117   3.241   9.620   9.063
 1959WAT      O 6118   3.125   6.984   3.516
 1959WAT     H1 6119   3.193   6.968   3.443
 1959WAT     H2 6120   3.067   7.061   3.490
 1960WAT      O 6121   7.030   5.699   4.999
 1960WAT     H1 6122   7.093   5.750   5.057
 1960WAT     H2 6123   7.082   5.641   4.936
 1961WAT      O 6124   5.540   8.713   3.722
 1961WAT     H1 6125   5.490   8.797   3.741
 1961WAT     H2 6126   5.613   8.731   3.656
 1962WAT      O 6127   1.460   9.610   0.235
 1962WAT     H1 6128   1.459   9.521   0.190
 1962WAT     H2 6129   1.369   9.652   0.229
 1963WAT      O 6130   8.053   7.486   6.911
 1963WAT     H1 6131   8.075   7.427   6.833
 1963WAT     H2 6132   8.112   7.567   6.909
 1964WAT      O 6133   8.016   5.715   4.118
 1964WAT     H1 6134   8.049   5.765   4.038
 1964WAT     H2 6135   8.017   5.617   4.099
 1965WAT      O 6136   1.269   3.774   5.365
 1965WAT     H1 6137   1.176   3.777   5.330
 1965WAT     H2 6138   1.269   3.795   5.463
 1966WAT      O 6139   7.701   8.747   6.580
 1966WAT     H1 6140   7.684   8.651   6.559
 1966WAT     H2 6141   7.774   8.754   6.648
 1967WAT      O 6142   2.719   5.014   4.588
 1967WAT     H1 6143   2.772   5.098   4.583
 1967WAT     H2 6144   2.746   4.952   4.514
 1968WAT      O 6145   6.469   0.761   7.440
 1968WAT     H1 6146   6.554   0.738   7.487
 1968WAT     H2 6147   6.483   0.757   7.341
 1969WAT      O 6148   8.532   2.781   8.073
 1969WAT     H1 6149   8.496   2.868   8.039
 1969WAT     H2 6150   8.458   2.730   8.118
 1970WAT      O 6151   8.390   5.775   2.213
 1970WAT     H1 6152   8.430   5.861   2.243
 1970WAT     H2 6153   8.454   5.700   2.231
 1971WAT      O 6154   3.374   2.834   0.936
 1971WAT     H1 6155   3.277   2.813   0.923
 1971WAT     H2 6156   3.385   2.892   1.017
 1972WAT      O 6157   1.018   6.810   0.340
 1972WAT     H1 6158   1.039   6.815   0.437
 1972WAT     H2 6159   0.996   6.716   0.315
 1973WAT      O 6160   8.569   2.629   0.162
 1973WAT     H1 6161   8.476   2.665   0.158
 1973WAT     H2 6162   8.621   2.664   0.084
 1974WAT      O 6163   7.518   3.964   4.368
 1974WAT     H1 6164   7.461   3.962   4.451
 1974WAT     H2 6165   7.586   4.036   4.377
 1975WAT      O 6166   0.167   3.530   6.399
 1975WAT     H1 6167   0.247   3.551   6.343
 1975WAT     H2 6168   0.105   3.608   6.398
 1976WAT      O 6169   1.283   2.818   4.214
 1976WAT     H1 6170   1.265   2.861   4.126
 1976WAT     H2 6171   1.300   2.888   4.283
 1977WAT      O 6172   0.404   4.571   5.344
 1977WAT     H1 6173   0.341   4.630   5.394
 1977WAT     H2 6174   0.426   4.612   5.256
 1978WAT      O 6175   2.250   2.970   3.202
 1978WAT     H1 6176   2.335   2.934   3.241
 1978WAT     H2 6177   2.270   3.018   3.116
 1979WAT      O 6178   7.665   3.129   2.886
 1979WAT     H1 6179   7.668   3.216   2.837
 1979WAT     H2 6180   7.742   3.073   2.858
 1980WAT      O 6181   3.483   9.802   2.028
 1980WAT     H1 6182   3.485   9.796   1.928
 1980WAT     H2 6183   3.416   9.870   2.056
 1981WAT      O 6184   0.569   4.415   1.840
 1981WAT     H1 6185   0.599   4.486   1.776
 1981WAT     H2 6186   0.482   4.377   1.809
 1982WAT      O 6187   6.907   5.952   5.299
 1982WAT     H1 6188   6.908   5.926   5.395
 1982WAT     H2 6189   6.995   5.994   5.275
 1983WAT      O 6190   3.351   5.517   4.844
 1983WAT     H1 6191   3.382   5.606   4.880
 1983WAT     H2 6192   3.259   5.527   4.805
 1984WAT      O 6193   2.480   8.305   6.894
 1984WAT     H1 6194   2.440   8.226   6.941
 1984WAT     H2 6195   2.494   8.282   6.798
 1985WAT      O 6196   2.421   8.117   0.100
 1985WAT     H1 6197   2.398   8.023   0.076
 1985WAT     H2 6198   2.509   8.118   0.147
 1986WAT      O 6199   5.238   9.704   4.451
 1986WAT     H1 6200   5.213   9.801   4.456
 1986WAT     H2 6201   5.301   9.690   4.374
 1987WAT      O 6202   2.289   9.289   2.403
 1987WAT     H1 6203   2.290   9.389   2.408
 1987WAT     H2 6204   2.248   9.260   2.316
 1988WAT      O 6205   7.519   9.364   3.241
 1988WAT     H1 6206   7.565   9.428   3.304
 1988WAT     H2 6207   7.583   9.291   3.217
 1989WAT      O 6208   2.157   3.079   9.207
 1989WAT     H1 6209   2.168   2.982   9.226
 1989WAT     H2 6210   2.242   3.127   9.231
 1990WAT      O 6211   1.364   2.188   2.633
 1990WAT     H1 6212   1.404   2.096   2.641
 1990WAT     H2 6213   1.308   2.207   2.714
 1991WAT      O 6214   3.379   0.472   6.521
 1991WAT     H1 6215   3.340   0.513   6.603
 1991WAT     H2 6216   3.307   0.457   6.453
 1992WAT      O 6217   0.185   4.108   5.280
 1992WAT     H1 6218   0.114   4.093   5.211
 1992WAT     H2 6219   0.153   4.073   5.368
 1993WAT      O 6220   8.445   7.799   0.136
 1993WAT     H1 6221   8.474   7.830   0.227
 1993WAT     H2 6222   8.377   7.726   0.146
 1994WAT      O 6223   7.565   0.801   8.288
 1994WAT     H1 6224   7.537   0.887   8.329
 1994WAT     H2 6225   7.569   0.730   8.359
 1995WAT      O 6226   7.440   6.041   0.661
 1995WAT     H1 6227   7.480   5.971   0.720
 1995WAT     H2 6228   7.381   6.101   0.716
 1996WAT      O 6229   6.877   2.229   2.389
 1996WAT     H1 6230   6.873   2.326   2.363
 1996WAT     H2 6231   6.900   2.174   2.309
 1997WAT      O 6232   4.380   2.125   8.158
 1997WAT     H1 6233   4.429   2.191   8.099
 1997WAT     H2 6234   4.446   2.061   8.197
 1998WAT      O 6235   1.830   2.026   3.872
 1998WAT     H1 6236   1.836   1.933   3.836
 1998WAT     H2 6237   1.923   2.061   3.885
 1999WAT      O 6238   7.445   2.472   5.235
 1999WAT     H1 6239   7.438   2.569   5.259
 1999WAT     H2 6240   7.412   2.458   5.142
 2000WAT      O 6241   9.676   3.432   2.207
 2000WAT     H1 6242   9.647   3.468   2.119
 2000WAT     H2 6243   9.598   3.431   2.270
 2001WAT      O 6244   2.591   2.359   7.901
 2001WAT     H1 6245   2.547   2.362   7.811
 2001WAT     H2 6246   2.609   2.453   7.932
 2002WAT      O 6247   5.702   0.158   6.753
 2002WAT     H1 6248   5.720   0.215   6.674
 2002WAT     H2 6249   5.653   0.076   6.725
 2003WAT      O 6250   6.733   5.079   8.453
 2003WAT     H1 6251   6.762   5.160   8.402
 2003WAT     H2 6252   6.686   5.016   8.391
 2004WAT      O 6253   4.094   7.053   6.418
 2004WAT     H1 6254   4.075   7.049   6.320
 2004WAT     H2 6255   4.184   7.014   6.436
 2005WAT      O 6256   1.813   2.543   4.785
 2005WAT     H1 6257   1.899   2.582   4.752
 2005WAT     H2 6258   1.736   2.589   4.741
 2006WAT      O 6259   9.013   8.755   6.486
 2006WAT     H1 6260   8.998   8.848   6.453
 2006WAT     H2 6261   8.961   8.740   6.570
 2007WAT      O 6262   6.155   8.927   0.948
 2007WAT     H1 6263   6.241   8.934   0.897
 2007WAT     H2 6264   6.078   8.941   0.886
 2008WAT      O 6265   0.264   4.344   3.950
 2008WAT     H1 6266   0.193   4.409   3.921
 2008WAT     H2 6267   0.222   4.256   3.969
 2009WAT      O 6268   6.319   6.744   1.782
 2009WAT     H1 6269   6.278   6.657   1.753
 2009WAT     H2 6270   6.272   6.777   1.864
 2010WAT      O 6271   8.640   9.140   5.995
 2010WAT     H1 6272   8.625   9.087   5.912
 2010WAT     H2 6273   8.554   9.180   6.026
 2011WAT      O 6274   9.183   0.597   2.504
 2011WAT     H1 6275   9.220   0.660   2.436
 2011WAT     H2 6276   9.091   0.625   2.530
 2012WAT      O 6277   1.168   8.423   9.110
 2012WAT     H1 6278   1.197   8.355   9.042
 2012WAT     H2 6279   1.185   8.514   9.074
 2013WAT      O 6280   3.446   3.970   2.198
 2013WAT     H1 6281   3.446   4.068   2.221
 2013WAT     H2 6282   3.513   3.953   2.126
 2014WAT      O 6283   4.969   3.824   5.228
 2014WAT     H1 6284   4.906   3.772   5.285
 2014WAT     H2 6285   5.041   3.764   5.194
 2015WAT      O 6286   1.953   1.189   2.528
 2015WAT     H1 6287   1.991   1.167   2.617
 2015WAT     H2 6288   2.025   1.226   2.469
 2016WAT      O 6289   9.447   1.421   9.360
 2016WAT     H1 6290   9.524   1.484   9.367
 2016WAT     H2 6291   9.380   1.458   9.296
 2017WAT      O 6292   2.532   3.198   0.871
 2017WAT     H1 6293   2.614   3.146   0.845
 2017WAT     H2 6294   2.453   3.160   0.822
 2018WAT      O 6295   1.285   8.266   2.747
 2018WAT     H1 6296   1.227   8.191   2.716
 2018WAT     H2 6297   1.268   8.284   2.844
 2019WAT      O 6298   3.567   3.748   0.568
 2019WAT     H1 6299   3.626   3.800   0.507
 2019WAT     H2 6300   3.564   3.794   0.658
 2020WAT      O 6301   1.916   2.121   5.674
 2020WAT     H1 6302   1.865   2.198   5.637
 2020WAT     H2 6303   2.000   2.154   5.719
 2021WAT      O 6304   8.177   7.002   8.604
 2021WAT     H1 6305   8.211   7.073   8.666
 2021WAT     H2 6306   8.130   7.045   8.527
 2022WAT      O 6307   0.164   8.894   5.085
 2022WAT     H1 6308   0.224   8.827   5.041
 2022WAT     H2 6309   0.153   8.972   5.024
 2023WAT      O 6310   0.638   4.887   9.009
 2023WAT     H1 6311   0.644   4.962   9.074
 2023WAT     H2 6312   0.717   4.889   8.947
 2024WAT      O 6313   1.149   5.216   1.786
 2024WAT     H1 6314   1.155   5.192   1.689
 2024WAT     H2 6315   1.227   5.176   1.835
 2025WAT      O 6316   6.088   8.982   6.556
 2025WAT     H1 6317   6.174   8.977   6.608
 2025WAT     H2 6318   6.022   8.919   6.594
 2026WAT      O 6319   9.423   1.772   5.680
 2026WAT     H1 6320   9.417   1.859   5.632
 2026WAT     H2 6321   9.397   1.698   5.618
 2027WAT      O 6322   0.528   1.540   5.895
 2027WAT     H1 6323   0.620   1.577   5.908
 2027WAT     H2 6324   0.478   1.543   5.982
 2028WAT      O 6325   1.732   5.427   5.065
 2028WAT     H1 6326   1.782   5.361   5.121
 2028WAT     H2 6327   1.732   5.397   4.970
 2029WAT      O 6328   1.652   4.682   6.215
 2029WAT     H1 6329   1.647   4.780   6.194
 2029WAT     H2 6330   1.562   4.641   6.203
 2030WAT      O 6331   4.074   0.336   2.120
 2030WAT     H1 6332   4.072   0.421   2.068
 2030WAT     H2 6333   4.046   0.261   2.061
 2031WAT      O 6334   2.879   3.696   6.166
 2031WAT     H1 6335   2.800   3.695   6.227
 2031WAT     H2 6336   2.848   3.701   6.071
 2032WAT      O 6337   0.806   3.122   2.320
 2032WAT     H1 6338   0.762   3.147   2.234
 2032WAT     H2 6339   0.850   3.203   2.360
 2033WAT      O 6340   7.671   6.327   8.624
 2033WAT     H1 6341   7.748   6.269   8.600
 2033WAT     H2 6342   7.647   6.313   8.720
 2034WAT      O 6343   0.133   7.608   4.783
 2034WAT     H1 6344   0.063   7.619   4.855
 2034WAT     H2 6345   0.128   7.516   4.745
 2035WAT      O 6346   3.792   6.363   7.851
 2035WAT     H1 6347   3.721   6.408   7.905
 2035WAT     H2 6348   3.771   6.266   7.842
 2036WAT      O 6349   1.704   3.629   6.660
 2036WAT     H1 6350   1.696   3.573   6.577
 2036WAT     H2 6351   1.617   3.677   6.675
 2037WAT      O 6352   6.712   7.308   3.294
 2037WAT     H1 6353   6.683   7.338   3.204
 2037WAT     H2 6354   6.742   7.212   3.289
 2038WAT      O 6355   3.445   1.977   4.907
 2038WAT     H1 6356   3.485   2.068   4.901
 2038WAT     H2 6357   3.497   1.922   4.972
 2039WAT      O 6358   4.308   5.323   6.985
 2039WAT     H1 6359   4.220   5.371   6.992
 2039WAT     H2 6360   4.302   5.254   6.912
 2040WAT      O 6361   8.318   3.066   6.712
 2040WAT     H1 6362   8.260   3.059   6.794
 2040WAT     H2 6363   8.383   3.141   6.723
 2041WAT      O 6364   1.275   4.508   2.925
 2041WAT     H1 6365   1.186   4.464   2.941
 2041WAT     H2 6366   1.331   4.449   2.867
 2042WAT      O 6367   3.375   8.947   5.855
 2042WAT     H1 6368   3.454   8.999   5.889
 2042WAT     H2 6369   3.349   8.879   5.922
 2043WAT      O 6370   4.769   6.236   8.669
 2043WAT     H1 6371   4.761   6.304   8.596
 2043WAT     H2 6372   4.863   6.235   8.704
 2044WAT      O 6373   5.823   2.795   5.226
 2044WAT     H1 6374   5.761   2.749   5.162
 2044WAT     H2 6375   5.897   2.839   5.175
 2045WAT      O 6376   2.877   8.034   3.387
 2045WAT     H1 6377   2.908   7.942   3.362
 2045WAT     H2 6378   2.849   8.084   3.305
 2046WAT      O 6379   7.695   2.908   8.347
 2046WAT     H1 6380   7.695   2.933   8.251
 2046WAT     H2 6381   7.616   2.850   8.367
 2047WAT      O 6382   7.439   0.789   4.436
 2047WAT     H1 6383   7.399   0.759   4.349
 2047WAT     H2 6384   7.533   0.757   4.443
 2048WAT      O 6385   3.296   2.254   5.482
 2048WAT     H1 6386   3.313   2.333   5.540
 2048WAT     H2 6387   3.229   2.277   5.412
 2049WAT      O 6388   5.197   3.315   1.942
 2049WAT     H1 6389   5.198   3.216   1.956
 2049WAT     H2 6390   5.182   3.335   1.845
 2050WAT      O 6391   9.049   8.982   0.293
 2050WAT     H1 6392   9.129   9.039   0.311
 2050WAT     H2 6393   8.988   8.985   0.372
 2051WAT      O 6394   3.784   7.376   5.352
 2051WAT     H1 6395   3.830   7.291   5.327
 2051WAT     H2 6396   3.735   7.364   5.439
 2052WAT      O 6397   5.124   7.132   4.247
 2052WAT     H1 6398   5.200   7.192   4.274
 2052WAT     H2 6399   5.160   7.051   4.201
 2053WAT      O 6400   1.148   8.663   1.092
 2053WAT     H1 6401   1.186   8.642   1.002
 2053WAT     H2 6402   1.064   8.611   1.106
 2054WAT      O 6403   4.575   3.132   8.112
 2054WAT     H1 6404   4.622   3.089   8.035
 2054WAT     H2 6405   4.638   3.193   8.161
 2055WAT      O 6406   4.346   8.918   5.098
 2055WAT     H1 6407   4.281   8.933   5.173
 2055WAT     H2 6408   4.369   8.820   5.093
 2056WAT      O 6409   6.097   1.202   6.688
 2056WAT     H1 6410   6.125   1.146   6.765
 2056WAT     H2 6411   6.158   1.184   6.610
 2057WAT      O 6412   1.929   7.602   3.532
 2057WAT     H1 6413   1.939   7.700   3.544
 2057WAT     H2 6414   1.835   7.581   3.507
 2058WAT      O 6415   2.328   3.447   3.722
 2058WAT     H1 6416   2.321   3.381   3.647
 2058WAT     H2 6417   2.413   3.498   3.713
 2059WAT      O 6418   4.695   2.806   1.145
 2059WAT     H1 6419   4.707   2.806   1.046
 2059WAT     H2 6420   4.611   2.757   1.168
 2060WAT      O 6421   4.923   4.824   9.254
 2060WAT     H1 6422   4.926   4.774   9.341
 2060WAT     H2 6423   4.829   4.823   9.218
 2061WAT      O 6424   7.478   0.892   1.210
 2061WAT     H1 6425   7.558   0.888   1.150
 2061WAT     H2 6426   7.457   0.800   1.243
 2062WAT      O 6427   5.599   4.063   3.618
 2062WAT     H1 6428   5.592   4.063   3.518
 2062WAT     H2 6429   5.686   4.024   3.646
 2063WAT      O 6430   4.536   0.773   3.628
 2063WAT     H1 6431   4.567   0.732   3.542
 2063WAT     H2 6432   4.479   0.852   3.609
 2064WAT      O 6433   4.535   7.355   0.380
 2064WAT     H1 6434   4.439   7.335   0.397
 2064WAT     H2 6435   4.543   7.429   0.313
 2065WAT      O 6436   4.639   7.994   7.581
 2065WAT     H1 6437   4.598   8.058   7.646
 2065WAT     H2 6438   4.576   7.980   7.505
 2066WAT      O 6439   6.783   1.162   7.033
 2066WAT     H1 6440   6.856   1.147   6.966
 2066WAT     H2 6441   6.800   1.248   7.082
 2067WAT      O 6442   6.678   5.707   9.135
 2067WAT     H1 6443   6.579   5.710   9.153
 2067WAT     H2 6444   6.695   5.651   9.055
 2068WAT      O 6445   3.626   1.545   4.443
 2068WAT     H1 6446   3.576   1.525   4.528
 2068WAT     H2 6447   3.699   1.610   4.462
 2069WAT      O 6448   0.961   2.393   0.213
 2069WAT     H1 6449   0.963   2.478   0.265
 2069WAT     H2 6450   1.033   2.332   0.245
 2070WAT      O 6451   1.582   4.960   7.153
 2070WAT     H1 6452   1.570   4.875   7.102
 2070WAT     H2 6453   1.622   5.029   7.092
 2071WAT      O 6454   4.801   7.090   0.993
 2071WAT     H1 6455   4.787   7.003   0.946
 2071WAT     H2 6456   4.712   7.132   1.010
 2072WAT      O 6457   5.664   9.736   0.231
 2072WAT     H1 6458   5.612   9.662   0.274
 2072WAT     H2 6459   5.689   9.803   0.301
 2073WAT      O 6460   9.803   2.464   6.221
 2073WAT     H1 6461   9.834   2.451   6.315
 2073WAT     H2 6462   9.780   2.560   6.206
 2074WAT      O 6463   5.596   3.224   2.941
 2074WAT     H1 6464   5.682   3.251   2.983
 2074WAT     H2 6465   5.588   3.124   2.944
 2075WAT      O 6466   3.061   9.391   8.548
 2075WAT     H1 6467   3.040   9.352   8.638
 2075WAT     H2 6468   3.155   9.427   8.548
 2076WAT      O 6469   6.457   5.953   4.776
 2076WAT     H1 6470   6.358   5.961   4.787
 2076WAT     H2 6471   6.484   5.992   4.688
 2077WAT      O 6472   6.971   0.401   9.081
 2077WAT     H1 6473   7.026   0.363   9.155
 2077WAT     H2 6474   7.023   0.471   9.033
 2078WAT      O 6475   3.747   6.202   7.468
 2078WAT     H1 6476   3.758   6.114   7.516
 2078WAT     H2 6477   3.700   6.186   7.381
 2079WAT      O 6478   2.743   7.801   2.593
 2079WAT     H1 6479   2.770   7.705   2.588
 2079WAT     H2 6480   2.659   7.809   2.647
 2080WAT      O 6481   3.425   0.751   2.704
 2080WAT     H1 6482   3.467   0.694   2.633
 2080WAT     H2 6483   3.454   0.719   2.794
 2081WAT      O 6484   2.632   7.573   1.883
 2081WAT     H1 6485   2.545   7.549   1.842
 2081WAT     H2 6486   2.617   7.628   1.965
 2082WAT      O 6487   1.672   3.532   5.563
 2082WAT     H1 6488   1.734   3.521   5.486
 2082WAT     H2 6489   1.705   3.478   5.641
 2083WAT      O 6490   4.076   3.893   1.091
 2083WAT     H1 6491   4.088   3.903   1.189
 2083WAT     H2 6492   4.020   3.812   1.072
 2084WAT      O 6493   9.364   2.747   8.417
 2084WAT     H1 6494   9.268   2.724   8.434
 2084WAT     H2 6495   9.397   2.808   8.489
 2085WAT      O 6496   1.293   3.885   9.805
 2085WAT     H1 6497   1.230   3.864   9.879
 2085WAT     H2 6498   1.387   3.880   9.839
 2086WAT      O 6499   1.006   6.123   5.359
 2086WAT     H1 6500   1.012   6.036   5.407
 2086WAT     H2 6501   1.007   6.198   5.426
 2087WAT      O 6502   2.007   7.476   5.256
 2087WAT     H1 6503   1.930   7.484   5.319
 2087WAT     H2 6504   2.089   7.515   5.298
 2088WAT      O 6505   0.753   2.066   4.302
 2088WAT     H1 6506   0.673   2.087   4.246
 2088WAT     H2 6507   0.825   2.133   4.284
 2089WAT      O 6508   3.298   4.381   0.775
 2089WAT     H1 6509   3.255   4.308   0.722
 2089WAT     H2 6510   3.227   4.440   0.813
 2090WAT      O 6511   7.448   2.810   2.199
 2090WAT     H1 6512   7.473   2.896   2.154
 2090WAT     H2 6513   7.521   2.743   2.185
 2091WAT      O 6514   6.164   9.718   2.841
 2091WAT     H1 6515   6.126   9.801   2.801
 2091WAT     H2 6516   6.158   9.723   2.940
 2092WAT      O 6517   1.108   7.083   7.883
 2092WAT     H1 6518   1.194   7.135   7.889
 2092WAT     H2 6519   1.044   7.117   7.952
 2093WAT      O 6520   8.471   0.218   0.249
 2093WAT     H1 6521   8.545   0.230   0.315
 2093WAT     H2 6522   8.384   0.207   0.298
 2094WAT      O 6523   5.002   1.574   2.111
 2094WAT     H1 6524   4.947   1.612   2.037
 2094WAT     H2 6525   5.001   1.636   2.189
 2095WAT      O 6526   5.687   0.895   0.083
 2095WAT     H1 6527   5.752   0.820   0.093
 2095WAT     H2 6528   5.611   0.865   0.025
 2096WAT      O 6529   2.731   6.243   9.534
 2096WAT     H1 6530   2.781   6.157   9.546
 2096WAT     H2 6531   2.696   6.249   9.441
 2097WAT      O 6532   3.303   2.855   2.493
 2097WAT     H1 6533   3.353   2.817   2.415
 2097WAT     H2 6534   3.217   2.805   2.506
 2098WAT      O 6535   6.537   3.726   7.232
 2098WAT     H1 6536   6.609   3.717   7.302
 2098WAT     H2 6537   6.556   3.805   7.174
 2099WAT      O 6538   1.866   1.233   1.255
 2099WAT     H1 6539   1.785   1.228   1.197
 2099WAT     H2 6540   1.840   1.269   1.345
 2100WAT      O 6541   6.498   8.993   5.424
 2100WAT     H1 6542   6.425   9.001   5.357
 2100WAT     H2 6543   6.459   8.973   5.514
 2101WAT      O 6544   3.018   3.012   6.261
 2101WAT     H1 6545   3.033   3.106   6.292
 2101WAT     H2 6546   3.076   2.950   6.313
 2102WAT      O 6547   2.100   2.454   8.646
 2102WAT     H1 6548   2.070   2.404   8.564
 2102WAT     H2 6549   2.198   2.476   8.638
 2103WAT      O 6550   0.036   5.987   3.705
 2103WAT     H1 6551  -0.027   6.062   3.726
 2103WAT     H2 6552  -0.012   5.918   3.651
 2104WAT      O 6553   2.062   9.524   7.302
 2104WAT     H1 6554   2.126   9.598   7.282
 2104WAT     H2 6555   2.038   9.526   7.399
 2105WAT      O 6556   2.283   7.040   6.733
 2105WAT     H1 6557   2.333   6.961   6.699
 2105WAT     H2 6558   2.199   7.051   6.680
 2106WAT      O 6559   5.450   5.039   0.712
 2106WAT     H1 6560   5.532   5.096   0.699
 2106WAT     H2 6561   5.411   5.017   0.623
 2107WAT      O 6562   4.304   1.381   2.145
 2107WAT     H1 6563   4.398   1.347   2.137
 2107WAT     H2 6564   4.296   1.438   2.226
 2108WAT      O 6565   1.797   4.214   0.207
 2108WAT     H1 6566   1.808   4.274   0.286
 2108WAT     H2 6567   1.790   4.119   0.237
 2109WAT      O 6568   9.239   3.397   8.519
 2109WAT     H1 6569   9.140   3.385   8.531
 2109WAT     H2 6570   9.258   3.423   8.424
 2110WAT      O 6571   4.842   2.105   1.438
 2110WAT     H1 6572   4.748   2.092   1.409
 2110WAT     H2 6573   4.891   2.018   1.433
 2111WAT      O 6574   0.353   3.064   6.577
 2111WAT     H1 6575   0.293   3.121   6.522
 2111WAT     H2 6576   0.435   3.116   6.602
 2112WAT      O 6577   6.340   4.510   8.296
 2112WAT     H1 6578   6.335   4.411   8.287
 2112WAT     H2 6579   6.273   4.552   8.234
 2113WAT      O 6580   6.445   4.817   1.425
 2113WAT     H1 6581   6.379   4.745   1.405
 2113WAT     H2 6582   6.404   4.907   1.408
 2114WAT      O 6583   0.016   2.408   6.474
 2114WAT     H1 6584   0.091   2.345   6.454
 2114WAT     H2 6585  -0.066   2.356   6.496
 2115WAT      O 6586   2.435   1.422   8.382
 2115WAT     H1 6587   2.400   1.392   8.470
 2115WAT     H2 6588   2.522   1.378   8.363
 2116WAT      O 6589   5.684   5.909   4.271
 2116WAT     H1 6590   5.677   6.001   4.309
 2116WAT     H2 6591   5.599   5.885   4.225
 2117WAT      O 6592   1.248   2.978   2.234
 2117WAT     H1 6593   1.162   2.990   2.285
 2117WAT     H2 6594   1.298   3.064   2.232
 2118WAT      O 6595   1.132   3.544   1.667
 2118WAT     H1 6596   1.067   3.468   1.662
 2118WAT     H2 6597   1.205   3.530   1.601
 2119WAT      O 6598   5.940   6.246   1.701
 2119WAT     H1 6599   5.983   6.194   1.627
 2119WAT     H2 6600   6.011   6.287   1.759
 2120WAT      O 6601   6.488   2.802   0.594
 2120WAT     H1 6602   6.505   2.704   0.584
 2120WAT     H2 6603   6.506   2.848   0.508
 2121WAT      O 6604   6.073   2.093   6.095
 2121WAT     H1 6605   6.123   2.107   6.180
 2121WAT     H2 6606   5.998   2.029   6.111
 2122WAT      O 6607   5.948   1.735   7.292
 2122WAT     H1 6608   6.002   1.819   7.293
 2122WAT     H2 6609   5.882   1.736   7.367
 2123WAT      O 6610   5.734   3.753   4.138
 2123WAT     H1 6611   5.722   3.833   4.197
 2123WAT     H2 6612   5.788   3.684   4.187
 2124WAT      O 6613   1.893   8.888   8.779
 2124WAT     H1 6614   1.861   8.972   8.824
 2124WAT     H2 6615   1.988   8.900   8.751
 2125WAT      O 6616   6.999   0.158   3.014
 2125WAT     H1 6617   6.977   0.066   2.982
 2125WAT     H2 6618   7.091   0.183   2.982
 2126WAT      O 6619   0.181   6.899   8.930
 2126WAT     H1 6620   0.184   6.990   8.973
 2126WAT     H2 6621   0.220   6.832   8.992
 2127WAT      O 6622   5.370   1.091   2.884
 2127WAT     H1 6623   5.416   1.011   2.923
 2127WAT     H2 6624   5.280   1.064   2.850
 2128WAT      O 6625   9.283   9.379   7.681
 2128WAT     H1 6626   9.229   9.301   7.714
 2128WAT     H2 6627   9.306   9.439   7.757
 2129WAT      O 6628   8.421   5.058   2.016
 2129WAT     H1 6629   8.443   5.011   2.101
 2129WAT     H2 6630   8.322   5.070   2.009
 2130WAT      O 6631   9.461   3.685   9.453
 2130WAT     H1 6632   9.433   3.594   9.484
 2130WAT     H2 6633   9.422   3.754   9.513
 2131WAT      O 6634   4.470   0.043   7.613
 2131WAT     H1 6635   4.542  -0.001   7.560
 2131WAT     H2 6636   4.509   0.115   7.670
 2132WAT      O 6637   4.694   5.418   2.011
 2132WAT     H1 6638   4.680   5.366   2.095
 2132WAT     H2 6639   4.616   5.479   1.996
 2133WAT      O 6640   8.844   3.227   6.561
 2133WAT     H1 6641   8.838   3.220   6.661
 2133WAT     H2 6642   8.920   3.287   6.536
 2134WAT      O 6643   8.510   2.373   5.331
 2134WAT     H1 6644   8.527   2.331   5.421
 2134WAT     H2 6645   8.441   2.445   5.341
 2135WAT      O 6646   4.220   1.390   9.115
 2135WAT     H1 6647   4.297   1.329   9.135
 2135WAT     H2 6648   4.232   1.429   9.024
 2136WAT      O 6649   4.165   2.479   6.624
 2136WAT     H1 6650   4.081   2.533   6.617
 2136WAT     H2 6651   4.244   2.537   6.605
 2137WAT      O 6652   1.979   7.690   1.446
 2137WAT     H1 6653   1.958   7.764   1.510
 2137WAT     H2 6654   2.078   7.677   1.442
 2138WAT      O 6655   0.872   7.074   7.449
 2138WAT     H1 6656   0.935   6.998   7.464
 2138WAT     H2 6657   0.924   7.157   7.429
 2139WAT      O 6658   9.610   0.113   1.122
 2139WAT     H1 6659   9.565   0.121   1.032
 2139WAT     H2 6660   9.565   0.041   1.175
 2140WAT      O 6661   6.461   0.834   5.594
 2140WAT     H1 6662   6.401   0.755   5.595
 2140WAT     H2 6663   6.414   0.913   5.634
 2141WAT      O 6664   5.800   2.064   1.583
 2141WAT     H1 6665   5.729   2.076   1.514
 2141WAT     H2 6666   5.834   2.154   1.611
 2142WAT      O 6667   1.862   6.513   1.503
 2142WAT     H1 6668   1.765   6.510   1.525
 2142WAT     H2 6669   1.912   6.452   1.566
 2143WAT      O 6670   6.454   8.311   7.947
 2143WAT     H1 6671   6.417   8.403   7.936
 2143WAT     H2 6672   6.527   8.312   8.016
 2144WAT      O 6673   4.585   2.617   5.694
 2144WAT     H1 6674   4.492   2.597   5.724
 2144WAT     H2 6675   4.649   2.551   5.734
 2145WAT      O 6676   4.741   5.059   5.609
 2145WAT     H1 6677   4.667   4.997   5.581
 2145WAT     H2 6678   4.811   5.007   5.658
 2146WAT      O 6679   3.683   3.432   4.195
 2146WAT     H1 6680   3.655   3.408   4.102
 2146WAT     H2 6681   3.771   3.480   4.192
 2147WAT      O 6682   3.644   8.076   8.489
 2147WAT     H1 6683   3.672   8.004   8.425
 2147WAT     H2 6684   3.569   8.043   8.546
 2148WAT      O 6685   6.151   2.923   6.927
 2148WAT     H1 6686   6.242   2.888   6.908
 2148WAT     H2 6687   6.104   2.862   6.991
 2149WAT      O 6688   7.312   8.482   5.975
 2149WAT     H1 6689   7.387   8.425   6.009
 2149WAT     H2 6690   7.287   8.452   5.882
 2150WAT      O 6691   0.450   7.403   7.656
 2150WAT     H1 6692   0.366   7.353   7.638
 2150WAT     H2 6693   0.529   7.346   7.633
 2151WAT      O 6694   1.357   4.154   5.304
 2151WAT     H1 6695   1.432   4.130   5.243
 2151WAT     H2 6696   1.355   4.253   5.317
 2152WAT      O 6697   5.355   1.963   7.053
 2152WAT     H1 6698   5.360   1.932   7.149
 2152WAT     H2 6699   5.278   2.026   7.042
 2153WAT      O 6700   8.143   9.662   5.670
 2153WAT     H1 6701   8.064   9.655   5.610
 2153WAT     H2 6702   8.159   9.758   5.693
 2154WAT      O 6703   3.433   5.954   7.526
 2154WAT     H1 6704   3.464   5.990   7.438
 2154WAT     H2 6705   3.427   5.854   7.520
 2155WAT      O 6706   7.629   8.871   2.475
 2155WAT     H1 6707   7.671   8.914   2.554
 2155WAT     H2 6708   7.701   8.837   2.413
 2156WAT      O 6709   6.373   2.205   8.001
 2156WAT     H1 6710   6.296   2.226   8.061
 2156WAT     H2 6711   6.390   2.283   7.941
 2157WAT      O 6712   9.383   3.042   7.311
 2157WAT     H1 6713   9.326   2.980   7.258
 2157WAT     H2 6714   9.329   3.122   7.339
 2158WAT      O 6715   9.036   7.566   6.646
 2158WAT     H1 6716   8.990   7.648   6.676
 2158WAT     H2 6717   9.124   7.557   6.693
 2159WAT      O 6718   1.195   8.657   4.731
 2159WAT     H1 6719   1.281   8.657   4.680
 2159WAT     H2 6720   1.133   8.724   4.692
 2160WAT      O 6721   3.778   6.222   2.437
 2160WAT     H1 6722   3.818   6.183   2.354
 2160WAT     H2 6723   3.838   6.202   2.515
 2161WAT      O 6724   6.360   3.004   5.083
 2161WAT     H1 6725   6.451   2.983   5.117
 2161WAT     H2 6726   6.301   3.031   5.159
 2162WAT      O 6727   5.962   1.621   5.956
 2162WAT     H1 6728   5.879   1.658   5.998
 2162WAT     H2 6729   5.978   1.667   5.869
 2163WAT      O 6730   1.777   2.110   4.593
 2163WAT     H1 6731   1.739   2.169   4.664
 2163WAT     H2 6732   1.706   2.049   4.557
 2164WAT      O 6733   7.191   2.728   8.390
 2164WAT     H1 6734   7.180   2.795   8.464
 2164WAT     H2 6735   7.289   2.718   8.369
 2165WAT      O 6736   3.364   9.141   9.161
 2165WAT     H1 6737   3.390   9.047   9.185
 2165WAT     H2 6738   3.376   9.154   9.062
 2166WAT      O 6739   0.415   7.520   8.612
 2166WAT     H1 6740   0.478   7.561   8.679
 2166WAT     H2 6741   0.330   7.495   8.658
 2167WAT      O 6742   3.528   0.721   9.128
 2167WAT     H1 6743   3.556   0.779   9.052
 2167WAT     H2 6744   3.432   0.738   9.149
 2168WAT      O 6745   2.559   5.852   3.325
 2168WAT     H1 6746   2.560   5.949   3.346
 2168WAT     H2 6747   2.528   5.801   3.405
 2169WAT      O 6748   9.296   3.960   5.483
 2169WAT     H1 6749   9.254   4.050   5.482
 2169WAT     H2 6750   9.237   3.896   5.532
 2170WAT      O 6751   0.224   2.682   3.586
 2170WAT     H1 6752   0.178   2.760   3.630
 2170WAT     H2 6753   0.259   2.711   3.497
 2171WAT      O 6754   7.924   0.455   3.079
 2171WAT     H1 6755   7.868   0.397   3.019
 2171WAT     H2 6756   7.882   0.546   3.086
 2172WAT      O 6757   0.031   7.948   9.891
 2172WAT     H1 6758  -0.065   7.921   9.907
 2172WAT     H2 6759   0.087   7.865   9.884
 2173WAT      O 6760   7.708   7.146   1.748
 2173WAT     H1 6761   7.714   7.050   1.721
 2173WAT     H2 6762   7.622   7.184   1.714
 2174WAT      O 6763   5.741   0.838   7.398
 2174WAT     H1 6764   5.663   0.861   7.457
 2174WAT     H2 6765   5.795   0.921   7.382
 2175WAT      O 6766   1.343   1.448   8.579
 2175WAT     H1 6767   1.405   1.496   8.517
 2175WAT     H2 6768   1.316   1.361   8.538
 2176WAT      O 6769   4.393   6.986   7.370
 2176WAT     H1 6770   4.426   7.063   7.316
 2176WAT     H2 6771   4.438   6.986   7.460
 2177WAT      O 6772   7.316   8.092   1.627
 2177WAT     H1 6773   7.382   8.165   1.645
 2177WAT     H2 6774   7.235   8.105   1.683
 2178WAT      O 6775   6.023   5.899   5.639
 2178WAT     H1 6776   6.095   5.960   5.669
 2178WAT     H2 6777   6.020   5.818   5.698
 2179WAT      O 6778   1.400   2.842   9.514
 2179WAT     H1 6779   1.445   2.855   9.425
 2179WAT     H2 6780   1.457   2.785   9.572
 2180WAT      O 6781   2.056   0.217   8.377
 2180WAT     H1 6782   2.011   0.128   8.373
 2180WAT     H2 6783   2.142   0.213   8.326
 2181WAT      O 6784   2.104   0.184   1.465
 2181WAT     H1 6785   2.052   0.212   1.546
 2181WAT     H2 6786   2.120   0.264   1.406
 2182WAT      O 6787   9.417   0.169   5.965
 2182WAT     H1 6788   9.457   0.093   5.913
 2182WAT     H2 6789   9.341   0.208   5.913
 2183WAT      O 6790   9.246   9.185   8.938
 2183WAT     H1 6791   9.154   9.205   8.972
 2183WAT     H2 6792   9.296   9.130   9.007
 2184WAT      O 6793   3.386   9.235   0.069
 2184WAT     H1 6794   3.485   9.240   0.086
 2184WAT     H2 6795   3.353   9.325   0.041
 2185WAT      O 6796   8.842   2.985   7.793
 2185WAT     H1 6797   8.853   2.962   7.890
 2185WAT     H2 6798   8.912   2.938   7.739
 2186WAT      O 6799   0.306   4.533   5.807
 2186WAT     H1 6800   0.404   4.541   5.787
 2186WAT     H2 6801   0.254   4.540   5.722
 2187WAT      O 6802   4.295   5.207   2.876
 2187WAT     H1 6803   4.216   5.158   2.838
 2187WAT     H2 6804   4.296   5.197   2.975
 2188WAT      O 6805   5.582   9.192   3.489
 2188WAT     H1 6806   5.673   9.180   3.528
 2188WAT     H2 6807   5.538   9.273   3.530
 2189WAT      O 6808   6.621   3.674   3.132
 2189WAT     H1 6809   6.720   3.671   3.146
 2189WAT     H2 6810   6.586   3.763   3.163
 2190WAT      O 6811   3.543   0.344   8.999
 2190WAT     H1 6812   3.573   0.265   8.946
 2190WAT     H2 6813   3.579   0.427   8.958
 2191WAT      O 6814   3.282   7.498   6.850
 2191WAT     H1 6815   3.348   7.446   6.795
 2191WAT     H2 6816   3.244   7.438   6.920
 2192WAT      O 6817   3.809   7.469   6.903
 2192WAT     H1 6818   3.799   7.406   6.826
 2192WAT     H2 6819   3.889   7.527   6.889
 2193WAT      O 6820   8.663   5.661   0.035
 2193WAT     H1 6821   8.699   5.728  -0.029
 2193WAT     H2 6822   8.563   5.667   0.037
 2194WAT      O 6823   3.541   1.048   7.095
 2194WAT     H1 6824   3.517   0.976   7.030
 2194WAT     H2 6825   3.461   1.107   7.110
 2195WAT      O 6826   8.621   3.290   1.139
 2195WAT     H1 6827   8.637   3.366   1.203
 2195WAT     H2 6828   8.571   3.324   1.060
 2196WAT      O 6829   4.959   0.806   3.873
 2196WAT     H1 6830   5.027   0.759   3.817
 2196WAT     H2 6831   4.976   0.905   3.872
 2197WAT      O 6832   8.630   5.667   5.907
 2197WAT     H1 6833   8.609   5.722   5.826
 2197WAT     H2 6834   8.725   5.637   5.902
 2198WAT      O 6835   6.654   8.859   7.660
 2198WAT     H1 6836   6.584   8.804   7.614
 2198WAT     H2 6837   6.730   8.875   7.597
 2199WAT      O 6838   0.966   3.856   5.755
 2199WAT     H1 6839   0.965   3.941   5.807
 2199WAT     H2 6840   0.876   3.842   5.713
 2200WAT      O 6841   0.506   9.422   8.607
 2200WAT     H1 6842   0.559   9.440   8.690
 2200WAT     H2 6843   0.509   9.502   8.548
 2201WAT      O 6844   2.723   0.486   0.477
 2201WAT     H1 6845   2.808   0.528   0.509
 2201WAT     H2 6846   2.698   0.524   0.388
 2202WAT      O 6847   0.430   3.983   5.775
 2202WAT     H1 6848   0.399   3.983   5.680
 2202WAT     H2 6849   0.366   3.931   5.831
 2203WAT      O 6850   7.446   4.932   0.436
 2203WAT     H1 6851   7.476   4.988   0.359
 2203WAT     H2 6852   7.514   4.860   0.453
 2204WAT      O 6853   5.417   9.452   3.353
 2204WAT     H1 6854   5.410   9.354   3.336
 2204WAT     H2 6855   5.325   9.491   3.361
 2205WAT      O 6856   4.238   8.011   8.097
 2205WAT     H1 6857   4.231   8.008   8.197
 2205WAT     H2 6858   4.257   8.105   8.068
 2206WAT      O 6859   0.696   7.178   5.539
 2206WAT     H1 6860   0.685   7.260   5.595
 2206WAT     H2 6861   0.615   7.165   5.482
 2207WAT      O 6862   3.304   2.214   8.403
 2207WAT     H1 6863   3.261   2.248   8.487
 2207WAT     H2 6864   3.277   2.272   8.326
 2208WAT      O 6865   5.772   1.932   7.093
 2208WAT     H1 6866   5.802   1.994   7.165
 2208WAT     H2 6867   5.703   1.976   7.037
 2209WAT      O 6868   6.299   9.806   9.363
 2209WAT     H1 6869   6.238   9.885   9.352
 2209WAT     H2 6870   6.394   9.838   9.371
 2210WAT      O 6871   1.237   0.339   0.433
 2210WAT     H1 6872   1.186   0.426   0.426
 2210WAT     H2 6873   1.270   0.313   0.342
 2211WAT      O 6874   3.391   5.872   4.327
 2211WAT     H1 6875   3.445   5.839   4.250
 2211WAT     H2 6876   3.447   5.869   4.411
 2212WAT      O 6877   7.177   8.696   8.916
 2212WAT     H1 6878   7.179   8.616   8.975
 2212WAT     H2 6879   7.131   8.674   8.830
 2213WAT      O 6880   6.745   9.798   5.455
 2213WAT     H1 6881   6.719   9.714   5.503
 2213WAT     H2 6882   6.680   9.816   5.382
 2214WAT      O 6883   8.552   4.571   1.112
 2214WAT     H1 6884   8.553   4.636   1.036
 2214WAT     H2 6885   8.527   4.480   1.078
 2215WAT      O 6886   6.308   8.584   3.303
 2215WAT     H1 6887   6.393   8.536   3.325
 2215WAT     H2 6888   6.316   8.680   3.331
 2216WAT      O 6889   6.256   9.629   2.594
 2216WAT     H1 6890   6.256   9.529   2.596
 2216WAT     H2 6891   6.231   9.664   2.685
 2217WAT      O 6892   8.066   5.237   3.130
 2217WAT     H1 6893   8.042   5.280   3.217
 2217WAT     H2 6894   7.984   5.221   3.076
 2218WAT      O 6895   3.531   8.222   7.472
 2218WAT     H1 6896   3.457   8.213   7.405
 2218WAT     H2 6897   3.498   8.194   7.562
 2219WAT      O 6898   4.104   8.981   7.266
 2219WAT     H1 6899   4.017   8.963   7.219
 2219WAT     H2 6900   4.167   9.025   7.203
 2220WAT      O 6901   7.711   6.983   6.512
 2220WAT     H1 6902   7.679   6.955   6.602
 2220WAT     H2 6903   7.648   6.947   6.442
 2221WAT      O 6904   1.203   6.646   1.113
 2221WAT     H1 6905   1.132   6.576   1.122
 2221WAT     H2 6906   1.170   6.732   1.152
 2222WAT      O 6907   0.857   4.666   1.368
 2222WAT     H1 6908   0.887   4.760   1.383
 2222WAT     H2 6909   0.770   4.665   1.320
 2223WAT      O 6910   8.512   2.791   9.170
 2223WAT     H1 6911   8.504   2.697   9.136
 2223WAT     H2 6912   8.551   2.789   9.263
 2224WAT      O 6913   7.654   1.656   8.494
 2224WAT     H1 6914   7.743   1.630   8.533
 2224WAT     H2 6915   7.664   1.742   8.444
 2225WAT      O 6916   4.758   2.167   7.590
 2225WAT     H1 6917   4.856   2.179   7.576
 2225WAT     H2 6918   4.715   2.136   7.505
 2226WAT      O 6919   8.393   4.792   0.103
 2226WAT     H1 6920   8.333   4.731   0.052
 2226WAT     H2 6921   8.452   4.738   0.163
 2227WAT      O 6922   4.444   4.907   9.866
 2227WAT     H1 6923   4.374   4.974   9.841
 2227WAT     H2 6924   4.532   4.953   9.876
 2228WAT      O 6925   5.745   6.947   6.586
 2228WAT     H1 6926   5.811   6.971   6.515
 2228WAT     H2 6927   5.689   6.870   6.554
 2229WAT      O 6928   2.772   8.694   7.716
 2229WAT     H1 6929   2.847   8.713   7.779
 2229WAT     H2 6930   2.779   8.600   7.682
 2230WAT      O 6931   7.598   4.655   8.438
 2230WAT     H1 6932   7.643   4.565   8.439
 2230WAT     H2 6933   7.526   4.656   8.508
 2231WAT      O 6934   6.603   6.263   6.901
 2231WAT     H1 6935   6.634   6.168   6.901
 2231WAT     H2 6936   6.592   6.294   6.996
 2232WAT      O 6937   1.164   9.643   5.410
 2232WAT     H1 6938   1.208   9.733   5.418
 2232WAT     H2 6939   1.123   9.634   5.320
 2233WAT      O 6940   3.307   0.164   9.563
 2233WAT     H1 6941   3.362   0.092   9.606
 2233WAT     H2 6942   3.283   0.137   9.470
 2234WAT      O 6943   3.042   0.681   5.064
 2234WAT     H1 6944   3.027   0.582   5.054
 2234WAT     H2 6945   2.980   0.730   5.003
 2235WAT      O 6946   6.878   6.664   4.152
 2235WAT     H1 6947   6.927   6.736   4.103
 2235WAT     H2 6948   6.905   6.575   4.117
 2236WAT      O 6949   5.413   1.996   0.486
 2236WAT     H1 6950   5.497   2.050   0.479
 2236WAT     H2 6951   5.366   1.995   0.398
 2237WAT      O 6952   4.892   9.212   7.876
 2237WAT     H1 6953   4.943   9.217   7.961
 2237WAT     H2 6954   4.939   9.151   7.812
 2238WAT      O 6955   4.186   8.779   8.794
 2238WAT     H1 6956   4.170   8.706   8.727
 2238WAT     H2 6957   4.133   8.860   8.769
 2239WAT      O 6958   0.962   1.314   3.757
 2239WAT     H1 6959   1.043   1.269   3.719
 2239WAT     H2 6960   0.973   1.413   3.753
 2240WAT      O 6961   3.568   6.366   6.972
 2240WAT     H1 6962   3.485   6.347   7.024
 2240WAT     H2 6963   3.583   6.294   6.904
 2241WAT      O 6964   8.646   5.726   9.131
 2241WAT     H1 6965   8.587   5.785   9.186
 2241WAT     H2 6966   8.742   5.742   9.156
 2242WAT      O 6967   4.713   0.517   4.169
 2242WAT     H1 6968   4.644   0.575   4.212
 2242WAT     H2 6969   4.789   0.574   4.136
 2243WAT      O 6970   3.527   4.773   6.630
 2243WAT     H1 6971   3.606   4.771   6.692
 2243WAT     H2 6972   3.542   4.707   6.556
 2244WAT      O 6973   4.095   4.206   8.015
 2244WAT     H1 6974   4.126   4.246   7.929
 2244WAT     H2 6975   4.103   4.106   8.010
 2245WAT      O 6976   5.262   3.734   5.982
 2245WAT     H1 6977   5.306   3.809   5.931
 2245WAT     H2 6978   5.297   3.732   6.075
 2246WAT      O 6979   4.475   0.179   4.871
 2246WAT     H1 6980   4.522   0.264   4.847
 2246WAT     H2 6981   4.474   0.117   4.793
 2247WAT      O 6982   4.001   7.383   0.031
 2247WAT     H1 6983   3.986   7.472   0.075
 2247WAT     H2 6984   3.945   7.314   0.076
 2248WAT      O 6985   7.539   9.023   7.747
 2248WAT     H1 6986   7.468   9.077   7.702
 2248WAT     H2 6987   7.627   9.072   7.741
 2249WAT      O 6988   5.090   9.594   8.276
 2249WAT     H1 6989   5.145   9.552   8.205
 2249WAT     H2 6990   5.039   9.672   8.237
 2250WAT      O 6991   3.399   6.454   1.256
 2250WAT     H1 6992   3.456   6.378   1.226
 2250WAT     H2 6993   3.358   6.433   1.345
 2251WAT      O 6994   1.166   8.377   1.854
 2251WAT     H1 6995   1.108   8.334   1.785
 2251WAT     H2 6996   1.130   8.468   1.876
 2252WAT      O 6997   2.475   5.509   6.305
 2252WAT     H1 6998   2.555   5.529   6.249
 2252WAT     H2 6999   2.399   5.481   6.246
 2253WAT      O 7000   1.905   6.842   6.881
 2253WAT     H1 7001   1.921   6.780   6.804
 2253WAT     H2 7002   1.909   6.937   6.850
 2254WAT      O 7003   4.147   2.207   2.603
 2254WAT     H1 7004   4.151   2.107   2.608
 2254WAT     H2 7005   4.161   2.237   2.509
 2255WAT      O 7006   0.527   5.878   3.590
 2255WAT     H1 7007   0.616   5.849   3.554
 2255WAT     H2 7008   0.513   5.975   3.571
 2256WAT      O 7009   1.996   1.405   2.910
 2256WAT     H1 7010   2.020   1.309   2.893
 2256WAT     H2 7011   2.074   1.452   2.952
 2257WAT      O 7012   5.316   5.219   2.210
 2257WAT     H1 7013   5.287   5.203   2.304
 2257WAT     H2 7014   5.415   5.231   2.206
 2258WAT      O 7015   6.069   3.296   8.755
 2258WAT     H1 7016   5.980   3.334   8.731
 2258WAT     H2 7017   6.065   3.254   8.846
 2259WAT      O 7018   6.463   1.053   6.410
 2259WAT     H1 7019   6.421   0.978   6.358
 2259WAT     H2 7020   6.540   1.090   6.357
 2260WAT      O 7021   2.322   6.826   5.159
 2260WAT     H1 7022   2.280   6.823   5.068
 2260WAT     H2 7023   2.251   6.837   5.228
 2261WAT      O 7024   9.774   8.808   8.485
 2261WAT     H1 7025   9.787   8.728   8.543
 2261WAT     H2 7026   9.746   8.779   8.393
 2262WAT      O 7027   1.821   2.238   8.779
 2262WAT     H1 7028   1.915   2.216   8.806
 2262WAT     H2 7029   1.809   2.219   8.682
 2263WAT      O 7030   2.596   0.652   3.201
 2263WAT     H1 7031   2.531   0.726   3.187
 2263WAT     H2 7032   2.594   0.589   3.123
 2264WAT      O 7033   0.622   1.723   4.337
 2264WAT     H1 7034   0.697   1.782   4.367
 2264WAT     H2 7035   0.651   1.671   4.256
 2265WAT      O 7036   2.477   0.215   0.857
 2265WAT     H1 7037   2.513   0.122   0.855
 2265WAT     H2 7038   2.483   0.255   0.766
 2266WAT      O 7039   8.321   1.713   9.171
 2266WAT     H1 7040   8.288   1.792   9.222
 2266WAT     H2 7041   8.361   1.647   9.234
 2267WAT      O 7042   1.917   2.627   2.990
 2267WAT     H1 7043   1.917   2.633   2.890
 2267WAT     H2 7044   2.002   2.667   3.025
 2268WAT      O 7045   8.077   7.957   0.131
 2268WAT     H1 7046   8.171   7.982   0.105
 2268WAT     H2 7047   8.079   7.915   0.222
 2269WAT      O 7048   7.539   6.459   9.155
 2269WAT     H1 7049   7.557   6.362   9.169
 2269WAT     H2 7050   7.552   6.508   9.241
 2270WAT      O 7051   0.502   8.848   2.852
 2270WAT     H1 7052   0.439   8.786   2.898
 2270WAT     H2 7053   0.456   8.935   2.834
 2271WAT      O 7054   2.819   0.066   4.677
 2271WAT     H1 7055   2.727   0.102   4.660
 2271WAT     H2 7056   2.868   0.059   4.590
 2272WAT      O 7057   0.889   4.215   4.935
 2272WAT     H1 7058   0.961   4.146   4.944
 2272WAT     H2 7059   0.807   4.184   4.985
 2273WAT      O 7060   9.098   9.814   9.114
 2273WAT     H1 7061   9.095   9.868   9.198
 2273WAT     H2 7062   9.150   9.864   9.044
 2274WAT      O 7063   1.692   6.683   4.556
 2274WAT     H1 7064   1.713   6.774   4.592
 2274WAT     H2 7065   1.597   6.681   4.525
 2275WAT      O 7066   7.239   5.060   7.094
 2275WAT     H1 7067   7.213   4.979   7.041
 2275WAT     H2 7068   7.295   5.033   7.172
 2276WAT      O 7069   9.817   5.361   0.570
 2276WAT     H1 7070   9.906   5.398   0.544
 2276WAT     H2 7071   9.801   5.274   0.523
 2277WAT      O 7072   4.451   7.683   1.001
 2277WAT     H1 7073   4.439   7.719   0.908
 2277WAT     H2 7074   4.364   7.646   1.033
 2278WAT      O 7075   6.226   4.362   1.937
 2278WAT     H1 7076   6.165   4.411   2.000
 2278WAT     H2 7077   6.208   4.390   1.843
 2279WAT      O 7078   5.386   0.473   9.122
 2279WAT     H1 7079   5.405   0.447   9.217
 2279WAT     H2 7080   5.397   0.393   9.063
 2280WAT      O 7081   3.686   8.730   7.089
 2280WAT     H1 7082   3.676   8.689   7.180
 2280WAT     H2 7083   3.610   8.703   7.031
 2281WAT      O 7084   6.153   0.924   8.999
 2281WAT     H1 7085   6.225   0.870   8.955
 2281WAT     H2 7086   6.111   0.984   8.932
 2282WAT      O 7087   9.641   8.494   1.004
 2282WAT     H1 7088   9.583   8.444   1.068
 2282WAT     H2 7089   9.600   8.491   0.913
 2283WAT      O 7090   1.152   6.984   5.446
 2283WAT     H1 7091   1.060   7.007   5.477
 2283WAT     H2 7092   1.158   6.995   5.347
 2284WAT      O 7093   7.632   3.490   4.677
 2284WAT     H1 7094   7.701   3.551   4.637
 2284WAT     H2 7095   7.572   3.456   4.605
 2285WAT      O 7096   6.764   8.138   8.244
 2285WAT     H1 7097   6.734   8.051   8.205
 2285WAT     H2 7098   6.845   8.122   8.301
 2286WAT      O 7099   2.331   9.536   4.776
 2286WAT     H1 7100   2.311   9.521   4.872
 2286WAT     H2 7101   2.300   9.628   4.750
 2287WAT      O 7102   7.485   4.697   4.512
 2287WAT     H1 7103   7.520   4.716   4.603
 2287WAT     H2 7104   7.395   4.739   4.502
 2288WAT      O 7105   9.776   2.233   6.053
 2288WAT     H1 7106   9.791   2.307   6.119
 2288WAT     H2 7107   9.864   2.194   6.026
 2289WAT      O 7108   6.642   5.748   2.049
 2289WAT     H1 7109   6.717   5.810   2.071
 2289WAT     H2 7110   6.555   5.787   2.081
 2290WAT      O 7111   1.851   1.846   6.849
 2290WAT     H1 7112   1.801   1.932   6.852
 2290WAT     H2 7113   1.796   1.777   6.802
 2291WAT      O 7114   1.162   0.147   6.993
 2291WAT     H1 7115   1.088   0.134   7.059
 2291WAT     H2 7116   1.215   0.228   7.018
 2292WAT      O 7117   7.193   5.723   1.428
 2292WAT     H1 7118   7.235   5.633   1.436
 2292WAT     H2 7119   7.259   5.793   1.456
 2293WAT      O 7120   4.772   0.311   0.895
 2293WAT     H1 7121   4.818   0.319   0.983
 2293WAT     H2 7122   4.824   0.251   0.835
 2294WAT      O 7123   8.016   2.575   4.375
 2294WAT     H1 7124   8.034   2.615   4.465
 2294WAT     H2 7125   7.918   2.560   4.365
 2295WAT      O 7126   5.597   1.479   5.966
 2295WAT     H1 7127   5.510   1.521   5.939
 2295WAT     H2 7128   5.649   1.545   6.020
 2296WAT      O 7129   8.916   8.872   9.053
 2296WAT     H1 7130   8.852   8.807   9.010
 2296WAT     H2 7131   8.969   8.825   9.123
 2297WAT      O 7132   3.246   0.686   5.750
 2297WAT     H1 7133   3.267   0.665   5.845
 2297WAT     H2 7134   3.275   0.780   5.729
 2298WAT      O 7135   1.056   3.069   9.690
 2298WAT     H1 7136   0.982   3.067   9.757
 2298WAT     H2 7137   1.119   3.144   9.712
 2299WAT      O 7138   7.447   5.603   9.760
 2299WAT     H1 7139   7.404   5.524   9.802
 2299WAT     H2 7140   7.500   5.574   9.680
 2300WAT      O 7141   1.902   5.017   4.645
 2300WAT     H1 7142   1.825   5.080   4.635
 2300WAT     H2 7143   1.911   4.990   4.741
 2301WAT      O 7144   9.833   3.639   9.257
 2301WAT     H1 7145   9.914   3.695   9.238
 2301WAT     H2 7146   9.784   3.621   9.171
 2302WAT      O 7147   2.360   8.071   6.159
 2302WAT     H1 7148   2.373   8.072   6.060
 2302WAT     H2 7149   2.273   8.024   6.180
 2303WAT      O 7150   3.993   2.665   7.582
 2303WAT     H1 7151   3.908   2.716   7.574
 2303WAT     H2 7152   4.060   2.719   7.632
 2304WAT      O 7153   6.422   4.690   2.080
 2304WAT     H1 7154   6.391   4.701   1.986
 2304WAT     H2 7155   6.486   4.764   2.103
 2305WAT      O 7156   6.677   5.029   4.717
 2305WAT     H1 7157   6.758   5.054   4.769
 2305WAT     H2 7158   6.643   5.108   4.667
 2306WAT      O 7159   6.050   8.052   9.740
 2306WAT     H1 7160   6.046   8.140   9.693
 2306WAT     H2 7161   6.023   7.979   9.678
 2307WAT      O 7162   0.550   8.017   7.688
 2307WAT     H1 7163   0.610   7.971   7.752
 2307WAT     H2 7164   0.454   7.997   7.712
 2308WAT      O 7165   3.417   9.485   0.733
 2308WAT     H1 7166   3.386   9.550   0.664
 2308WAT     H2 7167   3.444   9.400   0.689
 2309WAT      O 7168   4.077   5.658   2.172
 2309WAT     H1 7169   3.990   5.705   2.188
 2309WAT     H2 7170   4.150   5.708   2.218
 2310WAT      O 7171   4.537   5.971   9.692
 2310WAT     H1 7172   4.473   6.044   9.713
 2310WAT     H2 7173   4.611   6.007   9.634
 2311WAT      O 7174   8.751   7.139   7.111
 2311WAT     H1 7175   8.788   7.225   7.076
 2311WAT     H2 7176   8.795   7.062   7.064
 2312WAT      O 7177   8.260   3.957   8.109
 2312WAT     H1 7178   8.293   3.919   8.196
 2312WAT     H2 7179   8.292   4.051   8.099
 2313WAT      O 7180   8.802   5.269   5.883
 2313WAT     H1 7181   8.768   5.197   5.943
 2313WAT     H2 7182   8.800   5.237   5.788
 2314WAT      O 7183   4.796   0.069   4.190
 2314WAT     H1 7184   4.818  -0.012   4.136
 2314WAT     H2 7185   4.753   0.137   4.131
 2315WAT      O 7186   4.998   0.763   7.501
 2315WAT     H1 7187   4.945   0.693   7.454
 2315WAT     H2 7188   5.035   0.725   7.586
 2316WAT      O 7189   3.332   5.480   3.432
 2316WAT     H1 7190   3.383   5.425   3.366
 2316WAT     H2 7191   3.286   5.555   3.383
 2317WAT      O 7192   6.302   0.956   2.771
 2317WAT     H1 7193   6.386   1.001   2.798
 2317WAT     H2 7194   6.305   0.936   2.673
 2318WAT      O 7195   0.384   0.695   8.021
 2318WAT     H1 7196   0.377   0.615   7.962
 2318WAT     H2 7197   0.441   0.765   7.977
 2319WAT      O 7198   4.303   4.379   7.175
 2319WAT     H1 7199   4.402   4.387   7.162
 2319WAT     H2 7200   4.257   4.450   7.122
 2320WAT      O 7201   1.799   7.044   7.363
 2320WAT     H1 7202   1.767   6.966   7.310
 2320WAT     H2 7203   1.742   7.055   7.445
 2321WAT      O 7204   4.051   1.304   6.818
 2321WAT     H1 7205   3.954   1.292   6.840
 2321WAT     H2 7206   4.061   1.381   6.755
 2322WAT      O 7207   8.163   1.446   8.122
 2322WAT     H1 7208   8.111   1.480   8.044
 2322WAT     H2 7209   8.168   1.346   8.118
 2323WAT      O 7210   3.240   4.962   9.386
 2323WAT     H1 7211   3.259   4.975   9.288
 2323WAT     H2 7212   3.160   4.904   9.397
 2324WAT      O 7213   6.723   3.680   5.657
 2324WAT     H1 7214   6.788   3.673   5.732
 2324WAT     H2 7215   6.660   3.755   5.674
 2325WAT      O 7216   3.283   2.015   0.879
 2325WAT     H1 7217   3.326   1.950   0.941
 2325WAT     H2 7218   3.187   2.028   0.904
 2326WAT      O 7219   0.182   2.390   3.883
 2326WAT     H1 7220   0.085   2.385   3.909
 2326WAT     H2 7221   0.223   2.472   3.924
 2327WAT      O 7222   9.373   7.494   9.183
 2327WAT     H1 7223   9.328   7.435   9.116
 2327WAT     H2 7224   9.354   7.590   9.161
 2328WAT      O 7225   1.618   0.960   2.253
 2328WAT     H1 7226   1.592   1.021   2.177
 2328WAT     H2 7227   1.643   1.015   2.332
 2329WAT      O 7228   0.028   9.640   5.922
 2329WAT     H1 7229  -0.011   9.548   5.924
 2329WAT     H2 7230   0.097   9.649   5.994
 2330WAT      O 7231   6.032   1.865   5.322
 2330WAT     H1 7232   6.132   1.870   5.332
 2330WAT     H2 7233   5.989   1.937   5.376
 2331WAT      O 7234   1.925   0.603   6.570
 2331WAT     H1 7235   1.937   0.653   6.484
 2331WAT     H2 7236   2.001   0.539   6.582
 2332WAT      O 7237   1.672   0.513   2.482
 2332WAT     H1 7238   1.616   0.537   2.562
 2332WAT     H2 7239   1.730   0.435   2.504
 2333WAT      O 7240   4.563   6.022   4.506
 2333WAT     H1 7241   4.632   6.086   4.540
 2333WAT     H2 7242   4.536   6.050   4.414
 2334WAT      O 7243   8.141   6.418   4.341
 2334WAT     H1 7244   8.164   6.325   4.372
 2334WAT     H2 7245   8.225   6.466   4.315
 2335WAT      O 7246   3.788   6.449   0.490
 2335WAT     H1 7247   3.843   6.479   0.569
 2335WAT     H2 7248   3.848   6.439   0.411
 2336WAT      O 7249   1.951   6.729   1.195
 2336WAT     H1 7250   1.916   6.744   1.287
 2336WAT     H2 7251   1.971   6.817   1.151
 2337WAT      O 7252   0.236   2.231   5.759
 2337WAT     H1 7253   0.307   2.166   5.730
 2337WAT     H2 7254   0.267   2.324   5.740
 2338WAT      O 7255   7.873   7.495   1.412
 2338WAT     H1 7256   7.782   7.529   1.391
 2338WAT     H2 7257   7.928   7.495   1.328
 2339WAT      O 7258   2.120   3.927   6.282
 2339WAT     H1 7259   2.172   3.984   6.219
 2339WAT     H2 7260   2.183   3.879   6.343
 2340WAT      O 7261   2.811   3.154   4.234
 2340WAT     H1 7262   2.891   3.104   4.267
 2340WAT     H2 7263   2.752   3.091   4.184
 2341WAT      O 7264   0.199   7.145   9.040
 2341WAT     H1 7265   0.107   7.137   9.076
 2341WAT     H2 7266   0.262   7.172   9.113
 2342WAT      O 7267   6.973   3.591   7.849
 2342WAT     H1 7268   7.045   3.658   7.866
 2342WAT     H2 7269   6.984   3.514   7.912
 2343WAT      O 7270   4.670   6.554   3.256
 2343WAT     H1 7271   4.578   6.541   3.292
 2343WAT     H2 7272   4.736   6.553   3.331
 2344WAT      O 7273   8.404   1.189   5.918
 2344WAT     H1 7274   8.439   1.255   5.852
 2344WAT     H2 7275   8.435   1.097   5.892
 2345WAT      O 7276   9.651   7.641   0.215
 2345WAT     H1 7277   9.697   7.729   0.206
 2345WAT     H2 7278   9.686   7.593   0.296
 2346WAT      O 7279   5.611   4.917   7.839
 2346WAT     H1 7280   5.653   4.846   7.781
 2346WAT     H2 7281   5.525   4.947   7.797
 2347WAT      O 7282   5.344   8.965   4.778
 2347WAT     H1 7283   5.393   9.035   4.830
 2347WAT     H2 7284   5.251   8.957   4.812
 2348WAT      O 7285   4.920   6.450   4.448
 2348WAT     H1 7286   4.970   6.517   4.393
 2348WAT     H2 7287   4.963   6.442   4.538
 2349WAT      O 7288   8.241   4.749   4.547
 2349WAT     H1 7289   8.142   4.768   4.547
 2349WAT     H2 7290   8.262   4.685   4.621
 2350WAT      O 7291   0.332   4.291   5.945
 2350WAT     H1 7292   0.266   4.218   5.929
 2350WAT     H2 7293   0.309   4.370   5.888
 2351WAT      O 7294   3.537   3.335   8.647
 2351WAT     H1 7295   3.512   3.258   8.589
 2351WAT     H2 7296   3.571   3.410   8.590
 2352WAT      O 7297   4.696   2.825   0.834
 2352WAT     H1 7298   4.775   2.846   0.777
 2352WAT     H2 7299   4.623   2.892   0.816
 2353WAT      O 7300   0.649   2.319   4.940
 2353WAT     H1 7301   0.620   2.344   4.847
 2353WAT     H2 7302   0.569   2.291   4.993
 2354WAT      O 7303   0.156   1.253   7.734
 2354WAT     H1 7304   0.102   1.195   7.795
 2354WAT     H2 7305   0.194   1.198   7.660
 2355WAT      O 7306   4.677   4.126   0.572
 2355WAT     H1 7307   4.691   4.031   0.599
 2355WAT     H2 7308   4.611   4.169   0.635
 2356WAT      O 7309   6.797   9.074   2.287
 2356WAT     H1 7310   6.873   9.023   2.328
 2356WAT     H2 7311   6.765   9.025   2.206
 2357WAT      O 7312   2.081   8.312   1.334
 2357WAT     H1 7313   2.137   8.395   1.334
 2357WAT     H2 7314   2.025   8.309   1.251
 2358WAT      O 7315   9.099   1.934   1.601
 2358WAT     H1 7316   9.141   2.014   1.643
 2358WAT     H2 7317   9.012   1.914   1.646
 2359WAT      O 7318   8.234   0.318   3.786
 2359WAT     H1 7319   8.210   0.278   3.874
 2359WAT     H2 7320   8.152   0.354   3.742
 2360WAT      O 7321   7.884   1.804   5.167
 2360WAT     H1 7322   7.858   1.900   5.180
 2360WAT     H2 7323   7.803   1.746   5.176
 2361WAT      O 7324   6.222   6.718   4.117
 2361WAT     H1 7325   6.200   6.675   4.029
 2361WAT     H2 7326   6.139   6.759   4.155
 2362WAT      O 7327   8.798   4.160   1.895
 2362WAT     H1 7328   8.782   4.064   1.918
 2362WAT     H2 7329   8.830   4.209   1.976
 2363WAT      O 7330   0.219   6.665   5.134
 2363WAT     H1 7331   0.154   6.657   5.211
 2363WAT     H2 7332   0.297   6.605   5.150
 2364WAT      O 7333   8.949   1.575   7.583
 2364WAT     H1 7334   9.005   1.552   7.663
 2364WAT     H2 7335   8.853   1.578   7.609
 2365WAT      O 7336   2.996   9.148   5.413
 2365WAT     H1 7337   2.997   9.218   5.343
 2365WAT     H2 7338   2.981   9.190   5.503
 2366WAT      O 7339   5.631   1.268   8.030
 2366WAT     H1 7340   5.552   1.220   7.991
 2366WAT     H2 7341   5.689   1.303   7.956
 2367WAT      O 7342   5.129   3.414   3.098
 2367WAT     H1 7343   5.126   3.512   3.117
 2367WAT     H2 7344   5.110   3.399   3.001
 2368WAT      O 7345   4.543   2.631   0.710
 2368WAT     H1 7346   4.596   2.697   0.764
 2368WAT     H2 7347   4.555   2.650   0.613
 2369WAT      O 7348   2.235   0.224   3.453
 2369WAT     H1 7349   2.254   0.147   3.393
 2369WAT     H2 7350   2.306   0.231   3.523
 2370WAT      O 7351   4.920   3.165   3.959
 2370WAT     H1 7352   4.832   3.201   3.931
 2370WAT     H2 7353   4.940   3.195   4.053
 2371WAT      O 7354   6.962   0.051   5.622
 2371WAT     H1 7355   6.899   0.026   5.548
 2371WAT     H2 7356   6.912   0.097   5.695
 2372WAT      O 7357   2.210   1.159   9.125
 2372WAT     H1 7358   2.162   1.134   9.041
 2372WAT     H2 7359   2.165   1.237   9.167
 2373WAT      O 7360   9.044   7.913   8.237
 2373WAT     H1 7361   9.073   7.883   8.328
 2373WAT     H2 7362   9.050   7.836   8.174
 2374WAT      O 7363   9.190   9.532   6.233
 2374WAT     H1 7364   9.215   9.611   6.288
 2374WAT     H2 7365   9.272   9.479   6.211
 2375WAT      O 7366   0.425   4.119   1.200
 2375WAT     H1 7367   0.456   4.090   1.290
 2375WAT     H2 7368   0.502   4.154   1.147
 2376WAT      O 7369   9.867   2.049   8.357
 2376WAT     H1 7370   9.906   1.958   8.368
 2376WAT     H2 7371   9.827   2.057   8.265
 2377WAT      O 7372   0.448   8.007   8.982
 2377WAT     H1 7373   0.399   7.965   8.905
 2377WAT     H2 7374   0.385   8.062   9.036
 2378WAT      O 7375   8.439   1.343   9.108
 2378WAT     H1 7376   8.490   1.344   9.194
 2378WAT     H2 7377   8.348   1.304   9.123
 2379WAT      O 7378   5.979   6.274   0.027
 2379WAT     H1 7379   5.910   6.265   0.099
 2379WAT     H2 7380   5.948   6.339  -0.041
 2380WAT      O 7381   8.191   2.044   6.641
 2380WAT     H1 7382   8.176   2.111   6.714
 2380WAT     H2 7383   8.109   1.987   6.631
 2381WAT      O 7384   0.003   8.729   2.790
 2381WAT     H1 7385   0.085   8.691   2.748
 2381WAT     H2 7386  -0.074   8.717   2.727
 2382WAT      O 7387   4.188   8.790   2.772
 2382WAT     H1 7388   4.260   8.843   2.816
 2382WAT     H2 7389   4.104   8.844   2.767
 2383WAT      O 7390   5.997   3.642   5.341
 2383WAT     H1 7391   5.915   3.677   5.297
 2383WAT     H2 7392   6.070   3.711   5.338
 2384WAT      O 7393   5.060   4.703   3.297
 2384WAT     H1 7394   5.141   4.752   3.326
 2384WAT     H2 7395   5.070   4.676   3.201
 2385WAT      O 7396   7.610   0.376   7.365
 2385WAT     H1 7397   7.686   0.317   7.392
 2385WAT     H2 7398   7.644   0.446   7.302
 2386WAT      O 7399   0.680   7.357   1.634
 2386WAT     H1 7400   0.741   7.283   1.607
 2386WAT     H2 7401   0.733   7.439   1.655
 2387WAT      O 7402   2.445   0.609   1.660
 2387WAT     H1 7403   2.387   0.537   1.698
 2387WAT     H2 7404   2.481   0.665   1.735
 2388WAT      O 7405   2.213   9.234   1.822
 2388WAT     H1 7406   2.177   9.320   1.858
 2388WAT     H2 7407   2.266   9.187   1.892
 2389WAT      O 7408   4.611   4.630   7.848
 2389WAT     H1 7409   4.624   4.669   7.939
 2389WAT     H2 7410   4.556   4.693   7.792
 2390WAT      O 7411   9.611   3.697   7.979
 2390WAT     H1 7412   9.709   3.707   7.996
 2390WAT     H2 7413   9.575   3.623   8.037
 2391WAT      O 7414   2.192   1.828   9.170
 2391WAT     H1 7415   2.273   1.860   9.121
 2391WAT     H2 7416   2.111   1.845   9.114
 2392WAT      O 7417   0.928   5.635   3.855
 2392WAT     H1 7418   0.941   5.692   3.774
 2392WAT     H2 7419   0.840   5.655   3.897
 2393WAT      O 7420   4.714   1.107   3.959
 2393WAT     H1 7421   4.687   1.013   3.939
 2393WAT     H2 7422   4.650   1.170   3.914
 2394WAT      O 7423   6.800   1.414   7.146
 2394WAT     H1 7424   6.707   1.396   7.177
 2394WAT     H2 7425   6.840   1.488   7.200
 2395WAT      O 7426   0.448   9.320   4.298
 2395WAT     H1 7427   0.472   9.417   4.291
 2395WAT     H2 7428   0.449   9.292   4.394
 2396WAT      O 7429   3.792   8.875   8.005
 2396WAT     H1 7430   3.799   8.974   7.991
 2396WAT     H2 7431   3.865   8.844   8.066
 2397WAT      O 7432   6.027   8.670   0.935
 2397WAT     H1 7433   6.084   8.594   0.967
 2397WAT     H2 7434   6.065   8.757   0.967
 2398WAT      O 7435   4.475   4.045   1.146
 2398WAT     H1 7436   4.516   4.115   1.088
 2398WAT     H2 7437   4.547   3.994   1.193
 2399WAT      O 7438   0.956   2.331   1.065
 2399WAT     H1 7439   1.055   2.330   1.058
 2399WAT     H2 7440   0.925   2.424   1.084
 2400WAT      O 7441   7.887   5.379   6.683
 2400WAT     H1 7442   7.934   5.462   6.651
 2400WAT     H2 7443   7.873   5.385   6.782
 2401WAT      O 7444   7.249   3.545   8.777
 2401WAT     H1 7445   7.346   3.570   8.769
 2401WAT     H2 7446   7.241   3.446   8.783
 2402WAT      O 7447   9.327   2.835   3.535
 2402WAT     H1 7448   9.420   2.851   3.565
 2402WAT     H2 7449   9.287   2.921   3.503
 2403WAT      O 7450   8.705   5.994   6.518
 2403WAT     H1 7451   8.729   5.910   6.469
 2403WAT     H2 7452   8.788   6.035   6.557
 2404WAT      O 7453   2.406   8.238   3.705
 2404WAT     H1 7454   2.358   8.226   3.619
 2404WAT     H2 7455   2.469   8.316   3.698
 2405WAT      O 7456   3.717   4.153   5.167
 2405WAT     H1 7457   3.662   4.070   5.174
 2405WAT     H2 7458   3.691   4.217   5.240
 2406WAT      O 7459   7.777   1.140   9.744
 2406WAT     H1 7460   7.751   1.164   9.651
 2406WAT     H2 7461   7.800   1.043   9.748
 2407WAT      O 7462   2.140   1.651   5.245
 2407WAT     H1 7463   2.091   1.702   5.175
 2407WAT     H2 7464   2.130   1.553   5.229
 2408WAT      O 7465   8.751   3.309   3.163
 2408WAT     H1 7466   8.812   3.316   3.084
 2408WAT     H2 7467   8.726   3.401   3.194
 2409WAT      O 7468   8.432   3.283   8.721
 2409WAT     H1 7469   8.502   3.213   8.707
 2409WAT     H2 7470   8.418   3.333   8.636
 2410WAT      O 7471   5.904   6.539   7.373
 2410WAT     H1 7472   5.909   6.439   7.383
 2410WAT     H2 7473   5.905   6.563   7.276
 2411WAT      O 7474   7.597   9.678   3.981
 2411WAT     H1 7475   7.575   9.735   4.059
 2411WAT     H2 7476   7.644   9.595   4.012
 2412WAT      O 7477   3.061   2.625   3.748
 2412WAT     H1 7478   3.142   2.676   3.718
 2412WAT     H2 7479   3.079   2.527   3.740
 2413WAT      O 7480   8.800   4.915   1.600
 2413WAT     H1 7481   8.764   4.995   1.648
 2413WAT     H2 7482   8.874   4.942   1.539
 2414WAT      O 7483   2.645   7.839   6.165
 2414WAT     H1 7484   2.560   7.788   6.147
 2414WAT     H2 7485   2.670   7.891   6.083
 2415WAT      O 7486   2.600   8.955   1.578
 2415WAT     H1 7487   2.656   8.995   1.505
 2415WAT     H2 7488   2.589   9.022   1.651
 2416WAT      O 7489   6.756   0.685   3.227
 2416WAT     H1 7490   6.730   0.622   3.154
 2416WAT     H2 7491   6.752   0.638   3.315
 2417WAT      O 7492   2.989   4.546   9.872
 2417WAT     H1 7493   2.962   4.545   9.775
 2417WAT     H2 7494   3.020   4.638   9.896
 2418WAT      O 7495   8.822   9.095   0.222
 2418WAT     H1 7496   8.903   9.037   0.224
 2418WAT     H2 7497   8.849   9.190   0.242
 2419WAT      O 7498   4.888   5.784   0.395
 2419WAT     H1 7499   4.975   5.794   0.443
 2419WAT     H2 7500   4.904   5.772   0.298
 2420WAT      O 7501   4.778   7.374   0.499
 2420WAT     H1 7502   4.683   7.373   0.469
 2420WAT     H2 7503   4.838   7.391   0.420
 2421WAT      O 7504   4.966   9.768   0.445
 2421WAT     H1 7505   5.009   9.695   0.499
 2421WAT     H2 7506   5.033   9.841   0.429
 2422WAT      O 7507   0.557   1.725   5.197
 2422WAT     H1 7508   0.648   1.724   5.240
 2422WAT     H2 7509   0.523   1.631   5.189
 2423WAT      O 7510   2.384   3.683   0.124
 2423WAT     H1 7511   2.351   3.665   0.031
 2423WAT     H2 7512   2.465   3.626   0.142
 2424WAT      O 7513   7.424   2.789   0.303
 2424WAT     H1 7514   7.346   2.841   0.269
 2424WAT     H2 7515   7.415   2.777   0.402
 2425WAT      O 7516   8.955   2.687   3.440
 2425WAT     H1 7517   9.033   2.749   3.426
 2425WAT     H2 7518   8.874   2.741   3.465
 2426WAT      O 7519   2.845   9.811   4.128
 2426WAT     H1 7520   2.862   9.807   4.029
 2426WAT     H2 7521   2.847   9.719   4.166
 2427WAT      O 7522   6.110   3.030   3.731
 2427WAT     H1 7523   6.134   2.944   3.686
 2427WAT     H2 7524   6.040   3.077   3.677
 2428WAT      O 7525   4.435   4.688   2.087
 2428WAT     H1 7526   4.463   4.652   1.998
 2428WAT     H2 7527   4.466   4.783   2.096
 2429WAT      O 7528   4.565   2.553   7.927
 2429WAT     H1 7529   4.515   2.509   7.853
 2429WAT     H2 7530   4.560   2.652   7.916
 2430WAT      O 7531   5.750   9.124   5.693
 2430WAT     H1 7532   5.736   9.097   5.598
 2430WAT     H2 7533   5.682   9.192   5.719
 2431WAT      O 7534   1.432   5.458   5.733
 2431WAT     H1 7535   1.456   5.361   5.726
 2431WAT     H2 7536   1.397   5.490   5.645
 2432WAT      O 7537   5.064   6.616   2.424
 2432WAT     H1 7538   5.010   6.544   2.468
 2432WAT     H2 7539   5.022   6.705   2.441
 2433WAT      O 7540   4.824   3.588   7.946
 2433WAT     H1 7541   4.842   3.489   7.943
 2433WAT     H2 7542   4.741   3.605   7.999
 2434WAT      O 7543   5.473   5.901   4.106
 2434WAT     H1 7544   5.531   5.825   4.078
 2434WAT     H2 7545   5.412   5.925   4.030
 2435WAT      O 7546   8.144   0.744   5.085
 2435WAT     H1 7547   8.096   0.716   5.168
 2435WAT     H2 7548   8.167   0.841   5.090
 2436WAT      O 7549   4.417   3.869   3.632
 2436WAT     H1 7550   4.455   3.936   3.568
 2436WAT     H2 7551   4.470   3.872   3.718
 2437WAT      O 7552   8.778   6.272   1.793
 2437WAT     H1 7553   8.848   6.335   1.829
 2437WAT     H2 7554   8.690   6.320   1.790
 2438WAT      O 7555   8.542   3.032   8.963
 2438WAT     H1 7556   8.552   2.970   9.041
 2438WAT     H2 7557   8.445   3.048   8.945
 2439WAT      O 7558   7.642   5.092   1.371
 2439WAT     H1 7559   7.689   5.034   1.438
 2439WAT     H2 7560   7.595   5.167   1.418
 2440WAT      O 7561   7.396   0.293   2.176
 2440WAT     H1 7562   7.429   0.351   2.251
 2440WAT     H2 7563   7.442   0.204   2.179
 2441WAT      O 7564   3.547   8.965   3.312
 2441WAT     H1 7565   3.465   9.020   3.299
 2441WAT     H2 7566   3.620   8.999   3.252
 2442WAT      O 7567   2.785   5.343   9.674
 2442WAT     H1 7568   2.765   5.245   9.664
 2442WAT     H2 7569   2.834   5.376   9.593
 2443WAT      O 7570   8.991   5.506   6.157
 2443WAT     H1 7571   8.909   5.537   6.109
 2443WAT     H2 7572   9.049   5.585   6.178
 2444WAT      O 7573   6.507   3.307   7.165
 2444WAT     H1 7574   6.574   3.263   7.224
 2444WAT     H2 7575   6.525   3.284   7.069
 2445WAT      O 7576   8.527   6.658   7.857
 2445WAT     H1 7577   8.550   6.742   7.907
 2445WAT     H2 7578   8.436   6.626   7.886
 2446WAT      O 7579   5.982   7.425   8.848
 2446WAT     H1 7580   6.008   7.508   8.798
 2446WAT     H2 7581   6.052   7.355   8.834
 2447WAT      O 7582   8.172   3.691   2.645
 2447WAT     H1 7583   8.211   3.765   2.590
 2447WAT     H2 7584   8.157   3.610   2.587
 2448WAT      O 7585   9.843   2.375   1.533
 2448WAT     H1 7586   9.766   2.312   1.518
 2448WAT     H2 7587   9.812   2.469   1.518
 2449WAT      O 7588   7.736   3.697   4.325
 2449WAT     H1 7589   7.640   3.725   4.329
 2449WAT     H2 7590   7.778   3.732   4.241
 2450WAT      O 7591   1.328   9.432   7.990
 2450WAT     H1 7592   1.272   9.354   7.962
 2450WAT     H2 7593   1.423   9.417   7.962
 2451WAT      O 7594   7.321   5.347   2.151
 2451WAT     H1 7595   7.226   5.324   2.174
 2451WAT     H2 7596   7.352   5.423   2.209
 2452WAT      O 7597   1.420   7.923   7.570
 2452WAT     H1 7598   1.346   7.857   7.556
 2452WAT     H2 7599   1.423   7.985   7.491
 2453WAT      O 7600   6.920   4.609   1.131
 2453WAT     H1 7601   6.925   4.708   1.117
 2453WAT     H2 7602   6.864   4.590   1.212
 2454WAT      O 7603   0.643   7.751   2.512
 2454WAT     H1 7604   0.591   7.834   2.530
 2454WAT     H2 7605   0.616   7.680   2.577
 2455WAT      O 7606   7.354   0.360   8.500
 2455WAT     H1 7607   7.286   0.380   8.571
 2455WAT     H2 7608   7.316   0.292   8.437
 2456WAT      O 7609   6.653   2.602   9.094
 2456WAT     H1 7610   6.637   2.682   9.036
 2456WAT     H2 7611   6.587   2.601   9.169
 2457WAT      O 7612   1.713   3.284   4.399
 2457WAT     H1 7613   1.774   3.344   4.347
 2457WAT     H2 7614   1.621   3.287   4.358
 2458WAT      O 7615   3.332   4.542   4.721
 2458WAT     H1 7616   3.337   4.507   4.814
 2458WAT     H2 7617   3.335   4.642   4.722
 2459WAT      O 7618   3.198   7.216   2.691
 2459WAT     H1 7619   3.101   7.194   2.682
 2459WAT     H2 7620   3.224   7.209   2.788
 2460WAT      O 7621   4.903   7.100   4.961
 2460WAT     H1 7622   4.840   7.169   4.925
 2460WAT     H2 7623   4.978   7.145   5.010
 2461WAT      O 7624   2.020   6.773   3.747
 2461WAT     H1 7625   1.931   6.757   3.706
 2461WAT     H2 7626   2.047   6.868   3.731
 2462WAT      O 7627   2.259   0.591   7.606
 2462WAT     H1 7628   2.304   0.559   7.689
 2462WAT     H2 7629   2.160   0.584   7.617
 2463WAT      O 7630   9.485   1.949   9.374
 2463WAT     H1 7631   9.513   1.971   9.467
 2463WAT     H2 7632   9.563   1.911   9.324
 2464WAT      O 7633   1.483   4.040   8.222
 2464WAT     H1 7634   1.455   4.033   8.318
 2464WAT     H2 7635   1.416   3.994   8.164
 2465WAT      O 7636   2.977   4.314   5.600
 2465WAT     H1 7637   3.014   4.324   5.693
 2465WAT     H2 7638   3.052   4.311   5.534
 2466WAT      O 7639   9.409   1.951   7.661
 2466WAT     H1 7640   9.366   1.962   7.572
 2466WAT     H2 7641   9.486   2.015   7.669
 2467WAT      O 7642   1.921   7.306   7.542
 2467WAT     H1 7643   1.977   7.370   7.596
 2467WAT     H2 7644   1.949   7.310   7.446
 2468WAT      O 7645   2.996   9.233   4.571
 2468WAT     H1 7646   2.921   9.167   4.574
 2468WAT     H2 7647   3.078   9.187   4.535
 2469WAT      O 7648   8.258   9.688   5.142
 2469WAT     H1 7649   8.220   9.645   5.223
 2469WAT     H2 7650   8.333   9.749   5.168
 2470WAT      O 7651   4.818   0.099   6.926
 2470WAT     H1 7652   4.884   0.142   6.865
 2470WAT     H2 7653   4.743   0.060   6.872
 2471WAT      O 7654   6.744   4.712   0.632
 2471WAT     H1 7655   6.701   4.697   0.543
 2471WAT     H2 7656   6.735   4.629   0.687
 2472WAT      O 7657   0.999   5.689   9.197
 2472WAT     H1 7658   1.027   5.781   9.226
 2472WAT     H2 7659   0.900   5.687   9.187
 2473WAT      O 7660   4.894   0.409   7.574
 2473WAT     H1 7661   4.861   0.498   7.543
 2473WAT     H2 7662   4.850   0.385   7.661
 2474WAT      O 7663   2.409   3.633   4.501
 2474WAT     H1 7664   2.330   3.666   4.553
 2474WAT     H2 7665   2.493   3.660   4.548
 2475WAT      O 7666   7.652   5.841   8.057
 2475WAT     H1 7667   7.704   5.881   7.982
 2475WAT     H2 7668   7.556   5.868   8.050
 2476WAT      O 7669   7.000   6.049   7.084
 2476WAT     H1 7670   6.975   6.076   6.991
 2476WAT     H2 7671   6.945   6.100   7.150
 2477WAT      O 7672   9.592   6.294   2.444
 2477WAT     H1 7673   9.651   6.219   2.414
 2477WAT     H2 7674   9.594   6.300   2.544
 2478WAT      O 7675   8.888   8.839   2.875
 2478WAT     H1 7676   8.830   8.759   2.877
 2478WAT     H2 7677   8.944   8.842   2.959
 2479WAT      O 7678   7.138   6.604   0.627
 2479WAT     H1 7679   7.163   6.631   0.534
 2479WAT     H2 7680   7.043   6.574   0.629
 2480WAT      O 7681   6.015   7.845   3.015
 2480WAT     H1 7682   6.087   7.877   2.954
 2480WAT     H2 7683   6.036   7.875   3.109
 2481WAT      O 7684   5.270   2.269   6.138
 2481WAT     H1 7685   5.265   2.347   6.076
 2481WAT     H2 7686   5.366   2.243   6.152
 2482WAT      O 7687   1.652   1.674   3.277
 2482WAT     H1 7688   1.673   1.765   3.312
 2482WAT     H2 7689   1.674   1.606   3.347
 2483WAT      O 7690   4.568   7.368   2.545
 2483WAT     H1 7691   4.634   7.294   2.551
 2483WAT     H2 7692   4.523   7.366   2.456
 2484WAT      O 7693   8.399   3.066   9.356
 2484WAT     H1 7694   8.413   3.147   9.413
 2484WAT     H2 7695   8.318   3.079   9.299
 2485WAT      O 7696   2.670   3.301   3.706
 2485WAT     H1 7697   2.762   3.318   3.741
 2485WAT     H2 7698   2.633   3.218   3.748
 2486WAT      O 7699   9.861   1.844   3.265
 2486WAT     H1 7700   9.917   1.875   3.188
 2486WAT     H2 7701   9.874   1.745   3.278
 2487WAT      O 7702   1.069   7.083   0.533
 2487WAT     H1 7703   1.163   7.113   0.518
 2487WAT     H2 7704   1.069   6.988   0.564
 2488WAT      O 7705   1.583   9.176   4.595
 2488WAT     H1 7706   1.546   9.237   4.524
 2488WAT     H2 7707   1.568   9.218   4.685
 2489WAT      O 7708   7.842   7.567   8.272
 2489WAT     H1 7709   7.865   7.469   8.273
 2489WAT     H2 7710   7.806   7.594   8.361
 2490WAT      O 7711   0.929   9.686   9.368
 2490WAT     H1 7712   0.948   9.692   9.466
 2490WAT     H2 7713   1.001   9.733   9.318
 2491WAT      O 7714   5.305   0.136   8.785
 2491WAT     H1 7715   5.269   0.202   8.851
 2491WAT     H2 7716   5.228   0.096   8.733
 2492WAT      O 7717   4.309   1.675   7.657
 2492WAT     H1 7718   4.288   1.698   7.562
 2492WAT     H2 7719   4.359   1.751   7.699
 2493WAT      O 7720   6.069   2.987   5.961
 2493WAT     H1 7721   6.009   2.994   6.041
 2493WAT     H2 7722   6.070   2.893   5.927
 2494WAT      O 7723   5.220   2.275   5.234
 2494WAT     H1 7724   5.173   2.197   5.193
 2494WAT     H2 7725   5.319   2.262   5.228
 2495WAT      O 7726   5.120   0.325   3.234
 2495WAT     H1 7727   5.201   0.268   3.220
 2495WAT     H2 7728   5.090   0.362   3.146
 2496WAT      O 7729   1.667   4.313   9.251
 2496WAT     H1 7730   1.708   4.226   9.222
 2496WAT     H2 7731   1.700   4.336   9.342
 2497WAT      O 7732   1.652   0.043   7.730
 2497WAT     H1 7733   1.682  -0.013   7.653
 2497WAT     H2 7734   1.647  -0.013   7.813
 2498WAT      O 7735   1.109   1.563   0.816
 2498WAT     H1 7736   1.043   1.490   0.832
 2498WAT     H2 7737   1.068   1.632   0.756
 2499WAT      O 7738   2.311   8.478   4.914
 2499WAT     H1 7739   2.372   8.399   4.919
 2499WAT     H2 7740   2.365   8.560   4.893
 2500WAT      O 7741   6.166   0.569   9.690
 2500WAT     H1 7742   6.239   0.546   9.625
 2500WAT     H2 7743   6.077   0.556   9.646
 2501WAT      O 7744   6.865   2.752   8.483
 2501WAT     H1 7745   6.951   2.796   8.456
 2501WAT     H2 7746   6.886   2.670   8.537
 2502WAT      O 7747   0.339   6.460   2.868
 2502WAT     H1 7748   0.277   6.500   2.800
 2502WAT     H2 7749   0.321   6.501   2.958
 2503WAT      O 7750   3.387   9.694   4.516
 2503WAT     H1 7751   3.400   9.724   4.610
 2503WAT     H2 7752   3.300   9.647   4.507
 2504WAT      O 7753   0.463   4.013   1.456
 2504WAT     H1 7754   0.490   4.014   1.552
 2504WAT     H2 7755   0.363   4.006   1.449
 2505WAT      O 7756   5.617   5.891   1.156
 2505WAT     H1 7757   5.566   5.825   1.212
 2505WAT     H2 7758   5.579   5.982   1.170
 2506WAT      O 7759   0.920   4.714   2.224
 2506WAT     H1 7760   0.840   4.771   2.205
 2506WAT     H2 7761   0.900   4.619   2.197
 2507WAT      O 7762   3.281   7.910   5.393
 2507WAT     H1 7763   3.373   7.927   5.358
 2507WAT     H2 7764   3.213   7.940   5.326
 2508WAT      O 7765   7.715   9.305   2.540
 2508WAT     H1 7766   7.780   9.343   2.474
 2508WAT     H2 7767   7.741   9.210   2.561
 2509WAT      O 7768   9.100   0.010   4.262
 2509WAT     H1 7769   9.056   0.099   4.248
 2509WAT     H2 7770   9.062  -0.034   4.343
 2510WAT      O 7771   8.554   8.761   7.260
 2510WAT     H1 7772   8.485   8.720   7.202
 2510WAT     H2 7773   8.615   8.819   7.205
 2511WAT      O 7774   5.318   4.694   1.278
 2511WAT     H1 7775   5.335   4.631   1.202
 2511WAT     H2 7776   5.227   4.734   1.269
 2512WAT      O 7777   7.232   1.978   0.778
 2512WAT     H1 7778   7.307   2.044   0.767
 2512WAT     H2 7779   7.247   1.900   0.718
 2513WAT      O 7780   1.662   5.489   9.767
 2513WAT     H1 7781   1.587   5.477   9.831
 2513WAT     H2 7782   1.675   5.586   9.747
 2514WAT      O 7783   2.394   3.854   3.478
 2514WAT     H1 7784   2.492   3.856   3.458
 2514WAT     H2 7785   2.343   3.892   3.401
 2515WAT      O 7786   7.820  -0.001   7.326
 2515WAT     H1 7787   7.828   0.097   7.340
 2515WAT     H2 7788   7.736  -0.035   7.369
 2516WAT      O 7789   2.349   8.570   2.544
 2516WAT     H1 7790   2.263   8.587   2.591
 2516WAT     H2 7791   2.397   8.494   2.588
 2517WAT      O 7792   1.167   4.027   8.309
 2517WAT     H1 7793   1.174   3.935   8.270
 2517WAT     H2 7794   1.159   4.020   8.408
 2518WAT      O 7795   7.689   4.727   4.305
 2518WAT     H1 7796   7.607   4.721   4.363
 2518WAT     H2 7797   7.764   4.677   4.349
 2519WAT      O 7798   3.309   1.291   6.273
 2519WAT     H1 7799   3.259   1.363   6.323
 2519WAT     H2 7800   3.270   1.282   6.181
 2520WAT      O 7801   2.999   7.601   9.850
 2520WAT     H1 7802   2.961   7.561   9.934
 2520WAT     H2 7803   3.000   7.701   9.858
 2521WAT      O 7804   5.235   6.930   0.500
 2521WAT     H1 7805   5.284   6.849   0.531
 2521WAT     H2 7806   5.277   7.012   0.539
 2522WAT      O 7807   7.988   8.880   8.413
 2522WAT     H1 7808   7.895   8.916   8.399
 2522WAT     H2 7809   8.054   8.941   8.369
 2523WAT      O 7810   9.466   7.234   1.484
 2523WAT     H1 7811   9.449   7.150   1.536
 2523WAT     H2 7812   9.565   7.250   1.480
 2524WAT      O 7813   6.674   3.974   6.703
 2524WAT     H1 7814   6.668   3.879   6.670
 2524WAT     H2 7815   6.753   3.983   6.764
 2525WAT      O 7816   3.550   3.712   3.987
 2525WAT     H1 7817   3.643   3.698   4.020
 2525WAT     H2 7818   3.486   3.656   4.039
 2526WAT      O 7819   7.258   9.445   8.889
 2526WAT     H1 7820   7.178   9.438   8.948
 2526WAT     H2 7821   7.341   9.427   8.942
 2527WAT      O 7822   9.636   8.543   6.138
 2527WAT     H1 7823   9.717   8.488   6.158
 2527WAT     H2 7824   9.598   8.515   6.049
 2528WAT      O 7825   0.545   8.274   0.057
 2528WAT     H1 7826   0.608   8.234  -0.010
 2528WAT     H2 7827   0.598   8.324   0.126
 2529WAT      O 7828   1.073   4.436   8.875
 2529WAT     H1 7829   1.037   4.526   8.854
 2529WAT     H2 7830   1.166   4.445   8.913
 2530WAT      O 7831   2.710   9.753   1.631
 2530WAT     H1 7832   2.679   9.814   1.558
 2530WAT     H2 7833   2.693   9.796   1.720
 2531WAT      O 7834   2.154   0.973   8.417
 2531WAT     H1 7835   2.165   0.971   8.317
 2531WAT     H2 7836   2.065   1.012   8.439
 2532WAT      O 7837   7.227   2.694   2.628
 2532WAT     H1 7838   7.223   2.602   2.589
 2532WAT     H2 7839   7.289   2.751   2.574
 2533WAT      O 7840   4.181   4.214   5.229
 2533WAT     H1 7841   4.189   4.272   5.148
 2533WAT     H2 7842   4.100   4.155   5.220
 2534WAT      O 7843   4.738   6.117   5.318
 2534WAT     H1 7844   4.695   6.120   5.408
 2534WAT     H2 7845   4.668   6.130   5.247
 2535WAT      O 7846   7.126   8.852   9.591
 2535WAT     H1 7847   7.129   8.941   9.546
 2535WAT     H2 7848   7.181   8.856   9.675
 2536WAT      O 7849   8.341   4.400   4.202
 2536WAT     H1 7850   8.304   4.482   4.247
 2536WAT     H2 7851   8.294   4.385   4.115
 2537WAT      O 7852   3.300   6.395   5.635
 2537WAT     H1 7853   3.288   6.296   5.643
 2537WAT     H2 7854   3.297   6.422   5.539
 2538WAT      O 7855   9.537   1.868   5.399
 2538WAT     H1 7856   9.439   1.851   5.394
 2538WAT     H2 7857   9.553   1.961   5.432
 2539WAT      O 7858   9.039   7.139   7.780
 2539WAT     H1 7859   9.073   7.233   7.786
 2539WAT     H2 7860   8.950   7.138   7.734
 2540WAT      O 7861   3.333   1.926   3.575
 2540WAT     H1 7862   3.268   1.949   3.647
 2540WAT     H2 7863   3.335   1.999   3.507
 2541WAT      O 7864   9.668   2.539   5.583
 2541WAT     H1 7865   9.652   2.476   5.659
 2541WAT     H2 7866   9.624   2.627   5.603
 2542WAT      O 7867   4.991   3.216   2.382
 2542WAT     H1 7868   5.062   3.181   2.322
 2542WAT     H2 7869   5.028   3.228   2.474
 2543WAT      O 7870   8.047   4.970   2.961
 2543WAT     H1 7871   7.987   5.042   2.998
 2543WAT     H2 7872   8.057   4.898   3.029
 2544WAT      O 7873   8.643   1.103   6.237
 2544WAT     H1 7874   8.717   1.121   6.302
 2544WAT     H2 7875   8.645   1.172   6.165
 2545WAT      O 7876   1.734   3.959   5.283
 2545WAT     H1 7877   1.827   3.952   5.247
 2545WAT     H2 7878   1.717   4.052   5.315
 2546WAT      O 7879   2.724   1.191   8.023
 2546WAT     H1 7880   2.742   1.252   7.946
 2546WAT     H2 7881   2.656   1.122   7.996
 2547WAT      O 7882   2.395   2.024   3.507
 2547WAT     H1 7883   2.337   2.100   3.478
 2547WAT     H2 7884   2.442   1.986   3.427
 2548WAT      O 7885   9.256   8.228   9.202
 2548WAT     H1 7886   9.351   8.260   9.193
 2548WAT     H2 7887   9.251   8.160   9.275
 2549WAT      O 7888   0.938   1.894   0.885
 2549WAT     H1 7889   0.880   1.813   0.895
 2549WAT     H2 7890   0.955   1.934   0.975
 2550WAT      O 7891   1.377   9.362   0.851
 2550WAT     H1 7892   1.421   9.322   0.931
 2550WAT     H2 7893   1.341   9.452   0.873
 2551WAT      O 7894   8.989   4.765   9.605
 2551WAT     H1 7895   9.050   4.790   9.680
 2551WAT     H2 7896   8.962   4.670   9.615
 2552WAT      O 7897   7.244   6.603   1.508
 2552WAT     H1 7898   7.281   6.590   1.416
 2552WAT     H2 7899   7.196   6.520   1.537
 2553WAT      O 7900   7.230   2.416   2.539
 2553WAT     H1 7901   7.313   2.392   2.590
 2553WAT     H2 7902   7.153   2.361   2.573
 2554WAT      O 7903   8.550   5.093   8.825
 2554WAT     H1 7904   8.550   4.995   8.807
 2554WAT     H2 7905   8.524   5.110   8.920
 2555WAT      O 7906   2.213   2.985   5.946
 2555WAT     H1 7907   2.205   3.047   6.024
 2555WAT     H2 7908   2.288   3.015   5.887
 2556WAT      O 7909   2.977   3.597   6.586
 2556WAT     H1 7910   2.981   3.553   6.676
 2556WAT     H2 7911   2.923   3.541   6.524
 2557WAT      O 7912   5.281   7.949   4.743
 2557WAT     H1 7913   5.236   7.964   4.831
 2557WAT     H2 7914   5.351   8.019   4.729
 2558WAT      O 7915   7.177   4.177   3.435
 2558WAT     H1 7916   7.106   4.117   3.472
 2558WAT     H2 7917   7.202   4.146   3.343
 2559WAT      O 7918   3.008   1.150   1.482
 2559WAT     H1 7919   3.079   1.127   1.415
 2559WAT     H2 7920   3.001   1.076   1.548
 2560WAT      O 7921   9.099   6.574   8.396
 2560WAT     H1 7922   9.084   6.557   8.493
 2560WAT     H2 7923   9.044   6.652   8.367
 2561WAT      O 7924   1.068   9.032   5.620
 2561WAT     H1 7925   1.051   8.996   5.712
 2561WAT     H2 7926   1.037   9.127   5.616
 2562WAT      O 7927   3.216   1.698   1.857
 2562WAT     H1 7928   3.194   1.795   1.843
 2562WAT     H2 7929   3.305   1.690   1.901
 2563WAT      O 7930   0.095   5.560   6.885
 2563WAT     H1 7931   0.172   5.624   6.885
 2563WAT     H2 7932   0.124   5.471   6.850
 2564WAT      O 7933   7.812   4.219   5.355
 2564WAT     H1 7934   7.755   4.284   5.406
 2564WAT     H2 7935   7.884   4.269   5.307
 2565WAT      O 7936   9.791   3.469   6.858
 2565WAT     H1 7937   9.764   3.398   6.923
 2565WAT     H2 7938   9.832   3.425   6.778
 2566WAT      O 7939   9.070   5.447   3.291
 2566WAT     H1 7940   9.149   5.402   3.331
 2566WAT     H2 7941   8.993   5.445   3.355
 2567WAT      O 7942   7.052   8.500   4.027
 2567WAT     H1 7943   7.041   8.587   4.076
 2567WAT     H2 7944   7.091   8.518   3.937
 2568WAT      O 7945   1.183   8.502   2.719
 2568WAT     H1 7946   1.211   8.558   2.797
 2568WAT     H2 7947   1.235   8.417   2.717
 2569WAT      O 7948   8.712   6.249   5.579
 2569WAT     H1 7949   8.724   6.340   5.538
 2569WAT     H2 7950   8.632   6.205   5.540
 2570WAT      O 7951   1.635   1.572   8.142
 2570WAT     H1 7952   1.673   1.653   8.098
 2570WAT     H2 7953   1.691   1.492   8.119
 2571WAT      O 7954   9.115   3.554   9.668
 2571WAT     H1 7955   9.090   3.477   9.727
 2571WAT     H2 7956   9.210   3.580   9.685
 2572WAT      O 7957   0.400   1.586   8.076
 2572WAT     H1 7958   0.424   1.683   8.081
 2572WAT     H2 7959   0.433   1.548   7.989
 2573WAT      O 7960   1.829   2.946   5.654
 2573WAT     H1 7961   1.913   2.929   5.603
 2573WAT     H2 7962   1.765   2.997   5.597
 2574WAT      O 7963   8.528   0.178   2.345
 2574WAT     H1 7964   8.507   0.153   2.251
 2574WAT     H2 7965   8.444   0.206   2.392
 2575WAT      O 7966   7.678   0.618   2.259
 2575WAT     H1 7967   7.732   0.536   2.242
 2575WAT     H2 7968   7.661   0.629   2.357
 2576WAT      O 7969   2.034   0.957   3.979
 2576WAT     H1 7970   2.033   1.049   4.019
 2576WAT     H2 7971   2.036   0.964   3.879
 2577WAT      O 7972   0.700   5.459   4.193
 2577WAT     H1 7973   0.790   5.416   4.204
 2577WAT     H2 7974   0.710   5.541   4.136
 2578WAT      O 7975   8.830   3.748   2.398
 2578WAT     H1 7976   8.778   3.704   2.472
 2578WAT     H2 7977   8.863   3.837   2.428
 2579WAT      O 7978   5.841   8.616   6.126
 2579WAT     H1 7979   5.863   8.699   6.177
 2579WAT     H2 7980   5.915   8.550   6.136
 2580WAT      O 7981   2.981   1.289   4.905
 2580WAT     H1 7982   3.000   1.194   4.931
 2580WAT     H2 7983   2.922   1.331   4.973
 2581WAT      O 7984   1.512   6.842   5.640
 2581WAT     H1 7985   1.586   6.909   5.644
 2581WAT     H2 7986   1.549   6.753   5.610
 2582WAT      O 7987   5.697   9.635   6.387
 2582WAT     H1 7988   5.752   9.610   6.307
 2582WAT     H2 7989   5.611   9.585   6.385
 2583WAT      O 7990   2.463   2.218   8.122
 2583WAT     H1 7991   2.513   2.273   8.055
 2583WAT     H2 7992   2.365   2.229   8.108
 2584WAT      O 7993   3.970   2.167   9.353
 2584WAT     H1 7994   3.989   2.069   9.360
 2584WAT     H2 7995   3.947   2.203   9.444
 2585WAT      O 7996   7.515   6.303   4.122
 2585WAT     H1 7997   7.574   6.296   4.203
 2585WAT     H2 7998   7.497   6.212   4.086
 2586WAT      O 7999   0.334   3.133   9.477
 2586WAT     H1 8000   0.387   3.085   9.546
 2586WAT     H2 8001   0.332   3.231   9.498
 2587WAT      O 8002   7.847   3.912   8.317
 2587WAT     H1 8003   7.916   3.920   8.389
 2587WAT     H2 8004   7.862   3.983   8.248
 2588WAT      O 8005   4.447   3.226   0.086
 2588WAT     H1 8006   4.513   3.299   0.071
 2588WAT     H2 8007   4.418   3.189  -0.002
 2589WAT      O 8008   5.290   8.386   3.237
 2589WAT     H1 8009   5.335   8.297   3.247
 2589WAT     H2 8010   5.280   8.429   3.327
 2590WAT      O 8011   4.510   2.851   6.544
 2590WAT     H1 8012   4.543   2.846   6.450
 2590WAT     H2 8013   4.468   2.941   6.560
 2591WAT      O 8014   2.489   6.510   3.785
 2591WAT     H1 8015   2.416   6.574   3.810
 2591WAT     H2 8016   2.575   6.560   3.778
 2592WAT      O 8017   5.397   8.820   8.820
 2592WAT     H1 8018   5.377   8.830   8.918
 2592WAT     H2 8019   5.485   8.772   8.809
 2593WAT      O 8020   4.481   9.429   8.734
 2593WAT     H1 8021   4.573   9.452   8.703
 2593WAT     H2 8022   4.454   9.491   8.807
 2594WAT      O 8023   9.746   4.688   6.926
 2594WAT     H1 8024   9.783   4.724   6.840
 2594WAT     H2 8025   9.673   4.748   6.958
 2595WAT      O 8026   6.859   5.417   0.767
 2595WAT     H1 8027   6.816   5.332   0.795
 2595WAT     H2 8028   6.958   5.412   0.784
 2596WAT      O 8029   0.782   0.153   3.522
 2596WAT     H1 8030   0.851   0.220   3.494
 2596WAT     H2 8031   0.752   0.101   3.442
 2597WAT      O 8032   0.113   0.672   1.892
 2597WAT     H1 8033   0.206   0.688   1.860
 2597WAT     H2 8034   0.116   0.635   1.985
 2598WAT      O 8035   4.898   3.973   4.988
 2598WAT     H1 8036   4.889   3.890   5.044
 2598WAT     H2 8037   4.982   3.967   4.933
 2599WAT      O 8038   4.199   6.837   5.567
 2599WAT     H1 8039   4.167   6.742   5.568
 2599WAT     H2 8040   4.133   6.893   5.516
 2600WAT      O 8041   2.020   1.480   0.470
 2600WAT     H1 8042   2.068   1.494   0.383
 2600WAT     H2 8043   1.929   1.522   0.465
 2601WAT      O 8044   6.341   1.476   1.422
 2601WAT     H1 8045   6.329   1.430   1.511
 2601WAT     H2 8046   6.376   1.410   1.356
 2602WAT      O 8047   8.447   2.118   8.201
 2602WAT     H1 8048   8.353   2.137   8.231
 2602WAT     H2 8049   8.505   2.105   8.281
 2603WAT      O 8050   0.344   8.673   8.956
 2603WAT     H1 8051   0.311   8.644   9.045
 2603WAT     H2 8052   0.316   8.607   8.887
 2604WAT      O 8053   4.959   5.807   6.579
 2604WAT     H1 8054   4.869   5.783   6.542
 2604WAT     H2 8055   4.959   5.790   6.678
 2605WAT      O 8056   9.239   0.844   5.262
 2605WAT     H1 8057   9.305   0.892   5.321
 2605WAT     H2 8058   9.260   0.746   5.263
 2606WAT      O 8059   7.356   3.308   7.050
 2606WAT     H1 8060   7.261   3.323   7.076
 2606WAT     H2 8061   7.385   3.378   6.985
 2607WAT      O 8062   4.485   8.703   1.339
 2607WAT     H1 8063   4.481   8.606   1.312
 2607WAT     H2 8064   4.530   8.711   1.428
 2608WAT      O 8065   5.521   7.157   4.913
 2608WAT     H1 8066   5.504   7.151   5.011
 2608WAT     H2 8067   5.549   7.068   4.877
 2609WAT      O 8068   8.188   6.101   8.934
 2609WAT     H1 8069   8.099   6.115   8.977
 2609WAT     H2 8070   8.176   6.066   8.841
 2610WAT      O 8071   1.648   1.453   6.156
 2610WAT     H1 8072   1.576   1.384   6.147
 2610WAT     H2 8073   1.621   1.535   6.106
 2611WAT      O 8074   2.704   7.552   6.543
 2611WAT     H1 8075   2.740   7.517   6.629
 2611WAT     H2 8076   2.609   7.581   6.556
 2612WAT      O 8077   6.083   0.527   4.972
 2612WAT     H1 8078   6.144   0.506   4.895
 2612WAT     H2 8079   6.100   0.463   5.047
 2613WAT      O 8080   4.829   8.561   5.912
 2613WAT     H1 8081   4.768   8.640   5.923
 2613WAT     H2 8082   4.786   8.480   5.953
 2614WAT      O 8083   1.992   4.405   3.559
 2614WAT     H1 8084   1.981   4.329   3.495
 2614WAT     H2 8085   2.073   4.389   3.616
 2615WAT      O 8086   2.135   9.449   3.933
 2615WAT     H1 8087   2.110   9.522   3.997
 2615WAT     H2 8088   2.170   9.370   3.984
 2616WAT      O 8089   0.446   1.937   6.983
 2616WAT     H1 8090   0.455   2.030   7.019
 2616WAT     H2 8091   0.535   1.893   6.983
 2617WAT      O 8092   4.316   6.538   9.377
 2617WAT     H1 8093   4.317   6.596   9.458
 2617WAT     H2 8094   4.221   6.515   9.354
 2618WAT      O 8095   2.028   5.134   8.624
 2618WAT     H1 8096   1.935   5.097   8.622
 2618WAT     H2 8097   2.030   5.220   8.573
 2619WAT      O 8098   1.008   0.604   8.913
 2619WAT     H1 8099   1.033   0.686   8.965
 2619WAT     H2 8100   1.013   0.524   8.972
 2620WAT      O 8101   2.441   7.969   4.645
 2620WAT     H1 8102   2.426   7.880   4.688
 2620WAT     H2 8103   2.527   8.007   4.677
 2621WAT      O 8104   8.086   4.814   3.602
 2621WAT     H1 8105   7.997   4.778   3.629
 2621WAT     H2 8106   8.154   4.792   3.673
 2622WAT      O 8107   0.625   4.872   5.320
 2622WAT     H1 8108   0.583   4.841   5.405
 2622WAT     H2 8109   0.715   4.912   5.339
 2623WAT      O 8110   3.569   5.531   5.548
 2623WAT     H1 8111   3.499   5.550   5.616
 2623WAT     H2 8112   3.609   5.441   5.566
 2624WAT      O 8113   9.533   8.966   5.365
 2624WAT     H1 8114   9.451   8.913   5.342
 2624WAT     H2 8115   9.586   8.983   5.282
 2625WAT      O 8116   1.087   5.703   1.952
 2625WAT     H1 8117   1.035   5.620   1.973
 2625WAT     H2 8118   1.183   5.688   1.975
 2626WAT      O 8119   1.745   2.730   2.773
 2626WAT     H1 8120   1.753   2.737   2.673
 2626WAT     H2 8121   1.700   2.644   2.797
 2627WAT      O 8122   7.507   2.147   3.752
 2627WAT     H1 8123   7.469   2.179   3.666
 2627WAT     H2 8124   7.433   2.134   3.818
 2628WAT      O 8125   7.286   5.187   1.327
 2628WAT     H1 8126   7.226   5.116   1.364
 2628WAT     H2 8127   7.283   5.185   1.227
 2629WAT      O 8128   4.847   7.656   4.557
 2629WAT     H1 8129   4.931   7.628   4.511
 2629WAT     H2 8130   4.774   7.590   4.535
 2630WAT      O 8131   7.640   5.254   7.899
 2630WAT     H1 8132   7.691   5.180   7.942
 2630WAT     H2 8133   7.543   5.246   7.922
 2631WAT      O 8134   4.143   9.712   3.094
 2631WAT     H1 8135   4.201   9.648   3.045
 2631WAT     H2 8136   4.176   9.805   3.079
 2632WAT      O 8137   0.479   6.872   4.659
 2632WAT     H1 8138   0.482   6.807   4.582
 2632WAT     H2 8139   0.572   6.894   4.687
 2633WAT      O 8140   6.874   4.985   9.445
 2633WAT     H1 8141   6.873   5.006   9.543
 2633WAT     H2 8142   6.938   5.047   9.398
 2634WAT      O 8143   0.937   2.886   5.307
 2634WAT     H1 8144   0.932   2.963   5.244
 2634WAT     H2 8145   1.029   2.848   5.307
 2635WAT      O 8146   2.910   7.281   3.045
 2635WAT     H1 8147   2.988   7.239   3.092
 2635WAT     H2 8148   2.843   7.312   3.113
 2636WAT      O 8149   1.380   0.099   9.656
 2636WAT     H1 8150   1.286   0.077   9.681
 2636WAT     H2 8151   1.433   0.118   9.739
 2637WAT      O 8152   8.130   4.682   5.802
 2637WAT     H1 8153   8.195   4.636   5.741
 2637WAT     H2 8154   8.036   4.661   5.773
 2638WAT      O 8155   6.548   2.527   0.591
 2638WAT     H1 8156   6.490   2.519   0.510
 2638WAT     H2 8157   6.630   2.579   0.567
 2639WAT      O 8158   0.518   1.629   3.655
 2639WAT     H1 8159   0.423   1.650   3.682
 2639WAT     H2 8160   0.577   1.706   3.680
 2640WAT      O 8161   6.219   2.443   9.402
 2640WAT     H1 8162   6.184   2.415   9.313
 2640WAT     H2 8163   6.143   2.458   9.465
 2641WAT      O 8164   8.848   5.437   7.048
 2641WAT     H1 8165   8.892   5.355   7.087
 2641WAT     H2 8166   8.829   5.422   6.951
 2642WAT      O 8167   3.706   7.341   1.075
 2642WAT     H1 8168   3.658   7.426   1.096
 2642WAT     H2 8169   3.647   7.263   1.098
 2643WAT      O 8170   2.573   2.396   6.116
 2643WAT     H1 8171   2.504   2.345   6.167
 2643WAT     H2 8172   2.555   2.494   6.125
 2644WAT      O 8173   1.644   6.470   7.142
 2644WAT     H1 8174   1.589   6.412   7.202
 2644WAT     H2 8175   1.604   6.562   7.140
 2645WAT      O 8176   1.423   7.316   3.026
 2645WAT     H1 8177   1.354   7.245   3.008
 2645WAT     H2 8178   1.382   7.406   3.012
 2646WAT      O 8179   4.516   8.320   7.606
 2646WAT     H1 8180   4.608   8.337   7.570
 2646WAT     H2 8181   4.522   8.262   7.687
 2647WAT      O 8182   1.420   1.028   6.834
 2647WAT     H1 8183   1.429   0.999   6.930
 2647WAT     H2 8184   1.434   1.127   6.828
 2648WAT      O 8185   2.926   2.713   3.970
 2648WAT     H1 8186   2.878   2.625   3.968
 2648WAT     H2 8187   2.983   2.721   3.888
 2649WAT      O 8188   1.583   8.725   6.835
 2649WAT     H1 8189   1.513   8.672   6.884
 2649WAT     H2 8190   1.674   8.699   6.867
 2650WAT      O 8191   4.406   2.542   8.834
 2650WAT     H1 8192   4.324   2.598   8.817
 2650WAT     H2 8193   4.380   2.457   8.880
 2651WAT      O 8194   5.773   3.711   5.216
 2651WAT     H1 8195   5.786   3.685   5.121
 2651WAT     H2 8196   5.676   3.729   5.233
 2652WAT      O 8197   2.980   0.742   2.743
 2652WAT     H1 8198   2.898   0.738   2.686
 2652WAT     H2 8199   3.029   0.828   2.724
 2653WAT      O 8200   2.720   6.172   6.496
 2653WAT     H1 8201   2.690   6.246   6.436
 2653WAT     H2 8202   2.641   6.133   6.543
 2654WAT      O 8203   3.316   5.459   7.811
 2654WAT     H1 8204   3.375   5.408   7.749
 2654WAT     H2 8205   3.370   5.496   7.887
 2655WAT      O 8206   0.581   6.274   0.671
 2655WAT     H1 8207   0.496   6.271   0.725
 2655WAT     H2 8208   0.627   6.186   0.677
 2656WAT      O 8209   8.065   9.713   2.476
 2656WAT     H1 8210   8.085   9.724   2.379
 2656WAT     H2 8211   7.970   9.737   2.494
 2657WAT      O 8212   1.917   0.166   0.378
 2657WAT     H1 8213   1.964   0.105   0.442
 2657WAT     H2 8214   1.923   0.260   0.410
 2658WAT      O 8215   4.969   1.055   9.116
 2658WAT     H1 8216   5.004   1.026   9.205
 2658WAT     H2 8217   5.046   1.082   9.058
 2659WAT      O 8218   1.907   6.276   1.845
 2659WAT     H1 8219   1.937   6.355   1.791
 2659WAT     H2 8220   1.950   6.279   1.935
 2660WAT      O 8221   6.723   7.962   9.199
 2660WAT     H1 8222   6.701   7.949   9.296
 2660WAT     H2 8223   6.777   7.885   9.166
 2661WAT      O 8224   4.343   5.082   5.686
 2661WAT     H1 8225   4.280   5.066   5.763
 2661WAT     H2 8226   4.381   4.994   5.656
 2662WAT      O 8227   3.245   1.354   5.377
 2662WAT     H1 8228   3.193   1.280   5.335
 2662WAT     H2 8229   3.343   1.340   5.361
 2663WAT      O 8230   3.355   2.134   9.261
 2663WAT     H1 8231   3.349   2.036   9.244
 2663WAT     H2 8232   3.348   2.150   9.360
 2664WAT      O 8233   3.494   4.476   9.105
 2664WAT     H1 8234   3.467   4.443   9.196
 2664WAT     H2 8235   3.508   4.575   9.109
 2665WAT      O 8236   2.078   4.719   0.823
 2665WAT     H1 8237   2.142   4.756   0.890
 2665WAT     H2 8238   1.988   4.761   0.836
 2666WAT      O 8239   9.332   5.693   6.885
 2666WAT     H1 8240   9.338   5.766   6.953
 2666WAT     H2 8241   9.377   5.723   6.800
 2667WAT      O 8242   6.444   2.494   3.555
 2667WAT     H1 8243   6.423   2.542   3.470
 2667WAT     H2 8244   6.519   2.429   3.538
 2668WAT      O 8245   5.255   2.870   1.940
 2668WAT     H1 8246   5.187   2.942   1.951
 2668WAT     H2 8247   5.253   2.809   2.019
 2669WAT      O 8248   1.005   6.800   8.894
 2669WAT     H1 8249   0.939   6.746   8.946
 2669WAT     H2 8250   1.051   6.741   8.827
 2670WAT      O 8251   0.135   5.281   2.047
 2670WAT     H1 8252   0.200   5.250   2.116
 2670WAT     H2 8253   0.042   5.261   2.076
 2671WAT      O 8254   5.705   9.490   9.200
 2671WAT     H1 8255   5.706   9.543   9.285
 2671WAT     H2 8256   5.629   9.425   9.202
 2672WAT      O 8257   4.864   7.140   7.181
 2672WAT     H1 8258   4.775   7.185   7.189
 2672WAT     H2 8259   4.920   7.189   7.114
 2673WAT      O 8260   9.212   4.769   6.106
 2673WAT     H1 8261   9.143   4.766   6.178
 2673WAT     H2 8262   9.269   4.850   6.118
 2674WAT      O 8263   6.203   0.605   4.738
 2674WAT     H1 8264   6.259   0.637   4.661
 2674WAT     H2 8265   6.178   0.509   4.723
 2675WAT      O 8266   6.912   6.479   2.661
 2675WAT     H1 8267   6.888   6.386   2.691
 2675WAT     H2 8268   6.907   6.541   2.739
 2676WAT      O 8269   8.452   5.935   0.082
 2676WAT     H1 8270   8.439   5.904   0.177
 2676WAT     H2 8271   8.455   5.855   0.022
 2677WAT      O 8272   4.070   3.853   1.834
 2677WAT     H1 8273   4.143   3.886   1.773
 2677WAT     H2 8274   3.988   3.834   1.781
 2678WAT      O 8275   9.063   1.472   4.834
 2678WAT     H1 8276   9.005   1.391   4.822
 2678WAT     H2 8277   9.107   1.469   4.923
 2679WAT      O 8278   7.393   5.675   3.488
 2679WAT     H1 8279   7.401   5.684   3.389
 2679WAT     H2 8280   7.456   5.739   3.532
 2680WAT      O 8281   6.874   1.639   7.286
 2680WAT     H1 8282   6.924   1.671   7.366
 2680WAT     H2 8283   6.839   1.717   7.234
 2681WAT      O 8284   1.050   2.508   7.325
 2681WAT     H1 8285   1.026   2.412   7.307
 2681WAT     H2 8286   1.042   2.527   7.422
 2682WAT      O 8287   5.710   0.173   9.581
 2682WAT     H1 8288   5.748   0.264   9.600
 2682WAT     H2 8289   5.764   0.130   9.508
 2683WAT      O 8290   1.387   2.192   8.460
 2683WAT     H1 8291   1.324   2.233   8.395
 2683WAT     H2 8292   1.459   2.144   8.410
 2684WAT      O 8293   6.388   8.459   2.547
 2684WAT     H1 8294   6.444   8.382   2.578
 2684WAT     H2 8295   6.353   8.509   2.626
 2685WAT      O 8296   6.990   2.636   6.517
 2685WAT     H1 8297   7.066   2.662   6.457
 2685WAT     H2 8298   7.013   2.660   6.611
 2686WAT      O 8299   2.437   4.502   0.029
 2686WAT     H1 8300   2.525   4.462   0.058
 2686WAT     H2 8301   2.364   4.436   0.046
 2687WAT      O 8302   9.595   3.658   3.921
 2687WAT     H1 8303   9.683   3.707   3.921
 2687WAT     H2 8304   9.591   3.597   3.842
 2688WAT      O 8305   1.028   7.665   4.546
 2688WAT     H1 8306   1.024   7.625   4.637
 2688WAT     H2 8307   0.960   7.621   4.487
 2689WAT      O 8308   2.571   5.361   5.326
 2689WAT     H1 8309   2.621   5.358   5.239
 2689WAT     H2 8310   2.633   5.389   5.399
 2690WAT      O 8311   4.755   0.026   1.134
 2690WAT     H1 8312   4.757  -0.037   1.212
 2690WAT     H2 8313   4.781  -0.023   1.051
 2691WAT      O 8314   9.683   5.684   7.078
 2691WAT     H1 8315   9.751   5.646   7.141
 2691WAT     H2 8316   9.693   5.640   6.988
 2692WAT      O 8317   3.266   7.298   5.044
 2692WAT     H1 8318   3.167   7.306   5.052
 2692WAT     H2 8319   3.308   7.385   5.069
 2693WAT      O 8320   7.863   7.118   9.262
 2693WAT     H1 8321   7.784   7.066   9.295
 2693WAT     H2 8322   7.947   7.068   9.284
 2694WAT      O 8323   2.455   5.399   4.853
 2694WAT     H1 8324   2.454   5.314   4.905
 2694WAT     H2 8325   2.378   5.399   4.788
 2695WAT      O 8326   6.741   8.523   6.159
 2695WAT     H1 8327   6.731   8.423   6.156
 2695WAT     H2 8328   6.769   8.556   6.069
 2696WAT      O 8329   4.055   9.301   4.288
 2696WAT     H1 8330   4.125   9.235   4.316
 2696WAT     H2 8331   3.965   9.258   4.290
 2697WAT      O 8332   4.970   0.645   9.649
 2697WAT     H1 8333   5.059   0.631   9.693
 2697WAT     H2 8334   4.939   0.559   9.608
 2698WAT      O 8335   7.684   3.503   0.205
 2698WAT     H1 8336   7.726   3.528   0.293
 2698WAT     H2 8337   7.585   3.498   0.216
 2699WAT      O 8338   3.821   2.993   7.451
 2699WAT     H1 8339   3.838   3.091   7.464
 2699WAT     H2 8340   3.882   2.959   7.380
 2700WAT      O 8341   0.143   1.994   7.816
 2700WAT     H1 8342   0.164   1.896   7.827
 2700WAT     H2 8343   0.169   2.043   7.899
 2701WAT      O 8344   3.348   8.201   7.282
 2701WAT     H1 8345   3.253   8.201   7.315
 2701WAT     H2 8346   3.362   8.122   7.222
 2702WAT      O 8347   3.475   5.832   3.484
 2702WAT     H1 8348   3.463   5.889   3.565
 2702WAT     H2 8349   3.411   5.861   3.413
 2703WAT      O 8350   3.828   8.299   8.906
 2703WAT     H1 8351   3.739   8.284   8.949
 2703WAT     H2 8352   3.837   8.239   8.827
 2704WAT      O 8353   4.667   6.903   2.681
 2704WAT     H1 8354   4.606   6.825   2.671
 2704WAT     H2 8355   4.731   6.885   2.756
 2705WAT      O 8356   1.148   8.902   1.220
 2705WAT     H1 8357   1.117   8.816   1.180
 2705WAT     H2 8358   1.227   8.936   1.168
 2706WAT      O 8359   7.389   2.234   3.518
 2706WAT     H1 8360   7.297   2.221   3.480
 2706WAT     H2 8361   7.457   2.218   3.446
 2707WAT      O 8362   9.598   7.624   6.914
 2707WAT     H1 8363   9.629   7.567   6.838
 2707WAT     H2 8364   9.498   7.630   6.913
 2708WAT      O 8365   9.718   5.445   3.082
 2708WAT     H1 8366   9.809   5.469   3.116
 2708WAT     H2 8367   9.684   5.517   3.021
 2709WAT      O 8368   5.638   0.561   4.119
 2709WAT     H1 8369   5.676   0.570   4.027
 2709WAT     H2 8370   5.638   0.464   4.146
 2710WAT      O 8371   9.769   9.553   7.997
 2710WAT     H1 8372   9.761   9.597   8.087
 2710WAT     H2 8373   9.744   9.619   7.926
 2711WAT      O 8374   5.945   4.473   7.399
 2711WAT     H1 8375   5.845   4.468   7.399
 2711WAT     H2 8376   5.975   4.530   7.322
 2712WAT      O 8377   0.532   6.749   6.635
 2712WAT     H1 8378   0.554   6.807   6.714
 2712WAT     H2 8379   0.434   6.733   6.632
 2713WAT      O 8380   5.898   1.631   8.945
 2713WAT     H1 8381   5.799   1.620   8.938
 2713WAT     H2 8382   5.926   1.618   9.040
 2714WAT      O 8383   0.607   2.906   3.867
 2714WAT     H1 8384   0.634   2.815   3.836
 2714WAT     H2 8385   0.509   2.906   3.887
 2715WAT      O 8386   5.181   2.783   8.212
 2715WAT     H1 8387   5.208   2.700   8.164
 2715WAT     H2 8388   5.248   2.855   8.194
 2716WAT      O 8389   2.339   6.448   1.325
 2716WAT     H1 8390   2.381   6.452   1.235
 2716WAT     H2 8391   2.246   6.412   1.318
 2717WAT      O 8392   9.339   4.683   8.464
 2717WAT     H1 8393   9.241   4.668   8.455
 2717WAT     H2 8394   9.375   4.723   8.379
 2718WAT      O 8395   5.757   6.635   9.259
 2718WAT     H1 8396   5.738   6.692   9.339
 2718WAT     H2 8397   5.815   6.558   9.286
 2719WAT      O 8398   1.149   8.512   5.328
 2719WAT     H1 8399   1.192   8.471   5.408
 2719WAT     H2 8400   1.196   8.482   5.245
 2720WAT      O 8401   2.073   5.544   7.746
 2720WAT     H1 8402   2.052   5.631   7.790
 2720WAT     H2 8403   2.145   5.558   7.677
 2721WAT      O 8404   7.730   0.548   0.858
 2721WAT     H1 8405   7.804   0.503   0.908
 2721WAT     H2 8406   7.660   0.481   0.833
 2722WAT      O 8407   9.864   9.346   9.679
 2722WAT     H1 8408   9.779   9.394   9.657
 2722WAT     H2 8409   9.861   9.255   9.639
 2723WAT      O 8410   2.010   4.385   9.569
 2723WAT     H1 8411   2.068   4.466   9.581
 2723WAT     H2 8412   1.916   4.413   9.549
 2724WAT      O 8413   8.537   0.400   6.879
 2724WAT     H1 8414   8.594   0.322   6.903
 2724WAT     H2 8415   8.555   0.427   6.784
 2725WAT      O 8416   4.564   8.472   3.130
 2725WAT     H1 8417   4.561   8.372   3.131
 2725WAT     H2 8418   4.542   8.507   3.221
 2726WAT      O 8419   2.045   2.143   1.454
 2726WAT     H1 8420   2.127   2.199   1.459
 2726WAT     H2 8421   2.026   2.118   1.359
 2727WAT      O 8422   3.839   6.895   7.925
 2727WAT     H1 8423   3.794   6.924   8.010
 2727WAT     H2 8424   3.936   6.880   7.942
 2728WAT      O 8425   6.651   0.211   1.344
 2728WAT     H1 8426   6.673   0.117   1.320
 2728WAT     H2 8427   6.631   0.264   1.262
 2729WAT      O 8428   2.605   8.911   3.187
 2729WAT     H1 8429   2.671   8.888   3.115
 2729WAT     H2 8430   2.549   8.988   3.158
 2730WAT      O 8431   5.245   9.074   1.065
 2730WAT     H1 8432   5.196   9.107   1.146
 2730WAT     H2 8433   5.331   9.032   1.093
 2731WAT      O 8434   3.009   3.050   6.673
 2731WAT     H1 8435   2.949   2.984   6.718
 2731WAT     H2 8436   3.099   3.009   6.660
 2732WAT      O 8437   9.372   0.153   4.384
 2732WAT     H1 8438   9.281   0.145   4.346
 2732WAT     H2 8439   9.400   0.066   4.425
 2733WAT      O 8440   8.399   2.983   0.254
 2733WAT     H1 8441   8.387   3.065   0.198
 2733WAT     H2 8442   8.311   2.957   0.294
 2734WAT      O 8443   9.418   4.458   5.330
 2734WAT     H1 8444   9.450   4.547   5.364
 2734WAT     H2 8445   9.453   4.442   5.238
 2735WAT      O 8446   0.497   0.937   5.496
 2735WAT     H1 8447   0.460   1.019   5.540
 2735WAT     H2 8448   0.436   0.860   5.515
 2736WAT      O 8449   1.779   8.273   3.540
 2736WAT     H1 8450   1.826   8.268   3.628
 2736WAT     H2 8451   1.706   8.341   3.545
 2737WAT      O 8452   8.375   3.786   6.870
 2737WAT     H1 8453   8.401   3.882   6.859
 2737WAT     H2 8454   8.306   3.762   6.802
 2738WAT      O 8455   0.446   6.908   5.531
 2738WAT     H1 8456   0.379   6.964   5.580
 2738WAT     H2 8457   0.423   6.812   5.542
 2739WAT      O 8458   2.191   4.576   3.347
 2739WAT     H1 8459   2.279   4.609   3.382
 2739WAT     H2 8460   2.192   4.476   3.344
 2740WAT      O 8461   8.703   1.771   8.955
 2740WAT     H1 8462   8.705   1.810   8.862
 2740WAT     H2 8463   8.642   1.692   8.957
 2741WAT      O 8464   0.145   5.491   0.478
 2741WAT     H1 8465   0.217   5.437   0.436
 2741WAT     H2 8466   0.180   5.536   0.559
 2742WAT      O 8467   0.451   2.460   5.163
 2742WAT     H1 8468   0.461   2.482   5.260
 2742WAT     H2 8469   0.510   2.520   5.109
 2743WAT      O 8470   2.160   7.088   8.094
 2743WAT     H1 8471   2.163   7.112   7.997
 2743WAT     H2 8472   2.120   7.163   8.146
 2744WAT      O 8473   5.201   7.508   3.340
 2744WAT     H1 8474   5.145   7.426   3.348
 2744WAT     H2 8475   5.152   7.576   3.285
 2745WAT      O 8476   4.455   8.088   2.583
 2745WAT     H1 8477   4.451   8.046   2.492
 2745WAT     H2 8478   4.518   8.036   2.641
 2746WAT      O 8479   6.122   0.198   9.306
 2746WAT     H1 8480   6.201   0.241   9.262
 2746WAT     H2 8481   6.039   0.219   9.255
 2747WAT      O 8482   4.502   0.222   5.722
 2747WAT     H1 8483   4.494   0.279   5.640
 2747WAT     H2 8484   4.516   0.127   5.696
 2748WAT      O 8485   6.266   7.712   9.765
 2748WAT     H1 8486   6.168   7.728   9.774
 2748WAT     H2 8487   6.284   7.614   9.760
 2749WAT      O 8488   9.540   4.047   9.239
 2749WAT     H1 8489   9.467   4.026   9.174
 2749WAT     H2 8490   9.563   3.965   9.291
 2750WAT      O 8491   6.150   5.992   4.277
 2750WAT     H1 8492   6.053   5.984   4.300
 2750WAT     H2 8493   6.190   5.901   4.268
 2751WAT      O 8494   8.489   8.205   4.586
 2751WAT     H1 8495   8.573   8.254   4.561
 2751WAT     H2 8496   8.512   8.112   4.613
 2752WAT      O 8497   3.622   1.048   4.773
 2752WAT     H1 8498   3.611   1.010   4.682
 2752WAT     H2 8499   3.719   1.063   4.792
 2753WAT      O 8500   7.979   5.323   6.404
 2753WAT     H1 8501   7.879   5.323   6.396
 2753WAT     H2 8502   8.006   5.273   6.487
 2754WAT      O 8503   2.985   6.638   3.964
 2754WAT     H1 8504   3.057   6.575   3.935
 2754WAT     H2 8505   3.026   6.726   3.989
 2755WAT      O 8506   1.126   3.066   4.920
 2755WAT     H1 8507   1.222   3.058   4.893
 2755WAT     H2 8508   1.090   3.154   4.888
 2756WAT      O 8509   7.123   4.150   4.708
 2756WAT     H1 8510   7.107   4.211   4.785
 2756WAT     H2 8511   7.102   4.056   4.734
 2757WAT      O 8512   0.015   7.296   4.007
 2757WAT     H1 8513  -0.022   7.382   3.972
 2757WAT     H2 8514   0.112   7.308   4.029
 2758WAT      O 8515   9.786   7.826   3.091
 2758WAT     H1 8516   9.788   7.802   2.994
 2758WAT     H2 8517   9.873   7.869   3.117
 2759WAT      O 8518   9.670   9.773   7.874
 2759WAT     H1 8519   9.714   9.839   7.936
 2759WAT     H2 8520   9.572   9.772   7.891
 2760WAT      O 8521   6.359   5.166   2.087
 2760WAT     H1 8522   6.287   5.101   2.065
 2760WAT     H2 8523   6.427   5.122   2.146
 2761WAT      O 8524   9.576   8.101   8.617
 2761WAT     H1 8525   9.670   8.072   8.596
 2761WAT     H2 8526   9.575   8.146   8.706
 2762WAT      O 8527   5.840   0.648   7.603
 2762WAT     H1 8528   5.935   0.636   7.633
 2762WAT     H2 8529   5.838   0.706   7.521
 2763WAT      O 8530   0.471   3.435   2.112
 2763WAT     H1 8531   0.569   3.444   2.099
 2763WAT     H2 8532   0.425   3.438   2.023
 2764WAT      O 8533   3.206   6.994   4.767
 2764WAT     H1 8534   3.260   6.946   4.698
 2764WAT     H2 8535   3.266   7.050   4.824
 2765WAT      O 8536   3.769   2.780   6.372
 2765WAT     H1 8537   3.793   2.826   6.287
 2765WAT     H2 8538   3.716   2.842   6.430
 2766WAT      O 8539   9.025   9.820   1.795
 2766WAT     H1 8540   8.934   9.819   1.838
 2766WAT     H2 8541   9.092   9.780   1.858
 2767WAT      O 8542   0.251   0.935   8.950
 2767WAT     H1 8543   0.284   0.852   8.996
 2767WAT     H2 8544   0.254   0.922   8.851
 2768WAT      O 8545   1.140   9.001   7.398
 2768WAT     H1 8546   1.239   8.990   7.406
 2768WAT     H2 8547   1.096   8.975   7.484
 2769WAT      O 8548   2.152   9.032   8.360
 2769WAT     H1 8549   2.069   9.007   8.310
 2769WAT     H2 8550   2.229   8.977   8.328
 2770WAT      O 8551   9.875   2.463   3.481
 2770WAT     H1 8552   9.959   2.438   3.530
 2770WAT     H2 8553   9.815   2.383   3.475
 2771WAT      O 8554   4.413   4.834   1.755
 2771WAT     H1 8555   4.469   4.877   1.684
 2771WAT     H2 8556   4.443   4.739   1.767
 2772WAT      O 8557   6.541   6.843   3.231
 2772WAT     H1 8558   6.504   6.814   3.319
 2772WAT     H2 8559   6.516   6.938   3.214
 2773WAT      O 8560   1.083   6.088   6.753
 2773WAT     H1 8561   1.057   6.138   6.671
 2773WAT     H2 8562   1.021   6.011   6.767
 2774WAT      O 8563   3.154   1.270   1.722
 2774WAT     H1 8564   3.108   1.235   1.640
 2774WAT     H2 8565   3.213   1.347   1.696
 2775WAT      O 8566   0.641   6.177   7.156
 2775WAT     H1 8567   0.692   6.160   7.072
 2775WAT     H2 8568   0.657   6.103   7.221
 2776WAT      O 8569   9.289   1.879   4.825
 2776WAT     H1 8570   9.226   1.957   4.831
 2776WAT     H2 8571   9.363   1.891   4.891
 2777WAT      O 8572   8.461   9.730   6.344
 2777WAT     H1 8573   8.451   9.638   6.304
 2777WAT     H2 8574   8.411   9.796   6.287
 2778WAT      O 8575   7.518   3.799   7.233
 2778WAT     H1 8576   7.606   3.756   7.252
 2778WAT     H2 8577   7.533   3.892   7.199
 2779WAT      O 8578   6.587   9.389   8.945
 2779WAT     H1 8579   6.578   9.291   8.965
 2779WAT     H2 8580   6.506   9.437   8.979
 2780WAT      O 8581   5.195   2.072   9.850
 2780WAT     H1 8582   5.206   1.973   9.856
 2780WAT     H2 8583   5.283   2.114   9.828
 2781WAT      O 8584   8.152   3.814   7.476
 2781WAT     H1 8585   8.238   3.848   7.437
 2781WAT     H2 8586   8.148   3.715   7.464
 2782WAT      O 8587   2.438   9.069   9.585
 2782WAT     H1 8588   2.368   9.140   9.593
 2782WAT     H2 8589   2.488   9.082   9.499
 2783WAT      O 8590   3.898   4.191   4.442
 2783WAT     H1 8591   3.991   4.220   4.417
 2783WAT     H2 8592   3.832   4.240   4.384
 2784WAT      O 8593   6.862   6.887   8.023
 2784WAT     H1 8594   6.885   6.795   7.991
 2784WAT     H2 8595   6.885   6.953   7.952
 2785WAT      O 8596   2.259   9.259   4.076
 2785WAT     H1 8597   2.266   9.169   4.118
 2785WAT     H2 8598   2.316   9.263   3.994
 2786WAT      O 8599   8.618   6.530   2.272
 2786WAT     H1 8600   8.624   6.518   2.372
 2786WAT     H2 8601   8.527   6.503   2.241
 2787WAT      O 8602   1.252   5.455   6.402
 2787WAT     H1 8603   1.329   5.428   6.461
 2787WAT     H2 8604   1.241   5.554   6.406
 2788WAT      O 8605   9.070   8.614   2.303
 2788WAT     H1 8606   9.143   8.605   2.235
 2788WAT     H2 8607   8.982   8.620   2.256
 2789WAT      O 8608   7.409   7.332   5.121
 2789WAT     H1 8609   7.455   7.275   5.189
 2789WAT     H2 8610   7.323   7.289   5.093
 2790WAT      O 8611   6.054   4.382   1.366
 2790WAT     H1 8612   6.004   4.385   1.453
 2790WAT     H2 8613   5.992   4.356   1.292
 2791WAT      O 8614   8.751   9.369   9.597
 2791WAT     H1 8615   8.776   9.358   9.694
 2791WAT     H2 8616   8.798   9.299   9.543
 2792WAT      O 8617   3.223   5.877   0.771
 2792WAT     H1 8618   3.204   5.811   0.698
 2792WAT     H2 8619   3.150   5.873   0.838
 2793WAT      O 8620   5.013   1.579   4.978
 2793WAT     H1 8621   4.918   1.606   4.994
 2793WAT     H2 8622   5.045   1.617   4.892
 2794WAT      O 8623   2.040   9.095   2.405
 2794WAT     H1 8624   2.005   9.175   2.357
 2794WAT     H2 8625   2.137   9.082   2.383
 2795WAT      O 8626   2.218   0.449   1.232
 2795WAT     H1 8627   2.280   0.511   1.281
 2795WAT     H2 8628   2.272   0.387   1.176
 2796WAT      O 8629   9.176   9.176   2.242
 2796WAT     H1 8630   9.250   9.109   2.233
 2796WAT     H2 8631   9.203   9.262   2.198
 2797WAT      O 8632   9.324   4.407   0.797
 2797WAT     H1 8633   9.410   4.358   0.784
 2797WAT     H2 8634   9.335   4.474   0.870
 2798WAT      O 8635   5.049   7.356   8.777
 2798WAT     H1 8636   5.054   7.329   8.681
 2798WAT     H2 8637   5.104   7.293   8.832
 2799WAT      O 8638   5.861   9.631   5.826
 2799WAT     H1 8639   5.925   9.707   5.832
 2799WAT     H2 8640   5.821   9.627   5.735
 2800WAT      O 8641   5.014   4.393   1.312
 2800WAT     H1 8642   5.050   4.442   1.232
 2800WAT     H2 8643   4.924   4.430   1.336
 2801WAT      O 8644   0.131   0.882   2.739
 2801WAT     H1 8645   0.195   0.832   2.797
 2801WAT     H2 8646   0.043   0.834   2.738
 2802WAT      O 8647   5.845   2.451   9.894
 2802WAT     H1 8648   5.868   2.497   9.808
 2802WAT     H2 8649   5.928   2.441   9.949
 2803WAT      O 8650   1.880   6.599   2.005
 2803WAT     H1 8651   1.851   6.507   1.980
 2803WAT     H2 8652   1.928   6.596   2.093
 2804WAT      O 8653   2.429   3.173   5.851
 2804WAT     H1 8654   2.485   3.234   5.795
 2804WAT     H2 8655   2.427   3.206   5.945
 2805WAT      O 8656   6.934   1.788   9.339
 2805WAT     H1 8657   6.947   1.873   9.391
 2805WAT     H2 8658   6.886   1.721   9.396
 2806WAT      O 8659   3.806   3.295   9.310
 2806WAT     H1 8660   3.712   3.310   9.280
 2806WAT     H2 8661   3.820   3.337   9.400
 2807WAT      O 8662   9.186   9.090   8.069
 2807WAT     H1 8663   9.218   8.999   8.042
 2807WAT     H2 8664   9.189   9.098   8.169
 2808WAT      O 8665   0.742   1.364   9.365
 2808WAT     H1 8666   0.753   1.265   9.367
 2808WAT     H2 8667   0.655   1.388   9.407
 2809WAT      O 8668   0.316   7.033   3.634
 2809WAT     H1 8669   0.364   6.993   3.712
 2809WAT     H2 8670   0.279   7.122   3.661
 2810WAT      O 8671   7.212   5.284   8.124
 2810WAT     H1 8672   7.275   5.268   8.048
 2810WAT     H2 8673   7.178   5.197   8.158
 2811WAT      O 8674   6.031   5.948   2.442
 2811WAT     H1 8675   6.079   5.873   2.488
 2811WAT     H2 8676   6.058   6.035   2.484
 2812WAT      O 8677   9.524   1.040   1.428
 2812WAT     H1 8678   9.512   1.014   1.524
 2812WAT     H2 8679   9.620   1.062   1.411
 2813WAT      O 8680   0.420   9.086   2.524
 2813WAT     H1 8681   0.432   9.185   2.533
 2813WAT     H2 8682   0.440   9.058   2.430
 2814WAT      O 8683   2.131   0.558   8.534
 2814WAT     H1 8684   2.123   0.462   8.508
 2814WAT     H2 8685   2.056   0.583   8.595
 2815WAT      O 8686   3.053   5.457   0.971
 2815WAT     H1 8687   3.028   5.428   0.879
 2815WAT     H2 8688   3.093   5.380   1.021
 2816WAT      O 8689   6.896   5.875   5.586
 2816WAT     H1 8690   6.809   5.924   5.596
 2816WAT     H2 8691   6.971   5.939   5.600
 2817WAT      O 8692   2.973   1.164   3.684
 2817WAT     H1 8693   2.953   1.068   3.666
 2817WAT     H2 8694   2.888   1.213   3.699
 2818WAT      O 8695   7.315   0.146   2.936
 2818WAT     H1 8696   7.358   0.169   2.848
 2818WAT     H2 8697   7.372   0.180   3.011
 2819WAT      O 8698   5.328   1.866   3.185
 2819WAT     H1 8699   5.386   1.801   3.234
 2819WAT     H2 8700   5.368   1.886   3.096
 2820WAT      O 8701   9.392   2.574   2.574
 2820WAT     H1 8702   9.484   2.598   2.607
 2820WAT     H2 8703   9.365   2.485   2.612
 2821WAT      O 8704   0.792   9.271   3.679
 2821WAT     H1 8705   0.775   9.369   3.689
 2821WAT     H2 8706   0.889   9.256   3.660
 2822WAT      O 8707   8.669   0.416   2.413
 2822WAT     H1 8708   8.690   0.424   2.316
 2822WAT     H2 8709   8.600   0.344   2.427
 2823WAT      O 8710   1.325   9.407   3.364
 2823WAT     H1 8711   1.245   9.347   3.363
 2823WAT     H2 8712   1.404   9.355   3.398
 2824WAT      O 8713   1.005   5.697   1.482
 2824WAT     H1 8714   1.050   5.730   1.399
 2824WAT     H2 8715   1.074   5.666   1.547
 2825WAT      O 8716   7.634   6.737   5.896
 2825WAT     H1 8717   7.686   6.684   5.829
 2825WAT     H2 8718   7.672   6.829   5.901
 2826WAT      O 8719   6.513   0.811   5.061
 2826WAT     H1 8720   6.501   0.803   4.962
 2826WAT     H2 8721   6.530   0.721   5.100
 2827WAT      O 8722   5.671   3.201   9.435
 2827WAT     H1 8723   5.617   3.129   9.477
 2827WAT     H2 8724   5.668   3.190   9.335
 2828WAT      O 8725   0.652   6.060   4.484
 2828WAT     H1 8726   0.604   5.973   4.481
 2828WAT     H2 8727   0.672   6.084   4.579
 2829WAT      O 8728   0.989   6.318   1.321
 2829WAT     H1 8729   0.971   6.220   1.315
 2829WAT     H2 8730   0.905   6.365   1.348
 2830WAT      O 8731   5.730   7.129   3.238
 2830WAT     H1 8732   5.644   7.177   3.220
 2830WAT     H2 8733   5.785   7.182   3.303
 2831WAT      O 8734   3.967   3.616   9.748
 2831WAT     H1 8735   3.883   3.605   9.696
 2831WAT     H2 8736   4.019   3.694   9.712
 2832WAT      O 8737   6.670   8.321   9.811
 2832WAT     H1 8738   6.713   8.382   9.745
 2832WAT     H2 8739   6.620   8.249   9.762
 2833WAT      O 8740   0.495   7.962   9.509
 2833WAT     H1 8741   0.400   7.943   9.482
 2833WAT     H2 8742   0.555   7.892   9.472
 2834WAT      O 8743   3.710   3.928   9.495
 2834WAT     H1 8744   3.653   3.905   9.574
 2834WAT     H2 8745   3.760   4.013   9.513
 2835WAT      O 8746   6.662   2.789   1.885
 2835WAT     H1 8747   6.647   2.705   1.834
 2835WAT     H2 8748   6.756   2.793   1.917
 2836WAT      O 8749   1.700   0.827   7.112
 2836WAT     H1 8750   1.765   0.881   7.059
 2836WAT     H2 8751   1.608   0.839   7.074
 2837WAT      O 8752   5.281   2.535   8.129
 2837WAT     H1 8753   5.230   2.450   8.132
 2837WAT     H2 8754   5.352   2.534   8.200
 2838WAT      O 8755   2.785   3.495   9.651
 2838WAT     H1 8756   2.808   3.592   9.652
 2838WAT     H2 8757   2.847   3.447   9.589
 2839WAT      O 8758   8.087   6.785   6.538
 2839WAT     H1 8759   8.094   6.693   6.500
 2839WAT     H2 8760   8.034   6.781   6.623
 2840WAT      O 8761   3.950   4.565   8.385
 2840WAT     H1 8762   3.929   4.467   8.376
 2840WAT     H2 8763   4.023   4.577   8.452
 2841WAT      O 8764   3.109   1.887   3.161
 2841WAT     H1 8765   3.041   1.816   3.146
 2841WAT     H2 8766   3.197   1.845   3.182
 2842WAT      O 8767   9.409   1.064   6.944
 2842WAT     H1 8768   9.379   0.993   7.008
 2842WAT     H2 8769   9.373   1.153   6.972
 2843WAT      O 8770   0.192   4.672   6.980
 2843WAT     H1 8771   0.272   4.627   6.941
 2843WAT     H2 8772   0.133   4.604   7.022
 2844WAT      O 8773   1.822   4.383   7.545
 2844WAT     H1 8774   1.808   4.482   7.554
 2844WAT     H2 8775   1.826   4.359   7.448
 2845WAT      O 8776   3.580   2.267   8.346
 2845WAT     H1 8777   3.628   2.342   8.390
 2845WAT     H2 8778   3.505   2.236   8.405
 2846WAT      O 8779   9.120   6.114   8.492
 2846WAT     H1 8780   9.153   6.173   8.419
 2846WAT     H2 8781   9.147   6.153   8.580
 2847WAT      O 8782   3.060   8.454   9.729
 2847WAT     H1 8783   3.021   8.443   9.821
 2847WAT     H2 8784   2.986   8.466   9.663
 2848WAT      O 8785   7.712   6.179   7.628
 2848WAT     H1 8786   7.747   6.180   7.721
 2848WAT     H2 8787   7.785   6.154   7.564
 2849WAT      O 8788   8.725   8.538   7.748
 2849WAT     H1 8789   8.721   8.444   7.713
 2849WAT     H2 8790   8.821   8.561   7.769
 2850WAT      O 8791   9.385   7.111   7.125
 2850WAT     H1 8792   9.352   7.169   7.200
 2850WAT     H2 8793   9.325   7.121   7.046
 2851WAT      O 8794   6.613   6.991   8.091
 2851WAT     H1 8795   6.622   7.090   8.107
 2851WAT     H2 8796   6.701   6.947   8.110
 2852WAT      O 8797   1.049   1.275   6.506
 2852WAT     H1 8798   1.123   1.317   6.559
 2852WAT     H2 8799   1.069   1.179   6.491
 2853WAT      O 8800   2.931   6.008   6.151
 2853WAT     H1 8801   2.899   6.018   6.245
 2853WAT     H2 8802   3.031   6.006   6.150
 2854WAT      O 8803   2.278   3.761   8.983
 2854WAT     H1 8804   2.276   3.808   8.894
 2854WAT     H2 8805   2.344   3.807   9.043
 2855WAT      O 8806   9.809   7.828   2.218
 2855WAT     H1 8807   9.800   7.913   2.166
 2855WAT     H2 8808   9.735   7.765   2.194
 2856WAT      O 8809   1.305   7.284   5.570
 2856WAT     H1 8810   1.380   7.220   5.588
 2856WAT     H2 8811   1.293   7.293   5.471
 2857WAT      O 8812   6.811   3.980   1.506
 2857WAT     H1 8813   6.856   3.982   1.595
 2857WAT     H2 8814   6.806   4.073   1.470
 2858WAT      O 8815   8.800   4.506   3.646
 2858WAT     H1 8816   8.736   4.547   3.711
 2858WAT     H2 8817   8.858   4.577   3.606
 2859WAT      O 8818   5.531   3.596   7.845
 2859WAT     H1 8819   5.590   3.549   7.911
 2859WAT     H2 8820   5.574   3.682   7.817
 2860WAT      O 8821   6.223   4.343   5.133
 2860WAT     H1 8822   6.316   4.344   5.169
 2860WAT     H2 8823   6.223   4.317   5.037
 2861WAT      O 8824   5.020   2.917   9.385
 2861WAT     H1 8825   5.067   2.938   9.470
 2861WAT     H2 8826   4.941   2.859   9.404
 2862WAT      O 8827   7.949   0.016   1.768
 2862WAT     H1 8828   7.863   0.008   1.717
 2862WAT     H2 8829   7.930   0.050   1.860
 2863WAT      O 8830   5.223   7.658   4.218
 2863WAT     H1 8831   5.232   7.753   4.188
 2863WAT     H2 8832   5.310   7.626   4.256
 2864WAT      O 8833   2.885   7.246   8.486
 2864WAT     H1 8834   2.815   7.174   8.480
 2864WAT     H2 8835   2.845   7.326   8.531
 2865WAT      O 8836   1.270   9.606   8.986
 2865WAT     H1 8837   1.250   9.511   8.964
 2865WAT     H2 8838   1.261   9.662   8.904
 2866WAT      O 8839   5.487   7.271   3.357
 2866WAT     H1 8840   5.416   7.280   3.427
 2866WAT     H2 8841   5.562   7.215   3.393
 2867WAT      O 8842   8.490   0.972   6.699
 2867WAT     H1 8843   8.468   1.031   6.622
 2867WAT     H2 8844   8.412   0.968   6.761
 2868WAT      O 8845   1.566   4.613   4.463
 2868WAT     H1 8846   1.472   4.647   4.473
 2868WAT     H2 8847   1.629   4.691   4.456
 2869WAT      O 8848   8.592   7.096   8.255
 2869WAT     H1 8849   8.661   7.046   8.203
 2869WAT     H2 8850   8.622   7.191   8.268
 2870WAT      O 8851   5.955   6.706   5.207
 2870WAT     H1 8852   5.935   6.800   5.236
 2870WAT     H2 8853   5.870   6.653   5.206
 2871WAT      O 8854   1.220   5.781   9.851
 2871WAT     H1 8855   1.195   5.744   9.762
 2871WAT     H2 8856   1.159   5.857   9.874
 2872WAT      O 8857   3.882   3.797   2.805
 2872WAT     H1 8858   3.897   3.762   2.897
 2872WAT     H2 8859   3.882   3.897   2.806
 2873WAT      O 8860   5.306   7.223   3.591
 2873WAT     H1 8861   5.344   7.302   3.639
 2873WAT     H2 8862   5.287   7.150   3.657
 2874WAT      O 8863   6.729   2.227   3.891
 2874WAT     H1 8864   6.643   2.207   3.938
 2874WAT     H2 8865   6.795   2.155   3.912
 2875WAT      O 8866   6.878   0.829   2.662
 2875WAT     H1 8867   6.953   0.769   2.635
 2875WAT     H2 8868   6.842   0.801   2.751
 2876WAT      O 8869   0.206   1.514   2.419
 2876WAT     H1 8870   0.236   1.609   2.407
 2876WAT     H2 8871   0.279   1.461   2.462
 2877WAT      O 8872   2.028   4.604   2.664
 2877WAT     H1 8873   1.950   4.620   2.725
 2877WAT     H2 8874   2.104   4.566   2.717
 2878WAT      O 8875   5.667   1.423   5.722
 2878WAT     H1 8876   5.689   1.325   5.716
 2878WAT     H2 8877   5.658   1.449   5.818
 2879WAT      O 8878   6.293   3.396   3.357
 2879WAT     H1 8879   6.261   3.301   3.363
 2879WAT     H2 8880   6.369   3.409   3.420
 2880WAT      O 8881   9.660   3.535   4.898
 2880WAT     H1 8882   9.588   3.575   4.841
 2880WAT     H2 8883   9.620   3.492   4.978
 2881WAT      O 8884   6.104   9.122   4.764
 2881WAT     H1 8885   6.036   9.109   4.836
 2881WAT     H2 8886   6.191   9.152   4.804
 2882WAT      O 8887   4.365   3.422   0.516
 2882WAT     H1 8888   4.288   3.479   0.545
 2882WAT     H2 8889   4.337   3.366   0.437
 2883WAT      O 8890   4.061   7.616   9.454
 2883WAT     H1 8891   4.095   7.684   9.389
 2883WAT     H2 8892   3.962   7.625   9.463
 2884WAT      O 8893   0.317   4.891   2.955
 2884WAT     H1 8894   0.320   4.937   3.044
 2884WAT     H2 8895   0.226   4.901   2.915
 2885WAT      O 8896   0.561   7.891   3.075
 2885WAT     H1 8897   0.501   7.967   3.050
 2885WAT     H2 8898   0.531   7.853   3.163
 2886WAT      O 8899   3.345   9.741   2.806
 2886WAT     H1 8900   3.278   9.790   2.862
 2886WAT     H2 8901   3.311   9.649   2.786
 2887WAT      O 8902   2.708   7.319   8.802
 2887WAT     H1 8903   2.712   7.314   8.902
 2887WAT     H2 8904   2.750   7.404   8.770
 2888WAT      O 8905   2.692   5.769   8.967
 2888WAT     H1 8906   2.713   5.853   9.019
 2888WAT     H2 8907   2.614   5.723   9.010
 2889WAT      O 8908   7.463   8.386   9.118
 2889WAT     H1 8909   7.469   8.484   9.140
 2889WAT     H2 8910   7.519   8.334   9.182
 2890WAT      O 8911   1.028   6.237   3.103
 2890WAT     H1 8912   1.090   6.213   3.178
 2890WAT     H2 8913   1.072   6.305   3.044
 2891WAT      O 8914   8.017   7.934   7.018
 2891WAT     H1 8915   7.933   7.883   6.998
 2891WAT     H2 8916   8.092   7.869   7.034
 2892WAT      O 8917   0.695   7.880   3.757
 2892WAT     H1 8918   0.656   7.822   3.829
 2892WAT     H2 8919   0.678   7.976   3.779
 2893WAT      O 8920   3.883   8.421   6.321
 2893WAT     H1 8921   3.942   8.391   6.396
 2893WAT     H2 8922   3.896   8.361   6.243
 2894WAT      O 8923   1.549   3.516   6.210
 2894WAT     H1 8924   1.512   3.439   6.159
 2894WAT     H2 8925   1.631   3.551   6.164
 2895WAT      O 8926   4.964   8.683   5.609
 2895WAT     H1 8927   5.049   8.701   5.560
 2895WAT     H2 8928   4.965   8.590   5.646
 2896WAT      O 8929   1.601   4.644   3.436
 2896WAT     H1 8930   1.506   4.639   3.407
 2896WAT     H2 8931   1.606   4.685   3.527
 2897WAT      O 8932   9.333   7.339   9.786
 2897WAT     H1 8933   9.353   7.324   9.689
 2897WAT     H2 8934   9.235   7.326   9.802
 2898WAT      O 8935   2.076   6.263   1.455
 2898WAT     H1 8936   1.992   6.227   1.495
 2898WAT     H2 8937   2.053   6.323   1.378
 2899WAT      O 8938   8.129   8.062   5.143
 2899WAT     H1 8939   8.046   8.036   5.192
 2899WAT     H2 8940   8.130   8.020   5.053
 2900WAT      O 8941   8.957   6.516   2.588
 2900WAT     H1 8942   8.898   6.442   2.622
 2900WAT     H2 8943   8.986   6.495   2.495
 2901WAT      O 8944   5.881   5.172   5.653
 2901WAT     H1 8945   5.973   5.169   5.614
 2901WAT     H2 8946   5.859   5.084   5.695
 2902WAT      O 8947   5.055   8.426   6.844
 2902WAT     H1 8948   4.975   8.384   6.804
 2902WAT     H2 8949   5.122   8.448   6.773
 2903WAT      O 8950   1.472   8.237   9.840
 2903WAT     H1 8951   1.453   8.327   9.801
 2903WAT     H2 8952   1.429   8.229   9.930
 2904WAT      O 8953   5.107   9.177   8.433
 2904WAT     H1 8954   5.064   9.262   8.404
 2904WAT     H2 8955   5.048   9.130   8.499
 2905WAT      O 8956   2.098   9.681   5.726
 2905WAT     H1 8957   2.127   9.590   5.697
 2905WAT     H2 8958   2.030   9.716   5.661
 2906WAT      O 8959   4.221   2.274   2.356
 2906WAT     H1 8960   4.317   2.297   2.368
 2906WAT     H2 8961   4.209   2.225   2.270
 2907WAT      O 8962   6.172   4.187   0.825
 2907WAT     H1 8963   6.173   4.158   0.920
 2907WAT     H2 8964   6.238   4.261   0.811
 2908WAT      O 8965   1.371   2.929   8.410
 2908WAT     H1 8966   1.456   2.876   8.407
 2908WAT     H2 8967   1.297   2.876   8.369
 2909WAT      O 8968   7.331   4.853   9.612
 2909WAT     H1 8969   7.234   4.830   9.620
 2909WAT     H2 8970   7.369   4.865   9.704
 2910WAT      O 8971   7.853   5.612   7.836
 2910WAT     H1 8972   7.813   5.690   7.884
 2910WAT     H2 8973   7.780   5.557   7.796
 2911WAT      O 8974   8.951   2.130   1.976
 2911WAT     H1 8975   8.886   2.107   1.903
 2911WAT     H2 8976   8.902   2.172   2.052
 2912WAT      O 8977   6.784   3.775   5.412
 2912WAT     H1 8978   6.751   3.724   5.492
 2912WAT     H2 8979   6.705   3.804   5.357
 2913WAT      O 8980   9.302   9.420   3.555
 2913WAT     H1 8981   9.270   9.367   3.477
 2913WAT     H2 8982   9.225   9.466   3.598
 2914WAT      O 8983   7.093   4.135   9.212
 2914WAT     H1 8984   7.033   4.061   9.242
 2914WAT     H2 8985   7.187   4.113   9.239
 2915WAT      O 8986   9.858   4.426   9.826
 2915WAT     H1 8987   9.789   4.496   9.810
 2915WAT     H2 8988   9.941   4.469   9.863
 2916WAT      O 8989   7.564   0.144   8.938
 2916WAT     H1 8990   7.595   0.190   8.855
 2916WAT     H2 8991   7.474   0.179   8.964
 2917WAT      O 8992   5.960   7.974   1.777
 2917WAT     H1 8993   5.905   7.917   1.838
 2917WAT     H2 8994   5.931   8.070   1.787
 2918WAT      O 8995   8.088   2.249   1.969
 2918WAT     H1 8996   8.086   2.229   2.067
 2918WAT     H2 8997   8.179   2.230   1.933
 2919WAT      O 8998   3.546   1.406   0.992
 2919WAT     H1 8999   3.518   1.468   0.919
 2919WAT     H2 9000   3.641   1.427   1.018
 2920WAT      O 9001   6.853   0.299   8.654
 2920WAT     H1 9002   6.771   0.253   8.688
 2920WAT     H2 9003   6.873   0.268   8.561
 2921WAT      O 9004   3.056   7.262   1.619
 2921WAT     H1 9005   3.081   7.357   1.600
 2921WAT     H2 9006   2.958   7.255   1.634
 2922WAT      O 9007   2.888   1.102   4.422
 2922WAT     H1 9008   2.928   1.045   4.351
 2922WAT     H2 9009   2.916   1.197   4.409
 2923WAT      O 9010   5.914   6.182   0.521
 2923WAT     H1 9011   5.880   6.248   0.588
 2923WAT     H2 9012   5.844   6.114   0.502
 2924WAT      O 9013   5.873   5.504   7.519
 2924WAT     H1 9014   5.853   5.593   7.478
 2924WAT     H2 9015   5.925   5.517   7.603
 2925WAT      O 9016   2.300   9.492   2.084
 2925WAT     H1 9017   2.297   9.551   2.164
 2925WAT     H2 9018   2.365   9.529   2.017
 2926WAT      O 9019   4.342   8.812   6.961
 2926WAT     H1 9020   4.260   8.760   6.985
 2926WAT     H2 9021   4.317   8.883   6.895
 2927WAT      O 9022   9.565   6.726   7.990
 2927WAT     H1 9023   9.499   6.800   7.980
 2927WAT     H2 9024   9.530   6.644   7.945
 2928WAT      O 9025   3.528   7.089   2.931
 2928WAT     H1 9026   3.532   6.992   2.954
 2928WAT     H2 9027   3.558   7.143   3.011
 2929WAT      O 9028   3.687   2.910   2.868
 2929WAT     H1 9029   3.747   2.987   2.891
 2929WAT     H2 9030   3.678   2.850   2.946
 2930WAT      O 9031   9.104   3.765   5.855
 2930WAT     H1 9032   9.152   3.739   5.771
 2930WAT     H2 9033   9.005   3.758   5.841
 2931WAT      O 9034   6.248   1.646   7.550
 2931WAT     H1 9035   6.260   1.559   7.598
 2931WAT     H2 9036   6.155   1.679   7.563
 2932WAT      O 9037   0.698   9.606   3.182
 2932WAT     H1 9038   0.715   9.597   3.083
 2932WAT     H2 9039   0.674   9.700   3.203
 2933WAT      O 9040   7.739   6.041   8.801
 2933WAT     H1 9041   7.697   6.122   8.842
 2933WAT     H2 9042   7.670   5.969   8.791
 2934WAT      O 9043   9.726   0.350   4.626
 2934WAT     H1 9044   9.729   0.432   4.682
 2934WAT     H2 9045   9.791   0.358   4.551
 2935WAT      O 9046   3.795   1.638   6.782
 2935WAT     H1 9047   3.697   1.647   6.765
 2935WAT     H2 9048   3.812   1.643   6.881
 2936WAT      O 9049   1.740   5.952   8.348
 2936WAT     H1 9050   1.647   5.961   8.312
 2936WAT     H2 9051   1.793   5.891   8.288
 2937WAT      O 9052   0.102   6.878   2.972
 2937WAT     H1 9053   0.157   6.815   2.917
 2937WAT     H2 9054   0.134   6.875   3.067
 2938WAT      O 9055   2.031   6.479   1.300
 2938WAT     H1 9056   2.012   6.556   1.238
 2938WAT     H2 9057   1.959   6.473   1.368
 2939WAT      O 9058   4.846   8.648   9.043
 2939WAT     H1 9059   4.843   8.657   9.142
 2939WAT     H2 9060   4.820   8.736   9.001
 2940WAT      O 9061   9.321   4.178   2.194
 2940WAT     H1 9062   9.390   4.110   2.218
 2940WAT     H2 9063   9.230   4.141   2.214
 2941WAT      O 9064   4.011   5.096   8.639
 2941WAT     H1 9065   4.004   5.157   8.560
 2941WAT     H2 9066   4.001   5.150   8.723
 2942WAT      O 9067   4.845   0.898   4.554
 2942WAT     H1 9068   4.853   0.980   4.498
 2942WAT     H2 9069   4.921   0.894   4.618
 2943WAT      O 9070   7.197   9.556   6.415
 2943WAT     H1 9071   7.171   9.478   6.472
 2943WAT     H2 9072   7.115   9.605   6.385
 2944WAT      O 9073   7.674   4.157   4.420
 2944WAT     H1 9074   7.645   4.210   4.499
 2944WAT     H2 9075   7.772   4.136   4.428
 2945WAT      O 9076   7.813   2.131   0.382
 2945WAT     H1 9077   7.913   2.140   0.391
 2945WAT     H2 9078   7.791   2.040   0.347
 2946WAT      O 9079   4.021   1.494   3.905
 2946WAT     H1 9080   4.038   1.526   3.998
 2946WAT     H2 9081   4.108   1.493   3.855
 2947WAT      O 9082   1.430   2.504   1.010
 2947WAT     H1 9083   1.384   2.540   0.928
 2947WAT     H2 9084   1.528   2.523   1.005
 2948WAT      O 9085   0.325   5.208   7.600
 2948WAT     H1 9086   0.339   5.157   7.515
 2948WAT     H2 9087   0.366   5.299   7.591
 2949WAT      O 9088   4.949   3.409   5.751
 2949WAT     H1 9089   4.991   3.463   5.823
 2949WAT     H2 9090   4.899   3.332   5.791
 2950WAT      O 9091   5.637   5.746   8.610
 2950WAT     H1 9092   5.568   5.695   8.661
 2950WAT     H2 9093   5.670   5.690   8.534
 2951WAT      O 9094   5.839   5.227   8.688
 2951WAT     H1 9095   5.778   5.306   8.686
 2951WAT     H2 9096   5.786   5.144   8.704
 2952WAT      O 9097   4.132   4.739   1.224
 2952WAT     H1 9098   4.231   4.755   1.230
 2952WAT     H2 9099   4.116   4.644   1.197
 2953WAT      O 9100   6.913   7.560   2.434
 2953WAT     H1 9101   6.923   7.581   2.337
 2953WAT     H2 9102   6.816   7.568   2.460
 2954WAT      O 9103   5.325   5.675   5.798
 2954WAT     H1 9104   5.325   5.729   5.881
 2954WAT     H2 9105   5.246   5.700   5.742
 2955WAT      O 9106   8.324   4.980   1.565
 2955WAT     H1 9107   8.240   5.029   1.590
 2955WAT     H2 9108   8.397   5.003   1.629
 2956WAT      O 9109   5.885   6.642   4.353
 2956WAT     H1 9110   5.849   6.667   4.443
 2956WAT     H2 9111   5.970   6.592   4.364
 2957WAT      O 9112   4.013   7.847   8.013
 2957WAT     H1 9113   4.056   7.918   8.070
 2957WAT     H2 9114   4.008   7.878   7.919
 2958WAT      O 9115   1.750   1.646   5.503
 2958WAT     H1 9116   1.657   1.610   5.503
 2958WAT     H2 9117   1.791   1.632   5.593
 2959WAT      O 9118   4.945   1.167   4.120
 2959WAT     H1 9119   4.865   1.134   4.069
 2959WAT     H2 9120   4.986   1.244   4.070
 2960WAT      O 9121   3.239   8.946   3.316
 2960WAT     H1 9122   3.191   9.014   3.260
 2960WAT     H2 9123   3.242   8.977   3.411
 2961WAT      O 9124   1.668   1.764   6.304
 2961WAT     H1 9125   1.675   1.863   6.298
 2961WAT     H2 9126   1.608   1.739   6.379
 2962WAT      O 9127   9.513   5.538   1.625
 2962WAT     H1 9128   9.550   5.622   1.665
 2962WAT     H2 9129   9.586   5.490   1.575
 2963WAT      O 9130   7.192   0.624   6.700
 2963WAT     H1 9131   7.124   0.686   6.659
 2963WAT     H2 9132   7.269   0.614   6.637
 2964WAT      O 9133   2.928   5.560   0.293
 2964WAT     H1 9134   2.986   5.486   0.329
 2964WAT     H2 9135   2.928   5.556   0.193
 2965WAT      O 9136   1.166   8.378   9.411
 2965WAT     H1 9137   1.218   8.294   9.392
 2965WAT     H2 9138   1.077   8.372   9.367
 2966WAT      O 9139   2.930   4.052   1.416
 2966WAT     H1 9140   2.932   3.959   1.380
 2966WAT     H2 9141   3.018   4.074   1.458
 2967WAT      O 9142   4.395   9.622   7.666
 2967WAT     H1 9143   4.341   9.598   7.586
 2967WAT     H2 9144   4.426   9.716   7.658
 2968WAT      O 9145   5.683   0.505   5.166
 2968WAT     H1 9146   5.663   0.423   5.219
 2968WAT     H2 9147   5.602   0.534   5.115
 2969WAT      O 9148   4.910   1.175   5.104
 2969WAT     H1 9149   4.977   1.220   5.046
 2969WAT     H2 9150   4.951   1.151   5.192
 2970WAT      O 9151   4.344   8.966   2.174
 2970WAT     H1 9152   4.359   9.057   2.211
 2970WAT     H2 9153   4.258   8.964   2.123
 2971WAT      O 9154   8.354   0.262   6.534
 2971WAT     H1 9155   8.277   0.322   6.510
 2971WAT     H2 9156   8.395   0.294   6.620
 2972WAT      O 9157   2.707   9.675   5.866
 2972WAT     H1 9158   2.689   9.715   5.955
 2972WAT     H2 9159   2.678   9.579   5.865
 2973WAT      O 9160   7.706   8.774   3.179
 2973WAT     H1 9161   7.798   8.741   3.201
 2973WAT     H2 9162   7.677   8.839   3.250
 2974WAT      O 9163   6.772   7.298   6.021
 2974WAT     H1 9164   6.777   7.346   6.109
 2974WAT     H2 9165   6.676   7.280   5.998
 2975WAT      O 9166   3.024   0.467   0.168
 2975WAT     H1 9167   3.098   0.459   0.101
 2975WAT     H2 9168   3.054   0.431   0.256
 2976WAT      O 9169   9.621   1.783   7.427
 2976WAT     H1 9170   9.535   1.812   7.469
 2976WAT     H2 9171   9.657   1.856   7.370
 2977WAT      O 9172   5.096   8.013   6.802
 2977WAT     H1 9173   5.085   8.048   6.709
 2977WAT     H2 9174   5.047   7.927   6.811
 2978WAT      O 9175   6.219   8.830   9.404
 2978WAT     H1 9176   6.209   8.791   9.313
 2978WAT     H2 9177   6.187   8.925   9.403
 2979WAT      O 9178   3.943   9.200   5.625
 2979WAT     H1 9179   3.851   9.170   5.597
 2979WAT     H2 9180   4.010   9.132   5.595
 2980WAT      O 9181   4.933   3.664   1.967
 2980WAT     H1 9182   4.857   3.601   1.985
 2980WAT     H2 9183   5.010   3.613   1.928
 2981WAT      O 9184   0.463   4.041   7.277
 2981WAT     H1 9185   0.514   3.988   7.344
 2981WAT     H2 9186   0.387   3.986   7.242
 2982WAT      O 9187   0.609   0.308   7.427
 2982WAT     H1 9188   0.658   0.263   7.352
 2982WAT     H2 9189   0.536   0.249   7.459
 2983WAT      O 9190   8.175   0.624   5.951
 2983WAT     H1 9191   8.099   0.572   5.990
 2983WAT     H2 9192   8.140   0.693   5.888
 2984WAT      O 9193   7.975   3.699   3.729
 2984WAT     H1 9194   8.046   3.753   3.774
 2984WAT     H2 9195   7.990   3.698   3.631
 2985WAT      O 9196   9.517   8.739   0.411
 2985WAT     H1 9197   9.555   8.814   0.357
 2985WAT     H2 9198   9.517   8.655   0.356
 2986WAT      O 9199   8.304   1.558   2.779
 2986WAT     H1 9200   8.382   1.498   2.759
 2986WAT     H2 9201   8.336   1.640   2.826
 2987WAT      O 9202   7.671   0.189   1.087
 2987WAT     H1 9203   7.571   0.190   1.079
 2987WAT     H2 9204   7.697   0.124   1.159
 2988WAT      O 9205   8.214   6.679   1.725
 2988WAT     H1 9206   8.243   6.584   1.719
 2988WAT     H2 9207   8.155   6.702   1.648
 2989WAT      O 9208   4.953   1.068   3.835
 2989WAT     H1 9209   4.862   1.095   3.867
 2989WAT     H2 9210   5.018   1.142   3.855
 2990WAT      O 9211   7.072   1.264   2.283
 2990WAT     H1 9212   7.108   1.231   2.370
 2990WAT     H2 9213   6.974   1.282   2.291
 2991WAT      O 9214   0.061   5.384   8.650
 2991WAT     H1 9215   0.084   5.359   8.744
 2991WAT     H2 9216   0.125   5.338   8.588
 2992WAT      O 9217   4.586   2.517   8.648
 2992WAT     H1 9218   4.513   2.533   8.714
 2992WAT     H2 9219   4.562   2.558   8.560
 2993WAT      O 9220   0.130   2.313   5.323
 2993WAT     H1 9221   0.154   2.217   5.314
 2993WAT     H2 9222   0.192   2.368   5.267
 2994WAT      O 9223   1.892   6.292   9.282
 2994WAT     H1 9224   1.832   6.227   9.235
 2994WAT     H2 9225   1.837   6.368   9.317
 2995WAT      O 9226   3.903   5.107   4.398
 2995WAT     H1 9227   3.979   5.044   4.383
 2995WAT     H2 9228   3.935   5.188   4.447
 2996WAT      O 9229   7.597   8.335   2.816
 2996WAT     H1 9230   7.608   8.433   2.834
 2996WAT     H2 9231   7.633   8.314   2.726
 2997WAT      O 9232   6.262   8.085   2.517
 2997WAT     H1 9233   6.275   8.020   2.443
 2997WAT     H2 9234   6.210   8.164   2.483
 2998WAT      O 9235   6.956   1.090   3.058
 2998WAT     H1 9236   7.040   1.145   3.050
 2998WAT     H2 9237   6.968   1.023   3.131
 2999WAT      O 9238   1.700   9.635   7.571
 2999WAT     H1 9239   1.770   9.569   7.598
 2999WAT     H2 9240   1.610   9.594   7.579
 3000WAT      O 9241   3.173   8.711   6.417
 3000WAT     H1 9242   3.224   8.734   6.500
 3000WAT     H2 9243   3.174   8.788   6.354
 3001WAT      O 9244   7.368   8.662   5.178
 3001WAT     H1 9245   7.409   8.578   5.143
 3001WAT     H2 9246   7.304   8.640   5.251
 3002WAT      O 9247   3.600   3.170   6.435
 3002WAT     H1 9248   3.682   3.172   6.379
 3002WAT     H2 9249   3.603   3.090   6.495
 3003WAT      O 9250   1.580   0.154   4.865
 3003WAT     H1 9251   1.661   0.145   4.807
 3003WAT     H2 9252   1.519   0.222   4.825
 3004WAT      O 9253   8.912   3.952   6.456
 3004WAT     H1 9254   8.826   3.909   6.429
 3004WAT     H2 9255   8.981   3.939   6.384
 3005WAT      O 9256   0.392   5.040   6.249
 3005WAT     H1 9257   0.469   5.103   6.257
 3005WAT     H2 9258   0.307   5.092   6.247
 3006WAT      O 9259   9.409   8.272   6.095
 3006WAT     H1 9260   9.471   8.205   6.136
 3006WAT     H2 9261   9.321   8.228   6.075
 3007WAT      O 9262   7.414   3.116   4.531
 3007WAT     H1 9263   7.437   3.020   4.544
 3007WAT     H2 9264   7.373   3.153   4.614
 3008WAT      O 9265   4.394   4.431   0.623
 3008WAT     H1 9266   4.330   4.482   0.680
 3008WAT     H2 9267   4.448   4.495   0.568
 3009WAT      O 9268   3.490   4.343   9.348
 3009WAT     H1 9269   3.477   4.395   9.433
 3009WAT     H2 9270   3.579   4.298   9.349
 3010WAT      O 9271   8.285   6.569   7.958
 3010WAT     H1 9272   8.274   6.638   8.030
 3010WAT     H2 9273   8.341   6.494   7.992
 3011WAT      O 9274   7.179   0.019   1.131
 3011WAT     H1 9275   7.219  -0.042   1.199
 3011WAT     H2 9276   7.169   0.110   1.170
 3012WAT      O 9277   2.730   2.660   8.384
 3012WAT     H1 9278   2.738   2.648   8.285
 3012WAT     H2 9279   2.676   2.742   8.403
 3013WAT      O 9280   8.281   0.575   2.381
 3013WAT     H1 9281   8.301   0.599   2.476
 3013WAT     H2 9282   8.365   0.582   2.327
 3014WAT      O 9283   2.265   9.819   4.237
 3014WAT     H1 9284   2.292   9.766   4.317
 3014WAT     H2 9285   2.182   9.871   4.258
 3015WAT      O 9286   4.922   9.013   3.163
 3015WAT     H1 9287   4.862   8.933   3.155
 3015WAT     H2 9288   4.888   9.073   3.235
 3016WAT      O 9289   8.509   6.200   0.097
 3016WAT     H1 9290   8.489   6.102   0.093
 3016WAT     H2 9291   8.609   6.213   0.095
 3017WAT      O 9292   3.142   4.219   5.378
 3017WAT     H1 9293   3.136   4.133   5.328
 3017WAT     H2 9294   3.122   4.295   5.315
 3018WAT      O 9295   5.447   1.541   4.447
 3018WAT     H1 9296   5.509   1.602   4.398
 3018WAT     H2 9297   5.406   1.591   4.523
 3019WAT      O 9298   7.400   4.355   3.810
 3019WAT     H1 9299   7.419   4.330   3.715
 3019WAT     H2 9300   7.304   4.382   3.818
 3020WAT      O 9301   2.602   1.498   1.467
 3020WAT     H1 9302   2.596   1.414   1.520
 3020WAT     H2 9303   2.698   1.521   1.451
 3021WAT      O 9304   6.403   5.724   4.522
 3021WAT     H1 9305   6.325   5.743   4.583
 3021WAT     H2 9306   6.456   5.807   4.508
 3022WAT      O 9307   6.633   1.481   2.229
 3022WAT     H1 9308   6.644   1.449   2.323
 3022WAT     H2 9309   6.676   1.416   2.166
 3023WAT      O 9310   9.842   1.322   2.765
 3023WAT     H1 9311   9.937   1.290   2.754
 3023WAT     H2 9312   9.830   1.409   2.718
 3024WAT      O 9313   6.175   7.145   4.040
 3024WAT     H1 9314   6.248   7.078   4.054
 3024WAT     H2 9315   6.207   7.236   4.066
 3025WAT      O 9316   2.935   5.940   5.399
 3025WAT     H1 9317   3.027   5.970   5.374
 3025WAT     H2 9318   2.914   5.855   5.351
 3026WAT      O 9319   2.930   1.703   2.226
 3026WAT     H1 9320   2.838   1.721   2.192
 3026WAT     H2 9321   2.933   1.718   2.325
 3027WAT      O 9322   3.041   5.172   9.116
 3027WAT     H1 9323   3.087   5.087   9.143
 3027WAT     H2 9324   3.037   5.176   9.016
 3028WAT      O 9325   8.017   6.421   3.603
 3028WAT     H1 9326   8.088   6.490   3.594
 3028WAT     H2 9327   8.032   6.348   3.536
 3029WAT      O 9328   6.663   7.931   4.881
 3029WAT     H1 9329   6.757   7.897   4.876
 3029WAT     H2 9330   6.610   7.874   4.944
 3030WAT      O 9331   8.623   8.769   9.738
 3030WAT     H1 9332   8.558   8.781   9.662
 3030WAT     H2 9333   8.702   8.717   9.706
 3031WAT      O 9334   9.279   4.613   3.482
 3031WAT     H1 9335   9.259   4.517   3.501
 3031WAT     H2 9336   9.227   4.671   3.544
 3032WAT      O 9337   3.530   4.732   0.446
 3032WAT     H1 9338   3.467   4.691   0.380
 3032WAT     H2 9339   3.522   4.684   0.533
 3033WAT      O 9340   4.824   3.547   7.093
 3033WAT     H1 9341   4.836   3.496   7.008
 3033WAT     H2 9342   4.780   3.489   7.161
 3034WAT      O 9343   4.088   7.822   8.656
 3034WAT     H1 9344   4.010   7.839   8.715
 3034WAT     H2 9345   4.074   7.866   8.568
 3035WAT      O 9346   2.408   0.747   9.522
 3035WAT     H1 9347   2.342   0.680   9.486
 3035WAT     H2 9348   2.359   0.826   9.557
 3036WAT      O 9349   7.377   8.944   1.369
 3036WAT     H1 9350   7.299   8.891   1.336
 3036WAT     H2 9351   7.351   9.040   1.377
 3037WAT      O 9352   1.918   4.191   6.541
 3037WAT     H1 9353   1.954   4.284   6.545
 3037WAT     H2 9354   1.890   4.162   6.633
 3038WAT      O 9355   6.793   0.136   7.425
 3038WAT     H1 9356   6.820   0.181   7.340
 3038WAT     H2 9357   6.837   0.046   7.431
 3039WAT      O 9358   3.952   3.214   5.513
 3039WAT     H1 9359   3.944   3.114   5.508
 3039WAT     H2 9360   3.944   3.252   5.421
 3040WAT      O 9361   4.345   9.135   9.195
 3040WAT     H1 9362   4.371   9.101   9.105
 3040WAT     H2 9363   4.389   9.080   9.265
 3041WAT      O 9364   9.517   3.325   7.316
 3041WAT     H1 9365   9.464   3.269   7.253
 3041WAT     H2 9366   9.523   3.280   7.405
 3042WAT      O 9367   0.786   5.388   6.267
 3042WAT     H1 9368   0.717   5.433   6.324
 3042WAT     H2 9369   0.761   5.396   6.171
 3043WAT      O 9370   0.422   4.664   1.568
 3043WAT     H1 9371   0.340   4.653   1.624
 3043WAT     H2 9372   0.472   4.577   1.564
 3044WAT      O 9373   1.915   3.735   4.963
 3044WAT     H1 9374   1.826   3.720   5.005
 3044WAT     H2 9375   1.986   3.736   5.034
 3045WAT      O 9376   7.203   9.746   5.534
 3045WAT     H1 9377   7.112   9.778   5.561
 3045WAT     H2 9378   7.271   9.813   5.564
 3046WAT      O 9379   2.260   3.899   0.216
 3046WAT     H1 9380   2.161   3.901   0.201
 3046WAT     H2 9381   2.297   3.810   0.189
 3047WAT      O 9382   9.261   8.694   4.711
 3047WAT     H1 9383   9.306   8.765   4.765
 3047WAT     H2 9384   9.269   8.606   4.758
 3048WAT      O 9385   8.093   0.797   5.494
 3048WAT     H1 9386   8.064   0.738   5.419
 3048WAT     H2 9387   8.178   0.843   5.469
 3049WAT      O 9388   4.726   2.441   2.686
 3049WAT     H1 9389   4.731   2.493   2.600
 3049WAT     H2 9390   4.815   2.444   2.732
 3050WAT      O 9391   3.490   0.638   0.235
 3050WAT     H1 9392   3.431   0.682   0.167
 3050WAT     H2 9393   3.471   0.676   0.325
 3051WAT      O 9394   2.916   0.773   3.912
 3051WAT     H1 9395   2.844   0.704   3.911
 3051WAT     H2 9396   2.875   0.864   3.905
 3052WAT      O 9397   6.560   1.477   4.411
 3052WAT     H1 9398   6.546   1.426   4.496
 3052WAT     H2 9399   6.600   1.417   4.342
 3053WAT      O 9400   4.024   8.510   7.910
 3053WAT     H1 9401   3.975   8.553   7.834
 3053WAT     H2 9402   4.013   8.411   7.905
 3054WAT      O 9403   7.336   6.374   8.035
 3054WAT     H1 9404   7.350   6.471   8.054
 3054WAT     H2 9405   7.351   6.356   7.938
 3055WAT      O 9406   2.041   8.958   0.968
 3055WAT     H1 9407   2.103   8.979   1.043
 3055WAT     H2 9408   1.969   9.027   0.963
 3056WAT      O 9409   7.006   6.190   2.957
 3056WAT     H1 9410   7.097   6.231   2.968
 3056WAT     H2 9411   6.944   6.258   2.917
 3057WAT      O 9412   1.032   8.818   8.331
 3057WAT     H1 9413   1.016   8.910   8.368
 3057WAT     H2 9414   1.040   8.823   8.232
 3058WAT      O 9415   1.555   8.279   3.192
 3058WAT     H1 9416   1.504   8.365   3.185
 3058WAT     H2 9417   1.520   8.214   3.125
 3059WAT      O 9418   5.736   0.828   8.429
 3059WAT     H1 9419   5.785   0.770   8.494
 3059WAT     H2 9420   5.668   0.772   8.380
 3060WAT      O 9421   2.960   8.074   8.270
 3060WAT     H1 9422   2.939   7.978   8.287
 3060WAT     H2 9423   2.974   8.121   8.357
 3061WAT      O 9424   2.584   9.144   4.492
 3061WAT     H1 9425   2.542   9.225   4.452
 3061WAT     H2 9426   2.655   9.110   4.430
 3062WAT      O 9427   1.122   1.963   1.300
 3062WAT     H1 9428   1.180   1.966   1.382
 3062WAT     H2 9429   1.179   1.944   1.220
 3063WAT      O 9430   8.468   2.882   8.666
 3063WAT     H1 9431   8.523   2.965   8.672
 3063WAT     H2 9432   8.375   2.901   8.696
 3064WAT      O 9433   4.079   0.612   1.971
 3064WAT     H1 9434   4.156   0.672   1.993
 3064WAT     H2 9435   4.071   0.603   1.872
 3065WAT      O 9436   2.834   0.788   6.992
 3065WAT     H1 9437   2.805   0.719   6.927
 3065WAT     H2 9438   2.908   0.752   7.049
 3066WAT      O 9439   4.168   1.650   4.490
 3066WAT     H1 9440   4.247   1.632   4.548
 3066WAT     H2 9441   4.101   1.704   4.541
 3067WAT      O 9442   6.543   9.518   4.255
 3067WAT     H1 9443   6.482   9.564   4.319
 3067WAT     H2 9444   6.637   9.522   4.290
 3068WAT      O 9445   2.443   7.241   3.644
 3068WAT     H1 9446   2.375   7.301   3.602
 3068WAT     H2 9447   2.421   7.146   3.625
 3069WAT      O 9448   9.519   9.533   6.433
 3069WAT     H1 9449   9.442   9.533   6.497
 3069WAT     H2 9450   9.517   9.616   6.378
 3070WAT      O 9451   6.011   5.044   3.963
 3070WAT     H1 9452   5.962   5.089   4.037
 3070WAT     H2 9453   6.085   5.103   3.931
 3071WAT      O 9454   4.475   9.431   4.381
 3071WAT     H1 9455   4.463   9.351   4.439
 3071WAT     H2 9456   4.543   9.492   4.422
 3072WAT      O 9457   8.143   7.460   5.879
 3072WAT     H1 9458   8.052   7.446   5.840
 3072WAT     H2 9459   8.181   7.373   5.909
 3073WAT      O 9460   7.264   8.252   1.355
 3073WAT     H1 9461   7.260   8.311   1.436
 3073WAT     H2 9462   7.172   8.243   1.317
 3074WAT      O 9463   5.252   2.107   1.746
 3074WAT     H1 9464   5.322   2.038   1.730
 3074WAT     H2 9465   5.188   2.109   1.670
 3075WAT      O 9466   4.587   2.177   2.589
 3075WAT     H1 9467   4.651   2.251   2.610
 3075WAT     H2 9468   4.541   2.149   2.673
 3076WAT      O 9469   1.780   0.705   5.868
 3076WAT     H1 9470   1.688   0.693   5.906
 3076WAT     H2 9471   1.812   0.618   5.832
 3077WAT      O 9472   9.553   3.111   7.004
 3077WAT     H1 9473   9.484   3.166   7.052
 3077WAT     H2 9474   9.574   3.030   7.059
 3078WAT      O 9475   2.146   7.794   9.629
 3078WAT     H1 9476   2.054   7.792   9.669
 3078WAT     H2 9477   2.176   7.701   9.608
 3079WAT      O 9478   4.869   3.746   7.698
 3079WAT     H1 9479   4.865   3.697   7.785
 3079WAT     H2 9480   4.777   3.763   7.664
 3080WAT      O 9481   2.355   1.095   5.886
 3080WAT     H1 9482   2.302   1.043   5.952
 3080WAT     H2 9483   2.311   1.184   5.870
 3081WAT      O 9484   2.021   2.639   6.449
 3081WAT     H1 9485   1.927   2.661   6.421
 3081WAT     H2 9486   2.085   2.671   6.379
 3082WAT      O 9487   1.489   6.078   7.136
 3082WAT     H1 9488   1.400   6.057   7.175
 3082WAT     H2 9489   1.522   6.000   7.084
 3083WAT      O 9490   0.946   0.130   0.199
 3083WAT     H1 9491   0.966   0.151   0.295
 3083WAT     H2 9492   1.031   0.125   0.147
 3084WAT      O 9493   9.140   8.856   5.775
 3084WAT     H1 9494   9.151   8.877   5.677
 3084WAT     H2 9495   9.230   8.851   5.818
 3085WAT      O 9496   9.737   1.241   5.470
 3085WAT     H1 9497   9.641   1.229   5.445
 3085WAT     H2 9498   9.750   1.214   5.566
 3086WAT      O 9499   9.070   7.782   9.638
 3086WAT     H1 9500   9.073   7.882   9.631
 3086WAT     H2 9501   9.156   7.748   9.674
 3087WAT      O 9502   2.868   1.268   5.385
 3087WAT     H1 9503   2.829   1.198   5.445
 3087WAT     H2 9504   2.930   1.327   5.438
 3088WAT      O 9505   9.004   4.707   6.298
 3088WAT     H1 9506   8.988   4.717   6.396
 3088WAT     H2 9507   8.944   4.769   6.247
 3089WAT      O 9508   1.001   4.706   0.898
 3089WAT     H1 9509   1.011   4.663   0.809
 3089WAT     H2 9510   1.016   4.805   0.890
 3090WAT      O 9511   2.123   4.777   0.275
 3090WAT     H1 9512   2.200   4.840   0.262
 3090WAT     H2 9513   2.108   4.724   0.191
 3091WAT      O 9514   5.036   6.243   8.746
 3091WAT     H1 9515   4.989   6.308   8.805
 3091WAT     H2 9516   5.128   6.227   8.780
 3092WAT      O 9517   6.815   2.456   2.257
 3092WAT     H1 9518   6.844   2.547   2.286
 3092WAT     H2 9519   6.747   2.465   2.184
 3093WAT      O 9520   9.057   4.466   4.464
 3093WAT     H1 9521   9.079   4.407   4.542
 3093WAT     H2 9522   8.996   4.539   4.493
 3094WAT      O 9523   3.550   1.666   8.652
 3094WAT     H1 9524   3.567   1.706   8.742
 3094WAT     H2 9525   3.489   1.588   8.662
 3095WAT      O 9526   8.841   2.004   6.421
 3095WAT     H1 9527   8.891   1.963   6.497
 3095WAT     H2 9528   8.782   2.077   6.455
 3096WAT      O 9529   3.739   7.559   6.473
 3096WAT     H1 9530   3.640   7.576   6.480
 3096WAT     H2 9531   3.766   7.492   6.541
 3097WAT      O 9532   6.449   8.928   0.893
 3097WAT     H1 9533   6.493   9.004   0.845
 3097WAT     H2 9534   6.476   8.841   0.851
 3098WAT      O 9535   2.620   3.856   7.303
 3098WAT     H1 9536   2.691   3.805   7.253
 3098WAT     H2 9537   2.573   3.794   7.366
 3099WAT      O 9538   3.303   9.435   3.049
 3099WAT     H1 9539   3.228   9.379   3.083
 3099WAT     H2 9540   3.308   9.427   2.949
 3100WAT      O 9541   3.139   7.744   4.894
 3100WAT     H1 9542   3.053   7.788   4.920
 3100WAT     H2 9543   3.120   7.652   4.861
 3101WAT      O 9544   2.901   8.758   6.684
 3101WAT     H1 9545   2.918   8.791   6.591
 3101WAT     H2 9546   2.840   8.822   6.731
 3102WAT      O 9547   6.959   8.543   3.378
 3102WAT     H1 9548   6.988   8.499   3.293
 3102WAT     H2 9549   6.960   8.642   3.366
 3103WAT      O 9550   6.520   5.311   7.031
 3103WAT     H1 9551   6.568   5.230   6.999
 3103WAT     H2 9552   6.423   5.290   7.042
 3104WAT      O 9553   2.107   2.436   1.171
 3104WAT     H1 9554   2.042   2.402   1.103
 3104WAT     H2 9555   2.191   2.382   1.167
 3105WAT      O 9556   8.587   6.332   6.754
 3105WAT     H1 9557   8.528   6.390   6.811
 3105WAT     H2 9558   8.680   6.331   6.792
 3106WAT      O 9559   9.214   8.010   3.045
 3106WAT     H1 9560   9.271   8.072   3.100
 3106WAT     H2 9561   9.160   7.952   3.106
 3107WAT      O 9562   3.445   3.339   1.314
 3107WAT     H1 9563   3.415   3.244   1.328
 3107WAT     H2 9564   3.533   3.339   1.266
 3108WAT      O 9565   4.357   6.315   8.396
 3108WAT     H1 9566   4.415   6.308   8.478
 3108WAT     H2 9567   4.262   6.295   8.420
 3109WAT      O 9568   0.980   4.833   9.028
 3109WAT     H1 9569   0.946   4.782   9.107
 3109WAT     H2 9570   0.968   4.931   9.046
 3110WAT      O 9571   4.833   4.517   8.215
 3110WAT     H1 9572   4.778   4.442   8.177
 3110WAT     H2 9573   4.899   4.480   8.281
 3111WAT      O 9574   7.764   0.831   2.763
 3111WAT     H1 9575   7.673   0.802   2.792
 3111WAT     H2 9576   7.777   0.806   2.667
 3112WAT      O 9577   0.262   1.260   7.227
 3112WAT     H1 9578   0.355   1.225   7.221
 3112WAT     H2 9579   0.212   1.235   7.144
 3113WAT      O 9580   5.409   1.819   8.994
 3113WAT     H1 9581   5.347   1.823   9.073
 3113WAT     H2 9582   5.359   1.843   8.911
 3114WAT      O 9583   3.537   2.125   5.412
 3114WAT     H1 9584   3.459   2.173   5.452
 3114WAT     H2 9585   3.589   2.189   5.355
 3115WAT      O 9586   5.732   5.667   4.587
 3115WAT     H1 9587   5.684   5.583   4.614
 3115WAT     H2 9588   5.817   5.643   4.541
 3116WAT      O 9589   6.386   1.714   0.173
 3116WAT     H1 9590   6.413   1.807   0.147
 3116WAT     H2 9591   6.347   1.667   0.094
 3117WAT      O 9592   9.271   5.427   8.915
 3117WAT     H1 9593   9.236   5.474   8.996
 3117WAT     H2 9594   9.224   5.340   8.905
 3118WAT      O 9595   0.765   3.263   6.075
 3118WAT     H1 9596   0.856   3.304   6.076
 3118WAT     H2 9597   0.773   3.165   6.058
 3119WAT      O 9598   5.217   9.176   6.690
 3119WAT     H1 9599   5.167   9.140   6.611
 3119WAT     H2 9600   5.151   9.207   6.759
 3120WAT      O 9601   2.260   0.028   7.822
 3120WAT     H1 9602   2.248  -0.071   7.822
 3120WAT     H2 9603   2.230   0.065   7.734
 3121WAT      O 9604   7.819   5.356   5.474
 3121WAT     H1 9605   7.911   5.327   5.500
 3121WAT     H2 9606   7.810   5.455   5.487
 3122WAT      O 9607   8.698   6.200   2.228
 3122WAT     H1 9608   8.721   6.155   2.141
 3122WAT     H2 9609   8.734   6.293   2.229
 3123WAT      O 9610   0.419   9.254   4.561
 3123WAT     H1 9611   0.502   9.225   4.609
 3123WAT     H2 9612   0.339   9.235   4.619
 3124WAT      O 9613   8.211   8.765   9.742
 3124WAT     H1 9614   8.285   8.716   9.788
 3124WAT     H2 9615   8.162   8.701   9.682
 3125WAT      O 9616   5.987   6.460   3.544
 3125WAT     H1 9617   5.946   6.467   3.453
 3125WAT     H2 9618   6.022   6.550   3.572
 3126WAT      O 9619   8.120   2.976   2.539
 3126WAT     H1 9620   8.055   3.046   2.509
 3126WAT     H2 9621   8.151   2.923   2.460
 3127WAT      O 9622   8.760   4.805   7.685
 3127WAT     H1 9623   8.680   4.748   7.668
 3127WAT     H2 9624   8.739   4.900   7.665
 3128WAT      O 9625   3.962   2.908   5.565
 3128WAT     H1 9626   3.967   2.817   5.524
 3128WAT     H2 9627   3.872   2.921   5.607
 3129WAT      O 9628   4.158   8.936   4.673
 3129WAT     H1 9629   4.240   8.918   4.728
 3129WAT     H2 9630   4.089   8.866   4.693
 3130WAT      O 9631   9.775   9.432   5.232
 3130WAT     H1 9632   9.769   9.530   5.214
 3130WAT     H2 9633   9.685   9.397   5.257
 3131WAT      O 9634   2.216   2.209   9.372
 3131WAT     H1 9635   2.275   2.288   9.391
 3131WAT     H2 9636   2.121   2.240   9.364
 3132WAT      O 9637   5.292   1.017   5.843
 3132WAT     H1 9638   5.294   1.111   5.878
 3132WAT     H2 9639   5.375   1.000   5.790
 3133WAT      O 9640   7.828   5.683   9.517
 3133WAT     H1 9641   7.927   5.687   9.506
 3133WAT     H2 9642   7.804   5.607   9.578
 3134WAT      O 9643   2.901   0.256   4.855
 3134WAT     H1 9644   2.995   0.289   4.852
 3134WAT     H2 9645   2.886   0.191   4.781
 3135WAT      O 9646   8.614   5.089   8.553
 3135WAT     H1 9647   8.599   5.067   8.650
 3135WAT     H2 9648   8.531   5.130   8.515
 3136WAT      O 9649   3.471   0.098   8.147
 3136WAT     H1 9650   3.468   0.148   8.061
 3136WAT     H2 9651   3.553   0.123   8.198
 3137WAT      O 9652   3.272   0.654   9.414
 3137WAT     H1 9653   3.258   0.710   9.332
 3137WAT     H2 9654   3.297   0.561   9.388
 3138WAT      O 9655   7.334   4.609   0.884
 3138WAT     H1 9656   7.341   4.607   0.784
 3138WAT     H2 9657   7.409   4.662   0.922
 3139WAT      O 9658   1.545   7.724   1.291
 3139WAT     H1 9659   1.638   7.745   1.261
 3139WAT     H2 9660   1.536   7.742   1.389
 3140WAT      O 9661   5.002   1.409   7.935
 3140WAT     H1 9662   5.011   1.480   7.864
 3140WAT     H2 9663   4.974   1.452   8.021
 3141WAT      O 9664   1.911   8.939   8.287
 3141WAT     H1 9665   1.929   8.867   8.353
 3141WAT     H2 9666   1.829   8.990   8.314
 3142WAT      O 9667   2.027   7.626   8.668
 3142WAT     H1 9668   2.120   7.590   8.672
 3142WAT     H2 9669   1.969   7.575   8.732
 3143WAT      O 9670   4.971   1.151   6.258
 3143WAT     H1 9671   5.019   1.234   6.286
 3143WAT     H2 9672   4.872   1.164   6.269
 3144WAT      O 9673   2.723   2.983   1.326
 3144WAT     H1 9674   2.685   2.967   1.235
 3144WAT     H2 9675   2.725   3.081   1.344
 3145WAT      O 9676   5.518   0.822   6.231
 3145WAT     H1 9677   5.456   0.820   6.152
 3145WAT     H2 9678   5.601   0.770   6.210
 3146WAT      O 9679   4.309   6.990   2.767
 3146WAT     H1 9680   4.237   7.029   2.709
 3146WAT     H2 9681   4.321   6.894   2.744
 3147WAT      O 9682   7.792   6.556   2.499
 3147WAT     H1 9683   7.721   6.487   2.512
 3147WAT     H2 9684   7.878   6.523   2.536
 3148WAT      O 9685   0.778   0.193   9.076
 3148WAT     H1 9686   0.828   0.108   9.058
 3148WAT     H2 9687   0.694   0.194   9.021
 3149WAT      O 9688   8.636   1.996   9.097
 3149WAT     H1 9689   8.581   1.918   9.065
 3149WAT     H2 9690   8.634   1.999   9.197
 3150WAT      O 9691   6.682   3.677   9.410
 3150WAT     H1 9692   6.635   3.743   9.352
 3150WAT     H2 9693   6.664   3.585   9.378
 3151WAT      O 9694   4.560   9.461   2.824
 3151WAT     H1 9695   4.637   9.426   2.770
 3151WAT     H2 9696   4.560   9.417   2.914
 3152WAT      O 9697   2.636   0.875   6.585
 3152WAT     H1 9698   2.718   0.822   6.563
 3152WAT     H2 9699   2.639   0.902   6.681
 3153WAT      O 9700   7.795   8.469   7.778
 3153WAT     H1 9701   7.834   8.523   7.852
 3153WAT     H2 9702   7.706   8.433   7.808
 3154WAT      O 9703   8.181   7.778   9.077
 3154WAT     H1 9704   8.270   7.823   9.065
 3154WAT     H2 9705   8.183   7.690   9.029
 3155WAT      O 9706   4.968   8.049   0.563
 3155WAT     H1 9707   4.977   8.111   0.640
 3155WAT     H2 9708   5.047   8.059   0.503
 3156WAT      O 9709   5.618   1.727   7.194
 3156WAT     H1 9710   5.691   1.776   7.147
 3156WAT     H2 9711   5.574   1.788   7.260
 3157WAT      O 9712   8.309   1.352   0.964
 3157WAT     H1 9713   8.270   1.439   0.934
 3157WAT     H2 9714   8.263   1.276   0.917
 3158WAT      O 9715   4.258   0.220   7.935
 3158WAT     H1 9716   4.257   0.251   7.840
 3158WAT     H2 9717   4.184   0.156   7.950
 3159WAT      O 9718   0.251   1.057   1.552
 3159WAT     H1 9719   0.181   1.000   1.508
 3159WAT     H2 9720   0.237   1.152   1.525
 3160WAT      O 9721   7.210   3.894   2.334
 3160WAT     H1 9722   7.265   3.848   2.263
 3160WAT     H2 9723   7.115   3.864   2.326
 3161WAT      O 9724   6.819   2.744   4.293
 3161WAT     H1 9725   6.789   2.837   4.314
 3161WAT     H2 9726   6.852   2.739   4.199
 3162WAT      O 9727   1.606   7.687   1.554
 3162WAT     H1 9728   1.582   7.687   1.651
 3162WAT     H2 9729   1.670   7.612   1.536
 3163WAT      O 9730   9.830   2.787   4.183
 3163WAT     H1 9731   9.782   2.716   4.234
 3163WAT     H2 9732   9.794   2.877   4.209
 3164WAT      O 9733   5.535   0.461   7.990
 3164WAT     H1 9734   5.615   0.401   7.995
 3164WAT     H2 9735   5.528   0.500   7.899
 3165WAT      O 9736   9.021   4.121   4.222
 3165WAT     H1 9737   9.108   4.138   4.269
 3165WAT     H2 9738   9.037   4.114   4.123
 3166WAT      O 9739   3.394   0.431   7.977
 3166WAT     H1 9740   3.421   0.455   8.070
 3166WAT     H2 9741   3.340   0.505   7.937
 3167WAT      O 9742   0.008   5.798   6.234
 3167WAT     H1 9743  -0.086   5.818   6.261
 3167WAT     H2 9744   0.070   5.862   6.281
 3168WAT      O 9745   4.596   4.308   2.483
 3168WAT     H1 9746   4.502   4.310   2.450
 3168WAT     H2 9747   4.600   4.340   2.577
 3169WAT      O 9748   3.123   8.985   7.971
 3169WAT     H1 9749   3.198   8.971   8.036
 3169WAT     H2 9750   3.053   9.042   8.013
 3170WAT      O 9751   4.133   6.508   5.864
 3170WAT     H1 9752   4.216   6.453   5.857
 3170WAT     H2 9753   4.061   6.453   5.906
 3171WAT      O 9754   0.835   0.804   2.751
 3171WAT     H1 9755   0.843   0.832   2.846
 3171WAT     H2 9756   0.779   0.722   2.744
 3172WAT      O 9757   9.479   9.208   3.232
 3172WAT     H1 9758   9.457   9.118   3.192
 3172WAT     H2 9759   9.548   9.197   3.304
 3173WAT      O 9760   7.522   6.839   4.744
 3173WAT     H1 9761   7.621   6.824   4.741
 3173WAT     H2 9762   7.499   6.894   4.824
 3174WAT      O 9763   7.787   8.814   2.235
 3174WAT     H1 9764   7.864   8.860   2.192
 3174WAT     H2 9765   7.717   8.795   2.165
 3175WAT      O 9766   8.986   9.493   8.835
 3175WAT     H1 9767   9.069   9.490   8.779
 3175WAT     H2 9768   9.011   9.493   8.932
 3176WAT      O 9769   9.008   9.411   1.031
 3176WAT     H1 9770   8.942   9.358   1.084
 3176WAT     H2 9771   9.044   9.485   1.087
 3177WAT      O 9772   9.291   3.694   2.382
 3177WAT     H1 9773   9.232   3.704   2.302
 3177WAT     H2 9774   9.250   3.628   2.445
 3178WAT      O 9775   8.417   9.241   7.717
 3178WAT     H1 9776   8.480   9.300   7.768
 3178WAT     H2 9777   8.398   9.282   7.628
 3179WAT      O 9778   5.306   4.747   4.965
 3179WAT     H1 9779   5.325   4.845   4.959
 3179WAT     H2 9780   5.247   4.729   5.044
 3180WAT      O 9781   3.754   8.794   8.673
 3180WAT     H1 9782   3.721   8.714   8.621
 3180WAT     H2 9783   3.843   8.822   8.638
 3181WAT      O 9784   9.757   6.102   9.489
 3181WAT     H1 9785   9.740   6.167   9.563
 3181WAT     H2 9786   9.848   6.063   9.498
 3182WAT      O 9787   4.921   5.266   0.157
 3182WAT     H1 9788   4.855   5.339   0.145
 3182WAT     H2 9789   4.874   5.181   0.181
 3183WAT      O 9790   2.257   1.250   8.227
 3183WAT     H1 9791   2.334   1.299   8.269
 3183WAT     H2 9792   2.175   1.263   8.283
 3184WAT      O 9793   0.824   4.131   4.201
 3184WAT     H1 9794   0.836   4.226   4.172
 3184WAT     H2 9795   0.907   4.079   4.179
 3185WAT      O 9796   2.369   4.885   5.215
 3185WAT     H1 9797   2.405   4.853   5.302
 3185WAT     H2 9798   2.437   4.869   5.143
 3186WAT      O 9799   6.135   9.438   5.761
 3186WAT     H1 9800   6.064   9.504   5.787
 3186WAT     H2 9801   6.091   9.357   5.721
 3187WAT      O 9802   4.029   0.533   1.703
 3187WAT     H1 9803   3.962   0.459   1.709
 3187WAT     H2 9804   3.983   0.617   1.675
 3188WAT      O 9805   8.456   3.924   2.392
 3188WAT     H1 9806   8.525   3.985   2.432
 3188WAT     H2 9807   8.441   3.949   2.296
 3189WAT      O 9808   3.816   3.188   0.406
 3189WAT     H1 9809   3.731   3.233   0.434
 3189WAT     H2 9810   3.894   3.240   0.440
 3190WAT      O 9811   4.419   4.647   2.557
 3190WAT     H1 9812   4.356   4.720   2.530
 3190WAT     H2 9813   4.458   4.605   2.475
 3191WAT      O 9814   5.434   4.383   8.041
 3191WAT     H1 9815   5.374   4.375   7.962
 3191WAT     H2 9816   5.446   4.480   8.064
 3192WAT      O 9817   6.665   0.970   5.432
 3192WAT     H1 9818   6.612   0.917   5.499
 3192WAT     H2 9819   6.729   0.909   5.385
 3193WAT      O 9820   5.846   2.411   7.118
 3193WAT     H1 9821   5.862   2.349   7.041
 3193WAT     H2 9822   5.913   2.485   7.115
 3194WAT      O 9823   0.059   5.597   2.656
 3194WAT     H1 9824   0.131   5.575   2.591
 3194WAT     H2 9825  -0.006   5.660   2.614
 3195WAT      O 9826   9.502   2.914   8.565
 3195WAT     H1 9827   9.434   2.987   8.573
 3195WAT     H2 9828   9.592   2.954   8.551
 3196WAT      O 9829   4.795   2.288   2.053
 3196WAT     H1 9830   4.826   2.245   1.969
 3196WAT     H2 9831   4.810   2.226   2.130
 3197WAT      O 9832   8.040   1.741   4.320
 3197WAT     H1 9833   8.129   1.701   4.297
 3197WAT     H2 9834   8.032   1.751   4.419
 3198WAT      O 9835   4.290   1.192   7.984
 3198WAT     H1 9836   4.304   1.157   7.891
 3198WAT     H2 9837   4.268   1.117   8.046
 3199WAT      O 9838   3.724   2.040   3.524
 3199WAT     H1 9839   3.805   2.081   3.566
 3199WAT     H2 9840   3.655   2.023   3.595
 3200WAT      O 9841   3.117   6.564   5.839
 3200WAT     H1 9842   3.042   6.506   5.872
 3200WAT     H2 9843   3.165   6.517   5.765
 3201WAT      O 9844   6.531   2.908   3.612
 3201WAT     H1 9845   6.437   2.909   3.577
 3201WAT     H2 9846   6.529   2.913   3.712
 3202WAT      O 9847   5.669   5.606   5.890
 3202WAT     H1 9848   5.688   5.508   5.901
 3202WAT     H2 9849   5.622   5.621   5.803
 3203WAT      O 9850   7.911   4.308   3.739
 3203WAT     H1 9851   7.945   4.382   3.681
 3203WAT     H2 9852   7.826   4.272   3.702
 3204WAT      O 9853   9.185   3.322   2.116
 3204WAT     H1 9854   9.138   3.356   2.198
 3204WAT     H2 9855   9.181   3.391   2.044
 3205WAT      O 9856   0.407   0.217   8.130
 3205WAT     H1 9857   0.425   0.297   8.187
 3205WAT     H2 9858   0.363   0.245   8.045
 3206WAT      O 9859   8.290   2.907   7.700
 3206WAT     H1 9860   8.233   2.843   7.752
 3206WAT     H2 9861   8.385   2.898   7.728
 3207WAT      O 9862   5.584   4.756   8.357
 3207WAT     H1 9863   5.655   4.821   8.330
 3207WAT     H2 9864   5.515   4.803   8.413
 3208WAT      O 9865   6.524   0.523   8.039
 3208WAT     H1 9866   6.509   0.466   7.958
 3208WAT     H2 9867   6.611   0.571   8.030
 3209WAT      O 9868   3.473   6.741   2.709
 3209WAT     H1 9869   3.431   6.825   2.676
 3209WAT     H2 9870   3.483   6.745   2.808
 3210WAT      O 9871   0.160   7.887   3.207
 3210WAT     H1 9872   0.195   7.906   3.299
 3210WAT     H2 9873   0.204   7.804   3.171
 3211WAT      O 9874   1.832   4.522   4.667
 3211WAT     H1 9875   1.813   4.522   4.765
 3211WAT     H2 9876   1.822   4.615   4.631
 3212WAT      O 9877   6.323   0.705   4.032
 3212WAT     H1 9878   6.415   0.668   4.025
 3212WAT     H2 9879   6.278   0.700   3.942
 3213WAT      O 9880   2.701   2.684   1.077
 3213WAT     H1 9881   2.609   2.677   1.038
 3213WAT     H2 9882   2.733   2.778   1.072
 3214WAT      O 9883   9.712   7.408   0.585
 3214WAT     H1 9884   9.773   7.399   0.506
 3214WAT     H2 9885   9.632   7.463   0.559
 3215WAT      O 9886   9.548   0.223   0.383
 3215WAT     H1 9887   9.464   0.265   0.417
 3215WAT     H2 9888   9.549   0.225   0.283
 3216WAT      O 9889   8.212   6.598   2.722
 3216WAT     H1 9890   8.237   6.695   2.732
 3216WAT     H2 9891   8.262   6.544   2.790
 3217WAT      O 9892   0.165   1.064   5.032
 3217WAT     H1 9893   0.073   1.068   5.071
 3217WAT     H2 9894   0.176   0.977   4.983
 3218WAT      O 9895   4.729   5.075   0.537
 3218WAT     H1 9896   4.660   5.002   0.532
 3218WAT     H2 9897   4.684   5.164   0.536
 3219WAT      O 9898   2.188   7.931   3.539
 3219WAT     H1 9899   2.202   7.862   3.609
 3219WAT     H2 9900   2.091   7.935   3.514
 3220WAT      O 9901   1.947   0.028   0.135
 3220WAT     H1 9902   2.031   0.072   0.103
 3220WAT     H2 9903   1.926   0.060   0.228
 3221WAT      O 9904   7.645   9.168   3.894
 3221WAT     H1 9905   7.643   9.071   3.874
 3221WAT     H2 9906   7.684   9.218   3.817
 3222WAT      O 9907   3.588   1.090   8.473
 3222WAT     H1 9908   3.654   1.123   8.541
 3222WAT     H2 9909   3.632   1.087   8.383
 3223WAT      O 9910   7.090   4.382   3.614
 3223WAT     H1 9911   7.112   4.300   3.562
 3223WAT     H2 9912   7.098   4.462   3.555
 3224WAT      O 9913   9.479   0.688   1.137
 3224WAT     H1 9914   9.441   0.746   1.209
 3224WAT     H2 9915   9.517   0.605   1.177
 3225WAT      O 9916   0.243   3.145   7.354
 3225WAT     H1 9917   0.248   3.241   7.381
 3225WAT     H2 9918   0.321   3.095   7.392
 3226WAT      O 9919   5.854   8.412   7.999
 3226WAT     H1 9920   5.835   8.339   7.934
 3226WAT     H2 9921   5.947   8.401   8.035
 3227WAT      O 9922   1.031   9.008   5.330
 3227WAT     H1 9923   1.028   9.055   5.418
 3227WAT     H2 9924   0.949   9.030   5.278
 3228WAT      O 9925   8.858   3.545   4.444
 3228WAT     H1 9926   8.796   3.501   4.509
 3228WAT     H2 9927   8.948   3.558   4.488
 3229WAT      O 9928   8.583   4.413   6.912
 3229WAT     H1 9929   8.563   4.394   6.816
 3229WAT     H2 9930   8.504   4.389   6.968
 3230WAT      O 9931   5.276   3.497   2.317
 3230WAT     H1 9932   5.208   3.426   2.297
 3230WAT     H2 9933   5.329   3.469   2.397
 3231WAT      O 9934   5.921   4.463   1.616
 3231WAT     H1 9935   5.854   4.521   1.572
 3231WAT     H2 9936   5.875   4.391   1.668
 3232WAT      O 9937   2.155   4.783   7.740
 3232WAT     H1 9938   2.208   4.786   7.825
 3232WAT     H2 9939   2.171   4.868   7.689
 3233WAT      O 9940   4.143   9.272   6.007
 3233WAT     H1 9941   4.096   9.184   6.015
 3233WAT     H2 9942   4.140   9.303   5.912
 3234WAT      O 9943   9.706   9.432   3.805
 3234WAT     H1 9944   9.614   9.416   3.842
 3234WAT     H2 9945   9.709   9.406   3.709
 3235WAT      O 9946   9.356   5.086   4.036
 3235WAT     H1 9947   9.331   5.084   3.939
 3235WAT     H2 9948   9.330   5.174   4.075
 3236WAT      O 9949   1.664   6.276   4.233
 3236WAT     H1 9950   1.732   6.316   4.294
 3236WAT     H2 9951   1.684   6.179   4.221
 3237WAT      O 9952   5.415   3.658   0.428
 3237WAT     H1 9953   5.361   3.740   0.444
 3237WAT     H2 9954   5.499   3.663   0.482
 3238WAT      O 9955   5.121   6.582   6.021
 3238WAT     H1 9956   5.149   6.636   5.942
 3238WAT     H2 9957   5.166   6.493   6.018
 3239WAT      O 9958   3.527   2.952   4.675
 3239WAT     H1 9959   3.525   2.874   4.612
 3239WAT     H2 9960   3.608   3.008   4.656
 3240WAT      O 9961   7.850   5.991   2.362
 3240WAT     H1 9962   7.799   5.949   2.287
 3240WAT     H2 9963   7.948   5.982   2.345
 3241WAT      O 9964   6.517   8.086   1.304
 3241WAT     H1 9965   6.580   8.162   1.321
 3241WAT     H2 9966   6.443   8.117   1.244
 3242WAT      O 9967   4.903   7.097   2.408
 3242WAT     H1 9968   4.846   7.139   2.478
 3242WAT     H2 9969   4.947   7.168   2.354
 3243WAT      O 9970   8.092   2.130   6.889
 3243WAT     H1 9971   8.067   2.193   6.962
 3243WAT     H2 9972   8.074   2.036   6.917
 3244WAT      O 9973   8.289   5.580   6.915
 3244WAT     H1 9974   8.241   5.566   7.002
 3244WAT     H2 9975   8.358   5.651   6.926
 3245WAT      O 9976   4.613   1.686   7.396
 3245WAT     H1 9977   4.521   1.670   7.362
 3245WAT     H2 9978   4.676   1.619   7.356
 3246WAT      O 9979   4.337   3.367   8.903
 3246WAT     H1 9980   4.273   3.338   8.833
 3246WAT     H2 9981   4.390   3.289   8.935
 3247WAT      O 9982   2.562   3.962   3.171
 3247WAT     H1 9983   2.504   4.043   3.174
 3247WAT     H2 9984   2.532   3.897   3.241
 3248WAT      O 9985   7.731   6.776   8.350
 3248WAT     H1 9986   7.637   6.789   8.321
 3248WAT     H2 9987   7.793   6.806   8.278
 3249WAT      O 9988   8.071   2.795   8.902
 3249WAT     H1 9989   8.056   2.702   8.868
 3249WAT     H2 9990   8.127   2.791   8.985
 3250WAT      O 9991   7.577   8.616   6.185
 3250WAT     H1 9992   7.546   8.525   6.158
 3250WAT     H2 9993   7.498   8.670   6.216
 3251WAT      O 9994   6.047   5.578   3.145
 3251WAT     H1 9995   6.059   5.657   3.085
 3251WAT     H2 9996   5.968   5.591   3.204
 3252WAT      O 9997   1.389   7.516   7.896
 3252WAT     H1 9998   1.416   7.514   7.992
 3252WAT     H2 9999   1.427   7.598   7.852
 3253WAT      O10000   9.468   3.478   1.280
 3253WAT     H110001   9.550   3.500   1.226
 3253WAT     H210002   9.391   3.531   1.245
 3254WAT      O10003   3.699   9.514   2.801
 3254WAT     H110004   3.791   9.526   2.838
 3254WAT     H210005   3.631   9.538   2.870
 3255WAT      O10006   5.087   6.517   9.045
 3255WAT     H110007   5.147   6.503   9.123
 3255WAT     H210008   5.141   6.533   8.963
 3256WAT      O10009   0.315   1.925   2.745
 3256WAT     H110010   0.309   2.011   2.795
 3256WAT     H210011   0.258   1.929   2.664
 3257WAT      O10012   8.376   3.517   3.531
 3257WAT     H110013   8.472   3.491   3.542
 3257WAT     H210014   8.367   3.616   3.548
 3258WAT      O10015   2.976   5.084   2.664
 3258WAT     H110016   2.922   5.134   2.731
 3258WAT     H210017   3.034   5.149   2.613
 3259WAT      O10018   2.265   9.281   5.975
 3259WAT     H110019   2.196   9.210   5.962
 3259WAT     H210020   2.236   9.344   6.048
 3260WAT      O10021   0.624   7.141   3.915
 3260WAT     H110022   0.708   7.152   3.968
 3260WAT     H210023   0.586   7.231   3.893
 3261WAT      O10024   5.581   6.083   4.533
 3261WAT     H110025   5.503   6.079   4.471
 3261WAT     H210026   5.653   6.139   4.493
 3262WAT      O10027   2.829   7.760   0.822
 3262WAT     H110028   2.755   7.774   0.887
 3262WAT     H210029   2.916   7.786   0.864
 3263WAT      O10030   8.306   2.720   0.118
 3263WAT     H110031   8.286   2.665   0.200
 3263WAT     H210032   8.307   2.817   0.143
 3264WAT      O10033   7.312   0.645   1.374
 3264WAT     H110034   7.366   0.700   1.437
 3264WAT     H210035   7.367   0.624   1.292
 3265WAT      O10036   5.122   6.109   5.608
 3265WAT     H110037   5.146   6.012   5.609
 3265WAT     H210038   5.204   6.163   5.628
 3266WAT      O10039   9.764   4.104   9.062
 3266WAT     H110040   9.696   4.080   9.133
 3266WAT     H210041   9.723   4.168   8.998
 3267WAT      O10042   0.512   8.094   3.333
 3267WAT     H110043   0.442   8.163   3.353
 3267WAT     H210044   0.578   8.091   3.409
 3268WAT      O10045   1.062   3.640   3.977
 3268WAT     H110046   1.056   3.543   4.001
 3268WAT     H210047   1.157   3.663   3.956
 3269WAT      O10048   9.770   1.639   4.119
 3269WAT     H110049   9.691   1.678   4.071
 3269WAT     H210050   9.855   1.675   4.080
 3270WAT      O10051   1.056   0.427   2.965
 3270WAT     H110052   1.052   0.421   2.865
 3270WAT     H210053   1.046   0.523   2.992
 3271WAT      O10054   1.353   0.006   3.800
 3271WAT     H110055   1.369   0.011   3.701
 3271WAT     H210056   1.416   0.067   3.847
 3272WAT      O10057   2.837   6.585   1.263
 3272WAT     H110058   2.848   6.486   1.251
 3272WAT     H210059   2.740   6.606   1.278
 3273WAT      O10060   4.770   9.533   3.063
 3273WAT     H110061   4.803   9.537   3.157
 3273WAT     H210062   4.719   9.448   3.050
 3274WAT      O10063   0.175   2.505   1.995
 3274WAT     H110064   0.159   2.503   1.897
 3274WAT     H210065   0.244   2.437   2.019
 3275WAT      O10066   0.115   2.974   1.040
 3275WAT     H110067   0.024   2.994   1.075
 3275WAT     H210068   0.119   2.877   1.014
 3276WAT      O10069   6.621   2.874   7.424
 3276WAT     H110070   6.525   2.885   7.449
 3276WAT     H210071   6.651   2.953   7.369
 3277WAT      O10072   2.773   1.989   3.395
 3277WAT     H110073   2.694   2.029   3.441
 3277WAT     H210074   2.747   1.961   3.302
 3278WAT      O10075   5.091   1.513   1.329
 3278WAT     H110076   5.163   1.571   1.368
 3278WAT     H210077   5.128   1.462   1.251
 3279WAT      O10078   7.079   9.562   7.865
 3279WAT     H110079   7.108   9.471   7.835
 3279WAT     H210080   7.041   9.556   7.957
 3280WAT      O10081   3.025   1.932   5.325
 3280WAT     H110082   2.972   2.004   5.281
 3280WAT     H210083   3.122   1.958   5.326
 3281WAT      O10084   4.187   7.199   8.387
 3281WAT     H110085   4.105   7.168   8.435
 3281WAT     H210086   4.268   7.161   8.433
 3282WAT      O10087   6.823   6.354   4.290
 3282WAT     H110088   6.868   6.439   4.318
 3282WAT     H210089   6.885   6.277   4.306
 3283WAT      O10090   9.864   9.757   1.975
 3283WAT     H110091   9.890   9.852   1.995
 3283WAT     H210092   9.903   9.697   2.044
 3284WAT      O10093   9.235   5.688   7.426
 3284WAT     H110094   9.324   5.734   7.422
 3284WAT     H210095   9.247   5.595   7.460
 3285WAT      O10096   8.919   5.506   7.726
 3285WAT     H110097   9.009   5.464   7.726
 3285WAT     H210098   8.849   5.437   7.744
 3286WAT      O10099   5.437   1.384   1.244
 3286WAT     H110100   5.345   1.402   1.212
 3286WAT     H210101   5.452   1.285   1.248
 3287WAT      O10102   9.788   6.688   6.280
 3287WAT     H110103   9.723   6.615   6.262
 3287WAT     H210104   9.840   6.668   6.363
 3288WAT      O10105   7.591   4.395   9.777
 3288WAT     H110106   7.556   4.308   9.812
 3288WAT     H210107   7.538   4.470   9.815
 3289WAT      O10108   9.078   7.874   7.277
 3289WAT     H110109   9.035   7.808   7.339
 3289WAT     H210110   9.052   7.966   7.303
 3290WAT      O10111   0.689   3.578   3.132
 3290WAT     H110112   0.720   3.498   3.183
 3290WAT     H210113   0.604   3.612   3.172
 3291WAT      O10114   5.152   0.727   7.715
 3291WAT     H110115   5.240   0.770   7.695
 3291WAT     H210116   5.153   0.691   7.808
 3292WAT      O10117   5.511   8.148   3.462
 3292WAT     H110118   5.531   8.167   3.366
 3292WAT     H210119   5.478   8.053   3.471
 3293WAT      O10120   2.369   7.277   4.134
 3293WAT     H110121   2.406   7.299   4.043
 3293WAT     H210122   2.407   7.190   4.165
 3294WAT      O10123   3.374   2.355   4.660
 3294WAT     H110124   3.290   2.380   4.612
 3294WAT     H210125   3.443   2.426   4.648
 3295WAT      O10126   5.503   5.845   2.598
 3295WAT     H110127   5.532   5.939   2.581
 3295WAT     H210128   5.528   5.787   2.520
 3296WAT      O10129   1.893   7.781   1.740
 3296WAT     H110130   1.987   7.808   1.758
 3296WAT     H210131   1.859   7.727   1.818
 3297WAT      O10132   0.614   2.224   8.664
 3297WAT     H110133   0.541   2.243   8.730
 3297WAT     H210134   0.690   2.288   8.679
 3298WAT      O10135   6.879   3.706   3.186
 3298WAT     H110136   6.958   3.765   3.199
 3298WAT     H210137   6.904   3.628   3.129
 3299WAT      O10138   8.361   6.567   6.414
 3299WAT     H110139   8.369   6.578   6.315
 3299WAT     H210140   8.337   6.472   6.435
 3300WAT      O10141   5.299   0.586   5.625
 3300WAT     H110142   5.363   0.649   5.582
 3300WAT     H210143   5.266   0.520   5.557
 3301WAT      O10144   0.347   4.804   7.473
 3301WAT     H110145   0.402   4.765   7.547
 3301WAT     H210146   0.365   4.753   7.388
 3302WAT      O10147   5.832   4.668   8.009
 3302WAT     H110148   5.905   4.616   8.053
 3302WAT     H210149   5.857   4.689   7.915
 3303WAT      O10150   4.951   5.903   2.332
 3303WAT     H110151   4.882   5.963   2.372
 3303WAT     H210152   4.999   5.854   2.405
 3304WAT      O10153   3.041   6.501   9.141
 3304WAT     H110154   3.060   6.425   9.203
 3304WAT     H210155   2.942   6.508   9.126
 3305WAT      O10156   1.347   2.679   2.594
 3305WAT     H110157   1.256   2.710   2.567
 3305WAT     H210158   1.414   2.709   2.526
 3306WAT      O10159   2.106   5.203   7.976
 3306WAT     H110160   2.170   5.231   7.905
 3306WAT     H210161   2.141   5.232   8.066
 3307WAT      O10162   0.657   2.339   3.532
 3307WAT     H110163   0.724   2.321   3.604
 3307WAT     H210164   0.582   2.273   3.538
 3308WAT      O10165   3.433   1.367   9.476
 3308WAT     H110166   3.385   1.420   9.546
 3308WAT     H210167   3.446   1.273   9.507
 3309WAT      O10168   2.916   0.942   1.216
 3309WAT     H110169   2.882   0.950   1.123
 3309WAT     H210170   2.993   1.005   1.229
 3310WAT      O10171   8.669   8.681   1.213
 3310WAT     H110172   8.710   8.593   1.238
 3310WAT     H210173   8.604   8.708   1.284
 3311WAT      O10174   1.443   4.519   2.191
 3311WAT     H110175   1.348   4.532   2.220
 3311WAT     H210176   1.497   4.599   2.219
 3312WAT      O10177   6.852   0.713   4.519
 3312WAT     H110178   6.758   0.683   4.505
 3312WAT     H210179   6.892   0.739   4.431
 3313WAT      O10180   1.440   0.453   7.403
 3313WAT     H110181   1.402   0.537   7.443
 3313WAT     H210182   1.520   0.424   7.455
 3314WAT      O10183   2.291   8.237   7.336
 3314WAT     H110184   2.308   8.322   7.286
 3314WAT     H210185   2.295   8.254   7.434
 3315WAT      O10186   0.373   0.995   4.259
 3315WAT     H110187   0.302   0.928   4.279
 3315WAT     H210188   0.416   1.024   4.345
 3316WAT      O10189   6.230   0.297   4.061
 3316WAT     H110190   6.130   0.296   4.055
 3316WAT     H210191   6.265   0.204   4.050
 3317WAT      O10192   6.343   5.758   3.501
 3317WAT     H110193   6.303   5.695   3.567
 3317WAT     H210194   6.273   5.786   3.435
 3318WAT      O10195   3.578   2.467   1.911
 3318WAT     H110196   3.548   2.372   1.920
 3318WAT     H210197   3.652   2.472   1.844
 3319WAT      O10198   6.266   0.766   8.663
 3319WAT     H110199   6.341   0.760   8.597
 3319WAT     H210200   6.218   0.853   8.652
 3320WAT      O10201   0.767   7.606   9.700
 3320WAT     H110202   0.856   7.594   9.657
 3320WAT     H210203   0.779   7.614   9.799
 3321WAT      O10204   9.060   0.874   5.040
 3321WAT     H110205   9.127   0.869   5.114
 3321WAT     H210206   9.087   0.944   4.974
 3322WAT      O10207   4.656   6.469   2.066
 3322WAT     H110208   4.654   6.437   1.971
 3322WAT     H210209   4.750   6.492   2.091
 3323WAT      O10210   0.543   6.947   6.005
 3323WAT     H110211   0.608   6.892   6.057
 3323WAT     H210212   0.529   7.034   6.052
 3324WAT      O10213   3.151   8.672   8.173
 3324WAT     H110214   3.053   8.684   8.158
 3324WAT     H210215   3.199   8.755   8.146
 3325WAT      O10216   1.461   8.765   2.151
 3325WAT     H110217   1.503   8.739   2.064
 3325WAT     H210218   1.389   8.700   2.174
 3326WAT      O10219   9.364   1.055   2.469
 3326WAT     H110220   9.288   1.001   2.434
 3326WAT     H210221   9.450   1.017   2.437
 3327WAT      O10222   6.795   4.600   4.348
 3327WAT     H110223   6.816   4.514   4.302
 3327WAT     H210224   6.852   4.673   4.311
 3328WAT      O10225   9.365   1.166   3.255
 3328WAT     H110226   9.418   1.224   3.192
 3328WAT     H210227   9.299   1.112   3.202
 3329WAT      O10228   5.935   0.110   6.150
 3329WAT     H110229   5.958   0.197   6.195
 3329WAT     H210230   5.836   0.096   6.151
 3330WAT      O10231   2.350   8.205   5.223
 3330WAT     H110232   2.421   8.270   5.248
 3330WAT     H210233   2.260   8.242   5.249
 3331WAT      O10234   8.169   8.874   6.023
 3331WAT     H110235   8.102   8.949   6.024
 3331WAT     H210236   8.190   8.850   5.928
 3332WAT      O10237   4.167   0.878   2.934
 3332WAT     H110238   4.073   0.873   2.966
 3332WAT     H210239   4.190   0.973   2.911
 3333WAT      O10240   0.970   2.466   4.693
 3333WAT     H110241   0.960   2.390   4.628
 3333WAT     H210242   1.067   2.484   4.709
 3334WAT      O10243   9.010   0.601   0.598
 3334WAT     H110244   9.018   0.620   0.696
 3334WAT     H210245   8.969   0.680   0.552
 3335WAT      O10246   0.491   5.372   8.971
 3335WAT     H110247   0.471   5.282   8.931
 3335WAT     H210248   0.530   5.360   9.062
 3336WAT      O10249   5.503   1.542   8.518
 3336WAT     H110250   5.527   1.496   8.432
 3336WAT     H210251   5.430   1.491   8.563
 3337WAT      O10252   0.401   8.878   4.715
 3337WAT     H110253   0.394   8.839   4.806
 3337WAT     H210254   0.322   8.936   4.696
 3338WAT      O10255   3.171   8.389   4.493
 3338WAT     H110256   3.081   8.416   4.458
 3338WAT     H210257   3.242   8.419   4.429
 3339WAT      O10258   9.508   0.227   0.119
 3339WAT     H110259   9.520   0.315   0.074
 3339WAT     H210260   9.417   0.191   0.100
 3340WAT      O10261   9.179   4.780   6.914
 3340WAT     H110262   9.137   4.728   6.841
 3340WAT     H210263   9.277   4.761   6.917
 3341WAT      O10264   2.048   3.300   7.531
 3341WAT     H110265   2.009   3.226   7.585
 3341WAT     H210266   2.080   3.372   7.592
 3342WAT      O10267   8.832   7.550   0.802
 3342WAT     H110268   8.748   7.502   0.824
 3342WAT     H210269   8.879   7.504   0.727
 3343WAT      O10270   9.064   2.545   8.881
 3343WAT     H110271   9.073   2.457   8.927
 3343WAT     H210272   9.143   2.560   8.823
 3344WAT      O10273   5.143   7.123   2.732
 3344WAT     H110274   5.240   7.105   2.747
 3344WAT     H210275   5.108   7.061   2.662
 3345WAT      O10276   4.782   8.784   8.726
 3345WAT     H110277   4.875   8.756   8.749
 3345WAT     H210278   4.760   8.755   8.633
 3346WAT      O10279   8.434   6.182   2.794
 3346WAT     H110280   8.443   6.121   2.716
 3346WAT     H210281   8.476   6.270   2.773
 3347WAT      O10282   3.941   4.748   3.977
 3347WAT     H110283   3.938   4.735   3.878
 3347WAT     H210284   3.976   4.839   3.998
 3348WAT      O10285   9.124   1.934   9.850
 3348WAT     H110286   9.166   1.849   9.881
 3348WAT     H210287   9.025   1.921   9.841
 3349WAT      O10288   7.820   6.672   4.209
 3349WAT     H110289   7.826   6.633   4.118
 3349WAT     H210290   7.847   6.604   4.277
 3350WAT      O10291   8.498   2.585   3.551
 3350WAT     H110292   8.420   2.573   3.489
 3350WAT     H210293   8.562   2.509   3.540
 3351WAT      O10294   8.810   8.434   2.746
 3351WAT     H110295   8.859   8.405   2.664
 3351WAT     H210296   8.804   8.358   2.810
 3352WAT      O10297   1.338   2.266   5.555
 3352WAT     H110298   1.406   2.203   5.591
 3352WAT     H210299   1.383   2.335   5.497
 3353WAT      O10300   1.777   1.854   4.917
 3353WAT     H110301   1.857   1.795   4.927
 3353WAT     H210302   1.770   1.915   4.996
 3354WAT      O10303   6.099   2.912   7.311
 3354WAT     H110304   6.101   2.855   7.229
 3354WAT     H210305   6.021   2.974   7.307
 3355WAT      O10306   9.156   6.269   8.718
 3355WAT     H110307   9.200   6.357   8.732
 3355WAT     H210308   9.064   6.270   8.756
 3356WAT      O10309   5.366   9.468   9.063
 3356WAT     H110310   5.269   9.445   9.050
 3356WAT     H210311   5.412   9.393   9.110
 3357WAT      O10312   2.717   8.557   6.621
 3357WAT     H110313   2.801   8.612   6.627
 3357WAT     H210314   2.705   8.525   6.527
 3358WAT      O10315   7.420   0.342   0.043
 3358WAT     H110316   7.438   0.288   0.126
 3358WAT     H210317   7.392   0.434   0.068
 3359WAT      O10318   8.867   5.738   1.238
 3359WAT     H110319   8.811   5.799   1.294
 3359WAT     H210320   8.957   5.779   1.224
 3360WAT      O10321   7.451   7.498   0.846
 3360WAT     H110322   7.406   7.482   0.933
 3360WAT     H210323   7.435   7.420   0.785
 3361WAT      O10324   4.260   3.656   2.190
 3361WAT     H110325   4.164   3.641   2.212
 3361WAT     H210326   4.317   3.613   2.260
 3362WAT      O10327   5.841   0.030   8.736
 3362WAT     H110328   5.741   0.038   8.732
 3362WAT     H210329   5.877   0.024   8.643
 3363WAT      O10330   4.701   0.754   9.153
 3363WAT     H110331   4.757   0.699   9.091
 3363WAT     H210332   4.657   0.828   9.103
 3364WAT      O10333   9.621   7.535   7.755
 3364WAT     H110334   9.659   7.459   7.702
 3364WAT     H210335   9.582   7.500   7.840
 3365WAT      O10336   5.028   6.854   2.228
 3365WAT     H110337   5.070   6.776   2.181
 3365WAT     H210338   5.081   6.937   2.211
 3366WAT      O10339   2.118   9.249   7.898
 3366WAT     H110340   2.050   9.191   7.943
 3366WAT     H210341   2.193   9.267   7.960
 3367WAT      O10342   7.326   1.734   1.432
 3367WAT     H110343   7.329   1.635   1.422
 3367WAT     H210344   7.350   1.778   1.346
 3368WAT      O10345   3.265   0.388   9.693
 3368WAT     H110346   3.178   0.434   9.676
 3368WAT     H210347   3.274   0.309   9.632
 3369WAT      O10348   8.767   3.842   5.016
 3369WAT     H110349   8.810   3.855   4.927
 3369WAT     H210350   8.771   3.746   5.042
 3370WAT      O10351   1.995   1.953   1.222
 3370WAT     H110352   1.928   1.975   1.151
 3370WAT     H210353   2.087   1.952   1.182
 3371WAT      O10354   8.873   0.011   8.942
 3371WAT     H110355   8.803  -0.032   8.999
 3371WAT     H210356   8.962  -0.000   8.986
 3372WAT      O10357   6.064   5.552   8.739
 3372WAT     H110358   6.099   5.458   8.737
 3372WAT     H210359   5.978   5.554   8.791
 3373WAT      O10360   3.211   2.341   7.427
 3373WAT     H110361   3.120   2.373   7.452
 3373WAT     H210362   3.226   2.355   7.329
 3374WAT      O10363   4.715   1.968   9.294
 3374WAT     H110364   4.763   1.982   9.381
 3374WAT     H210365   4.621   1.942   9.312
 3375WAT      O10366   7.186   6.885   6.466
 3375WAT     H110367   7.132   6.822   6.521
 3375WAT     H210368   7.148   6.978   6.475
 3376WAT      O10369   1.637   4.865   7.411
 3376WAT     H110370   1.707   4.924   7.452
 3376WAT     H210371   1.625   4.890   7.315
 3377WAT      O10372   5.001   6.376   3.327
 3377WAT     H110373   5.048   6.319   3.394
 3377WAT     H210374   4.952   6.450   3.373
 3378WAT      O10375   0.391   5.194   0.885
 3378WAT     H110376   0.483   5.219   0.917
 3378WAT     H210377   0.332   5.274   0.889
 3379WAT      O10378   5.293   5.034   0.418
 3379WAT     H110379   5.384   5.045   0.378
 3379WAT     H210380   5.234   5.109   0.388
 3380WAT      O10381   4.864   9.038   1.144
 3380WAT     H110382   4.802   8.960   1.143
 3380WAT     H210383   4.913   9.041   1.231
 3381WAT      O10384   1.073   7.240   4.356
 3381WAT     H110385   0.996   7.304   4.358
 3381WAT     H210386   1.132   7.262   4.278
 3382WAT      O10387   7.450   3.966   0.781
 3382WAT     H110388   7.386   3.891   0.799
 3382WAT     H210389   7.543   3.929   0.774
 3383WAT      O10390   1.393   6.870   4.956
 3383WAT     H110391   1.407   6.798   5.023
 3383WAT     H210392   1.373   6.956   5.003
 3384WAT      O10393   0.760   1.782   2.426
 3384WAT     H110394   0.774   1.727   2.508
 3384WAT     H210395   0.819   1.748   2.353
 3385WAT      O10396   1.957   5.569   5.711
 3385WAT     H110397   1.950   5.565   5.810
 3385WAT     H210398   1.941   5.478   5.672
 3386WAT      O10399   1.126   5.019   5.318
 3386WAT     H110400   1.135   4.999   5.220
 3386WAT     H210401   1.163   4.943   5.370
 3387WAT      O10402   4.486   2.401   6.230
 3387WAT     H110403   4.411   2.464   6.210
 3387WAT     H210404   4.539   2.384   6.147
 3388WAT      O10405   7.678   7.231   5.308
 3388WAT     H110406   7.677   7.320   5.263
 3388WAT     H210407   7.767   7.188   5.295
 3389WAT      O10408   4.951   4.453   5.618
 3389WAT     H110409   4.873   4.510   5.643
 3389WAT     H210410   4.919   4.363   5.589
 3390WAT      O10411   2.975   8.450   0.760
 3390WAT     H110412   2.881   8.483   0.750
 3390WAT     H210413   2.981   8.392   0.841
 3391WAT      O10414   5.745   5.331   7.800
 3391WAT     H110415   5.693   5.360   7.720
 3391WAT     H210416   5.786   5.410   7.844
 3392WAT      O10417   9.016   8.510   0.606
 3392WAT     H110418   9.066   8.560   0.677
 3392WAT     H210419   9.081   8.474   0.538
 3393WAT      O10420   5.799   9.032   6.368
 3393WAT     H110421   5.820   8.939   6.399
 3393WAT     H210422   5.712   9.061   6.408
 3394WAT      O10423   3.873   2.003   5.474
 3394WAT     H110424   3.805   1.961   5.414
 3394WAT     H210425   3.964   1.986   5.437
 3395WAT      O10426   7.860   1.277   6.368
 3395WAT     H110427   7.867   1.341   6.444
 3395WAT     H210428   7.854   1.327   6.282
 3396WAT      O10429   6.300   3.726   8.051
 3396WAT     H110430   6.307   3.628   8.032
 3396WAT     H210431   6.317   3.778   7.968
 3397WAT      O10432   3.509   4.122   2.550
 3397WAT     H110433   3.515   4.173   2.464
 3397WAT     H210434   3.491   4.025   2.531
 3398WAT      O10435   7.554   4.272   6.123
 3398WAT     H110436   7.508   4.192   6.083
 3398WAT     H210437   7.536   4.353   6.067
 3399WAT      O10438   9.404   8.520   1.917
 3399WAT     H110439   9.323   8.480   1.875
 3399WAT     H210440   9.465   8.554   1.845
 3400WAT      O10441   3.897   3.366   3.641
 3400WAT     H110442   3.928   3.400   3.730
 3400WAT     H210443   3.811   3.410   3.617
 3401WAT      O10444   9.616   4.966   1.916
 3401WAT     H110445   9.631   5.056   1.876
 3401WAT     H210446   9.557   4.911   1.856
 3402WAT      O10447   3.880   1.028   4.821
 3402WAT     H110448   3.889   0.941   4.870
 3402WAT     H210449   3.951   1.035   4.751
 3403WAT      O10450   6.714   8.984   0.928
 3403WAT     H110451   6.688   9.031   1.012
 3403WAT     H210452   6.684   9.037   0.849
 3404WAT      O10453   8.158   0.940   7.590
 3404WAT     H110454   8.127   0.987   7.672
 3404WAT     H210455   8.190   1.007   7.523
 3405WAT      O10456   2.703   8.844   9.616
 3405WAT     H110457   2.653   8.808   9.538
 3405WAT     H210458   2.784   8.893   9.583
 3406WAT      O10459   3.982   8.952   9.880
 3406WAT     H110460   4.008   8.858   9.899
 3406WAT     H210461   3.904   8.954   9.817
 3407WAT      O10462   4.517   4.226   0.760
 3407WAT     H110463   4.528   4.230   0.860
 3407WAT     H210464   4.473   4.309   0.728
 3408WAT      O10465   6.405   4.408   3.826
 3408WAT     H110466   6.483   4.391   3.765
 3408WAT     H210467   6.385   4.326   3.879
 3409WAT      O10468   7.703   2.472   7.413
 3409WAT     H110469   7.662   2.562   7.430
 3409WAT     H210470   7.630   2.404   7.399
 3410WAT      O10471   9.579   3.207   4.571
 3410WAT     H110472   9.591   3.183   4.668
 3410WAT     H210473   9.658   3.261   4.541
 3411WAT      O10474   1.237   8.951   0.045
 3411WAT     H110475   1.156   8.917  -0.004
 3411WAT     H210476   1.210   8.980   0.137
 3412WAT      O10477   4.565   4.149   9.856
 3412WAT     H110478   4.590   4.215   9.786
 3412WAT     H210479   4.624   4.162   9.936
 3413WAT      O10480   7.960   3.252   2.801
 3413WAT     H110481   7.934   3.315   2.728
 3413WAT     H210482   8.057   3.263   2.821
 3414WAT      O10483   9.849   7.552   0.375
 3414WAT     H110484   9.852   7.629   0.440
 3414WAT     H210485   9.939   7.539   0.334
 3415WAT      O10486   8.593   5.126   2.816
 3415WAT     H110487   8.654   5.109   2.893
 3415WAT     H210488   8.632   5.196   2.757
 3416WAT      O10489   6.738   9.621   5.687
 3416WAT     H110490   6.695   9.531   5.677
 3416WAT     H210491   6.835   9.609   5.705
 3417WAT      O10492   2.294   3.341   5.280
 3417WAT     H110493   2.376   3.396   5.296
 3417WAT     H210494   2.288   3.269   5.350
 3418WAT      O10495   0.724   0.590   5.231
 3418WAT     H110496   0.814   0.618   5.262
 3418WAT     H210497   0.659   0.592   5.307
 3419WAT      O10498   9.076   1.579   7.845
 3419WAT     H110499   9.134   1.660   7.836
 3419WAT     H210500   8.993   1.602   7.895
 3420WAT      O10501   6.647   7.008   0.496
 3420WAT     H110502   6.708   7.061   0.438
 3420WAT     H210503   6.560   6.994   0.449
 3421WAT      O10504   3.723   2.426   1.190
 3421WAT     H110505   3.730   2.518   1.151
 3421WAT     H210506   3.707   2.433   1.289
 3422WAT      O10507   4.067   0.218   7.053
 3422WAT     H110508   4.016   0.262   6.980
 3422WAT     H210509   4.138   0.280   7.086
 3423WAT      O10510   8.512   5.286   5.844
 3423WAT     H110511   8.482   5.197   5.879
 3423WAT     H210512   8.519   5.350   5.920
 3424WAT      O10513   2.111   3.063   7.100
 3424WAT     H110514   2.131   3.096   7.192
 3424WAT     H210515   2.130   2.965   7.094
 3425WAT      O10516   5.583   2.931   5.289
 3425WAT     H110517   5.637   3.011   5.315
 3425WAT     H210518   5.635   2.875   5.225
 3426WAT      O10519   0.895   6.224   6.582
 3426WAT     H110520   0.851   6.265   6.662
 3426WAT     H210521   0.929   6.295   6.521
 3427WAT      O10522   2.492   6.364   3.449
 3427WAT     H110523   2.470   6.331   3.541
 3427WAT     H210524   2.416   6.344   3.387
 3428WAT      O10525   4.607   3.319   0.964
 3428WAT     H110526   4.596   3.230   0.921
 3428WAT     H210527   4.700   3.327   1.003
 3429WAT      O10528   8.196   7.012   3.423
 3429WAT     H110529   8.272   7.003   3.358
 3429WAT     H210530   8.227   7.064   3.503
 3430WAT      O10531   4.181   4.008   0.016
 3430WAT     H110532   4.248   4.019  -0.057
 3430WAT     H210533   4.139   3.917   0.009
 3431WAT      O10534   3.159   8.655   5.805
 3431WAT     H110535   3.185   8.706   5.887
 3431WAT     H210536   3.222   8.677   5.730
 3432WAT      O10537   0.435   9.823   5.424
 3432WAT     H110538   0.458   9.745   5.483
 3432WAT     H210539   0.470   9.907   5.465
 3433WAT      O10540   4.730   3.099   6.297
 3433WAT     H110541   4.765   3.134   6.384
 3433WAT     H210542   4.793   3.123   6.224
 3434WAT      O10543   5.574   6.216   9.520
 3434WAT     H110544   5.512   6.147   9.483
 3434WAT     H210545   5.601   6.280   9.449
 3435WAT      O10546   1.074   3.657   9.698
 3435WAT     H110547   1.092   3.630   9.792
 3435WAT     H210548   1.153   3.705   9.661
 3436WAT      O10549   9.741   3.298   7.076
 3436WAT     H110550   9.681   3.228   7.037
 3436WAT     H210551   9.799   3.257   7.147
 3437WAT      O10552   6.678   1.226   8.779
 3437WAT     H110553   6.749   1.295   8.769
 3437WAT     H210554   6.609   1.259   8.844
 3438WAT      O10555   1.619   6.703   7.695
 3438WAT     H110556   1.529   6.746   7.706
 3438WAT     H210557   1.619   6.614   7.740
 3439WAT      O10558   0.731   1.609   0.684
 3439WAT     H110559   0.793   1.535   0.712
 3439WAT     H210560   0.643   1.570   0.656
 3440WAT      O10561   5.057   9.717   1.475
 3440WAT     H110562   4.976   9.742   1.422
 3440WAT     H210563   5.117   9.659   1.419
 3441WAT      O10564   2.633   6.631   8.903
 3441WAT     H110565   2.668   6.558   8.845
 3441WAT     H210566   2.536   6.644   8.885
 3442WAT      O10567   0.492   5.270   0.619
 3442WAT     H110568   0.460   5.365   0.622
 3442WAT     H210569   0.457   5.221   0.699
 3443WAT      O10570   6.238   3.143   3.916
 3443WAT     H110571   6.192   3.177   3.998
 3443WAT     H210572   6.171   3.105   3.853
 3444WAT      O10573   6.255   3.737   8.551
 3444WAT     H110574   6.354   3.750   8.540
 3444WAT     H210575   6.238   3.653   8.603
 3445WAT      O10576   2.891   8.717   8.166
 3445WAT     H110577   2.809   8.662   8.186
 3445WAT     H210578   2.906   8.782   8.240
 3446WAT      O10579   2.597   9.727   7.605
 3446WAT     H110580   2.617   9.774   7.519
 3446WAT     H210581   2.625   9.785   7.682
 3447WAT      O10582   5.772   3.370   3.798
 3447WAT     H110583   5.813   3.461   3.789
 3447WAT     H210584   5.675   3.380   3.818
 3448WAT      O10585   6.599   3.287   6.857
 3448WAT     H110586   6.585   3.237   6.772
 3448WAT     H210587   6.619   3.383   6.837
 3449WAT      O10588   0.401   6.073   2.264
 3449WAT     H110589   0.463   6.128   2.209
 3449WAT     H210590   0.381   6.120   2.350
 3450WAT      O10591   1.102   6.845   9.295
 3450WAT     H110592   1.013   6.886   9.315
 3450WAT     H210593   1.142   6.889   9.214
 3451WAT      O10594   3.842   6.307   4.287
 3451WAT     H110595   3.840   6.221   4.337
 3451WAT     H210596   3.768   6.307   4.219
 3452WAT      O10597   0.208   0.339   4.153
 3452WAT     H110598   0.217   0.242   4.133
 3452WAT     H210599   0.271   0.365   4.226
 3453WAT      O10600   7.595   5.576   8.161
 3453WAT     H110601   7.526   5.584   8.089
 3453WAT     H210602   7.653   5.657   8.161
 3454WAT      O10603   5.923   2.136   0.939
 3454WAT     H110604   5.988   2.148   0.864
 3454WAT     H210605   5.933   2.044   0.977
 3455WAT      O10606   7.966   0.255   1.477
 3455WAT     H110607   7.992   0.251   1.573
 3455WAT     H210608   7.956   0.163   1.440
 3456WAT      O10609   6.666   0.142   9.035
 3456WAT     H110610   6.685   0.069   8.969
 3456WAT     H210611   6.668   0.104   9.128
 3457WAT      O10612   2.426   4.849   8.788
 3457WAT     H110613   2.495   4.921   8.774
 3457WAT     H210614   2.420   4.829   8.886
 3458WAT      O10615   4.746   6.418   5.689
 3458WAT     H110616   4.754   6.447   5.785
 3458WAT     H210617   4.830   6.370   5.662
 3459WAT      O10618   3.090   5.048   7.280
 3459WAT     H110619   2.992   5.068   7.281
 3459WAT     H210620   3.114   4.998   7.197
 3460WAT      O10621   2.139   9.800   1.318
 3460WAT     H110622   2.121   9.872   1.385
 3460WAT     H210623   2.066   9.732   1.322
 3461WAT      O10624   2.369   3.065   2.966
 3461WAT     H110625   2.424   3.021   2.896
 3461WAT     H210626   2.294   3.115   2.923
 3462WAT      O10627   8.423   8.455   1.304
 3462WAT     H110628   8.446   8.509   1.385
 3462WAT     H210629   8.507   8.428   1.257
 3463WAT      O10630   6.043   0.757   2.444
 3463WAT     H110631   6.129   0.788   2.486
 3463WAT     H210632   5.967   0.778   2.506
 3464WAT      O10633   1.049   0.358   9.703
 3464WAT     H110634   1.014   0.420   9.632
 3464WAT     H210635   1.054   0.408   9.790
 3465WAT      O10636   0.098   7.701   9.523
 3465WAT     H110637   0.108   7.610   9.483
 3465WAT     H210638   0.012   7.706   9.573
 3466WAT      O10639   4.907   3.079   0.039
 3466WAT     H110640   4.972   3.015  -0.003
 3466WAT     H210641   4.941   3.107   0.129
 3467WAT      O10642   3.456   2.085   6.560
 3467WAT     H110643   3.542   2.043   6.530
 3467WAT     H210644   3.382   2.056   6.500
 3468WAT      O10645   0.099   7.244   1.319
 3468WAT     H110646   0.191   7.281   1.305
 3468WAT     H210647   0.044   7.258   1.237
 3469WAT      O10648   6.424   1.827   4.689
 3469WAT     H110649   6.352   1.765   4.720
 3469WAT     H210650   6.468   1.869   4.769
 3470WAT      O10651   6.798   0.521   9.532
 3470WAT     H110652   6.875   0.583   9.548
 3470WAT     H210653   6.823   0.428   9.559
 3471WAT      O10654   1.607   6.778   5.315
 3471WAT     H110655   1.551   6.852   5.354
 3471WAT     H210656   1.624   6.709   5.385
 3472WAT      O10657   4.781   9.810   0.810
 3472WAT     H110658   4.876   9.795   0.783
 3472WAT     H210659   4.739   9.723   0.834
 3473WAT      O10660   9.710   8.953   7.614
 3473WAT     H110661   9.723   8.883   7.684
 3473WAT     H210662   9.662   9.031   7.654
 3474WAT      O10663   0.291   5.695   5.933
 3474WAT     H110664   0.374   5.645   5.909
 3474WAT     H210665   0.252   5.656   6.017
 3475WAT      O10666   3.290   1.424   2.526
 3475WAT     H110667   3.267   1.434   2.623
 3475WAT     H210668   3.209   1.441   2.470
 3476WAT      O10669   4.168   3.466   7.600
 3476WAT     H110670   4.261   3.464   7.564
 3476WAT     H210671   4.140   3.373   7.626
 3477WAT      O10672   8.000   9.008   1.169
 3477WAT     H110673   7.993   8.962   1.080
 3477WAT     H210674   8.061   8.956   1.229
 3478WAT      O10675   0.334   0.219   2.922
 3478WAT     H110676   0.404   0.153   2.897
 3478WAT     H210677   0.257   0.172   2.965
 3479WAT      O10678   2.244   4.296   0.048
 3479WAT     H110679   2.270   4.262  -0.042
 3479WAT     H210680   2.291   4.243   0.119
 3480WAT      O10681   3.689   1.995   6.440
 3480WAT     H110682   3.783   2.021   6.418
 3480WAT     H210683   3.654   1.933   6.370
 3481WAT      O10684   0.512   9.579   3.734
 3481WAT     H110685   0.455   9.592   3.653
 3481WAT     H210686   0.472   9.507   3.791
 3482WAT      O10687   4.743   1.814   5.820
 3482WAT     H110688   4.838   1.845   5.827
 3482WAT     H210689   4.730   1.733   5.876
 3483WAT      O10690   9.725   4.126   4.459
 3483WAT     H110691   9.690   4.076   4.538
 3483WAT     H210692   9.728   4.224   4.481
 3484WAT      O10693   2.815   1.846   5.806
 3484WAT     H110694   2.868   1.784   5.863
 3484WAT     H210695   2.870   1.875   5.728
 3485WAT      O10696   9.030   7.107   6.427
 3485WAT     H110697   8.937   7.098   6.392
 3485WAT     H210698   9.032   7.176   6.499
 3486WAT      O10699   6.063   7.807   9.106
 3486WAT     H110700   6.069   7.903   9.134
 3486WAT     H210701   6.153   7.776   9.074
 3487WAT      O10702   4.720   4.380   4.224
 3487WAT     H110703   4.774   4.360   4.306
 3487WAT     H210704   4.775   4.362   4.142
 3488WAT      O10705   1.026   6.131   7.168
 3488WAT     H110706   1.026   6.035   7.142
 3488WAT     H210707   1.026   6.139   7.268
 3489WAT      O10708   8.675   3.858   0.522
 3489WAT     H110709   8.608   3.861   0.448
 3489WAT     H210710   8.639   3.800   0.596
 3490WAT      O10711   0.116   6.457   5.598
 3490WAT     H110712   0.109   6.551   5.633
 3490WAT     H210713   0.116   6.393   5.675
 3491WAT      O10714   8.330   8.373   7.314
 3491WAT     H110715   8.273   8.394   7.394
 3491WAT     H210716   8.291   8.418   7.233
 3492WAT      O10717   4.036   7.953   9.015
 3492WAT     H110718   4.074   7.860   9.020
 3492WAT     H210719   3.975   7.960   8.936
 3493WAT      O10720   3.163   5.151   9.672
 3493WAT     H110721   3.100   5.098   9.615
 3493WAT     H210722   3.221   5.088   9.724
 3494WAT      O10723   8.603   7.262   4.345
 3494WAT     H110724   8.612   7.362   4.345
 3494WAT     H210725   8.555   7.234   4.428
 3495WAT      O10726   0.852   6.187   2.008
 3495WAT     H110727   0.799   6.235   2.079
 3495WAT     H210728   0.890   6.254   1.944
 3496WAT      O10729   0.761   0.516   6.199
 3496WAT     H110730   0.735   0.453   6.126
 3496WAT     H210731   0.737   0.610   6.172
 3497WAT      O10732   1.597   4.207   6.969
 3497WAT     H110733   1.575   4.297   7.005
 3497WAT     H210734   1.516   4.148   6.973
 3498WAT      O10735   2.746   1.237   9.850
 3498WAT     H110736   2.735   1.325   9.897
 3498WAT     H210737   2.802   1.251   9.768
 3499WAT      O10738   1.381   9.244   8.750
 3499WAT     H110739   1.349   9.235   8.844
 3499WAT     H210740   1.406   9.155   8.714
 3500WAT      O10741   4.673   3.506   1.732
 3500WAT     H110742   4.715   3.415   1.729
 3500WAT     H210743   4.670   3.538   1.827
 3501WAT      O10744   6.840   2.621   9.277
 3501WAT     H110745   6.914   2.687   9.264
 3501WAT     H210746   6.792   2.607   9.190
 3502WAT      O10747   6.776   9.637   2.795
 3502WAT     H110748   6.699   9.595   2.842
 3502WAT     H210749   6.754   9.650   2.698
 3503WAT      O10750   2.697   1.844   9.478
 3503WAT     H110751   2.645   1.929   9.480
 3503WAT     H210752   2.641   1.771   9.437
 3504WAT      O10753   4.157   9.282   3.768
 3504WAT     H110754   4.247   9.302   3.731
 3504WAT     H210755   4.148   9.325   3.858
 3505WAT      O10756   3.614   1.086   7.792
 3505WAT     H110757   3.703   1.096   7.837
 3505WAT     H210758   3.598   0.989   7.771
 3506WAT      O10759   7.963   1.018   1.986
 3506WAT     H110760   7.903   0.938   1.991
 3506WAT     H210761   7.914   1.098   2.022
 3507WAT      O10762   7.872   6.151   8.288
 3507WAT     H110763   7.816   6.075   8.321
 3507WAT     H210764   7.919   6.124   8.204
 3508WAT      O10765   7.500   0.331   6.880
 3508WAT     H110766   7.465   0.280   6.959
 3508WAT     H210767   7.513   0.268   6.803
 3509WAT      O10768   6.002   8.251   7.235
 3509WAT     H110769   6.033   8.332   7.285
 3509WAT     H210770   6.067   8.176   7.251
 3510WAT      O10771   0.927   2.822   8.473
 3510WAT     H110772   0.860   2.753   8.447
 3510WAT     H210773   0.901   2.863   8.560
 3511WAT      O10774   0.398   8.050   5.472
 3511WAT     H110775   0.495   8.028   5.467
 3511WAT     H210776   0.383   8.122   5.540
 3512WAT      O10777   2.174   3.152   6.165
 3512WAT     H110778   2.210   3.245   6.178
 3512WAT     H210779   2.075   3.153   6.178
 3513WAT      O10780   6.141   7.575   6.830
 3513WAT     H110781   6.224   7.625   6.805
 3513WAT     H210782   6.080   7.569   6.751
 3514WAT      O10783   5.656   4.730   0.822
 3514WAT     H110784   5.682   4.774   0.736
 3514WAT     H210785   5.640   4.633   0.807
 3515WAT      O10786   4.099   4.484   3.973
 3515WAT     H110787   4.072   4.394   3.940
 3515WAT     H210788   4.035   4.553   3.937
 3516WAT      O10789   2.891   2.826   8.784
 3516WAT     H110790   2.951   2.827   8.864
 3516WAT     H210791   2.836   2.743   8.784
 3517WAT      O10792   3.377   8.182   1.153
 3517WAT     H110793   3.318   8.257   1.123
 3517WAT     H210794   3.454   8.173   1.089
 3518WAT      O10795   6.315   2.853   4.075
 3518WAT     H110796   6.315   2.753   4.076
 3518WAT     H210797   6.280   2.887   4.162
 3519WAT      O10798   0.370   4.584   7.286
 3519WAT     H110799   0.374   4.510   7.354
 3519WAT     H210800   0.356   4.545   7.195
 3520WAT      O10801   9.784   6.711   1.423
 3520WAT     H110802   9.794   6.647   1.499
 3520WAT     H210803   9.801   6.664   1.336
 3521WAT      O10804   4.793   3.332   8.645
 3521WAT     H110805   4.714   3.306   8.701
 3521WAT     H210806   4.787   3.428   8.621
 3522WAT      O10807   0.546   8.631   0.231
 3522WAT     H110808   0.626   8.600   0.282
 3522WAT     H210809   0.553   8.600   0.137
 3523WAT      O10810   2.705   0.196   0.366
 3523WAT     H110811   2.636   0.161   0.428
 3523WAT     H210812   2.717   0.294   0.380
 3524WAT      O10813   3.546   7.119   4.499
 3524WAT     H110814   3.475   7.151   4.562
 3524WAT     H210815   3.608   7.194   4.477
 3525WAT      O10816   5.028   1.787   8.578
 3525WAT     H110817   5.114   1.754   8.618
 3525WAT     H210818   4.996   1.867   8.628
 3526WAT      O10819   3.114   1.231   8.226
 3526WAT     H110820   3.168   1.167   8.171
 3526WAT     H210821   3.054   1.284   8.166
 3527WAT      O10822   6.774   3.238   0.577
 3527WAT     H110823   6.798   3.257   0.672
 3527WAT     H210824   6.675   3.247   0.565
 3528WAT      O10825   9.121   4.221   0.669
 3528WAT     H110826   9.123   4.298   0.606
 3528WAT     H210827   9.196   4.229   0.735
 3529WAT      O10828   2.814   9.157   8.592
 3529WAT     H110829   2.724   9.137   8.630
 3529WAT     H210830   2.814   9.138   8.494
 3530WAT      O10831   7.833   1.575   4.642
 3530WAT     H110832   7.902   1.642   4.614
 3530WAT     H210833   7.758   1.622   4.688
 3531WAT      O10834   8.710   7.717   0.543
 3531WAT     H110835   8.807   7.695   0.557
 3531WAT     H210836   8.690   7.806   0.582
 3532WAT      O10837   0.322   2.134   0.479
 3532WAT     H110838   0.299   2.038   0.464
 3532WAT     H210839   0.416   2.141   0.512
 3533WAT      O10840   8.031   3.561   6.107
 3533WAT     H110841   8.052   3.557   6.010
 3533WAT     H210842   8.116   3.547   6.160
 3534WAT      O10843   3.859   0.585   2.849
 3534WAT     H110844   3.802   0.581   2.767
 3534WAT     H210845   3.908   0.499   2.861
 3535WAT      O10846   8.433   3.967   2.137
 3535WAT     H110847   8.515   4.020   2.115
 3535WAT     H210848   8.452   3.870   2.130
 3536WAT      O10849   4.837   6.414   7.871
 3536WAT     H110850   4.790   6.347   7.813
 3536WAT     H210851   4.803   6.506   7.850
 3537WAT      O10852   1.881   4.045   7.867
 3537WAT     H110853   1.941   4.097   7.807
 3537WAT     H210854   1.793   4.030   7.822
 3538WAT      O10855   5.767   8.809   3.237
 3538WAT     H110856   5.830   8.874   3.280
 3538WAT     H210857   5.714   8.856   3.166
 3539WAT      O10858   5.117   7.050   1.544
 3539WAT     H110859   5.181   6.975   1.560
 3539WAT     H210860   5.055   7.058   1.623
 3540WAT      O10861   4.795   6.937   4.499
 3540WAT     H110862   4.834   6.854   4.540
 3540WAT     H210863   4.715   6.966   4.551
 3541WAT      O10864   4.931   0.325   8.592
 3541WAT     H110865   5.024   0.359   8.584
 3541WAT     H210866   4.919   0.247   8.530
 3542WAT      O10867   3.758   6.441   7.605
 3542WAT     H110868   3.765   6.417   7.702
 3542WAT     H210869   3.769   6.359   7.549
 3543WAT      O10870   3.156   6.561   8.548
 3543WAT     H110871   3.206   6.596   8.627
 3543WAT     H210872   3.085   6.497   8.578
 3544WAT      O10873   4.153   8.544   0.209
 3544WAT     H110874   4.250   8.567   0.203
 3544WAT     H210875   4.139   8.449   0.182
 3545WAT      O10876   4.078   9.561   0.224
 3545WAT     H110877   4.012   9.632   0.249
 3545WAT     H210878   4.065   9.482   0.285
 3546WAT      O10879   0.931   3.244   6.730
 3546WAT     H110880   0.927   3.204   6.821
 3546WAT     H210881   0.969   3.336   6.735
 3547WAT      O10882   2.120   2.781   9.887
 3547WAT     H110883   2.190   2.762   9.956
 3547WAT     H210884   2.048   2.713   9.892
 3548WAT      O10885   2.800   7.093   2.851
 3548WAT     H110886   2.701   7.108   2.844
 3548WAT     H210887   2.838   7.154   2.921
 3549WAT      O10888   9.179   8.179   5.393
 3549WAT     H110889   9.246   8.131   5.450
 3549WAT     H210890   9.140   8.116   5.326
 3550WAT      O10891   4.137   8.545   8.633
 3550WAT     H110892   4.164   8.467   8.690
 3550WAT     H210893   4.042   8.533   8.603
 3551WAT      O10894   8.000   7.347   4.025
 3551WAT     H110895   7.925   7.283   4.041
 3551WAT     H210896   7.979   7.402   3.943
 3552WAT      O10897   8.896   9.773   3.365
 3552WAT     H110898   8.872   9.677   3.376
 3552WAT     H210899   8.939   9.787   3.275
 3553WAT      O10900   5.945   6.392   9.271
 3553WAT     H110901   6.021   6.402   9.207
 3553WAT     H210902   5.969   6.323   9.340
 3554WAT      O10903   7.267   3.446   2.018
 3554WAT     H110904   7.201   3.521   2.018
 3554WAT     H210905   7.356   3.480   2.049
 3555WAT      O10906   5.366   5.094   8.223
 3555WAT     H110907   5.323   5.006   8.240
 3555WAT     H210908   5.396   5.100   8.128
 3556WAT      O10909   0.350   5.167   7.060
 3556WAT     H110910   0.433   5.221   7.076
 3556WAT     H210911   0.376   5.072   7.041
 3557WAT      O10912   3.839   6.474   1.688
 3557WAT     H110913   3.864   6.378   1.691
 3557WAT     H210914   3.867   6.513   1.600
 3558WAT      O10915   7.747   3.211   7.726
 3558WAT     H110916   7.829   3.221   7.670
 3558WAT     H210917   7.707   3.120   7.712
 3559WAT      O10918   3.972   5.597   2.610
 3559WAT     H110919   4.040   5.667   2.631
 3559WAT     H210920   3.983   5.520   2.672
 3560WAT      O10921   0.167   6.018   9.451
 3560WAT     H110922   0.113   6.011   9.367
 3560WAT     H210923   0.250   5.963   9.442
 3561WAT      O10924   3.501   4.758   3.701
 3561WAT     H110925   3.555   4.676   3.720
 3561WAT     H210926   3.423   4.734   3.643
 3562WAT      O10927   7.896   2.470   0.022
 3562WAT     H110928   7.965   2.526  -0.024
 3562WAT     H210929   7.857   2.520   0.099
 3563WAT      O10930   2.910   6.192   0.684
 3563WAT     H110931   2.960   6.130   0.623
 3563WAT     H210932   2.972   6.224   0.756
 3564WAT      O10933   7.926   5.158   5.077
 3564WAT     H110934   7.897   5.145   4.982
 3564WAT     H210935   8.003   5.221   5.081
 3565WAT      O10936   7.714   0.446   1.963
 3565WAT     H110937   7.742   0.351   1.974
 3565WAT     H210938   7.667   0.477   2.045
 3566WAT      O10939   5.553   8.714   6.534
 3566WAT     H110940   5.528   8.685   6.441
 3566WAT     H210941   5.481   8.689   6.598
 3567WAT      O10942   2.556   3.101   6.110
 3567WAT     H110943   2.575   3.129   6.203
 3567WAT     H210944   2.642   3.080   6.062
 3568WAT      O10945   1.909   5.136   1.192
 3568WAT     H110946   1.971   5.063   1.164
 3568WAT     H210947   1.922   5.215   1.133
 3569WAT      O10948   6.108   5.267   9.264
 3569WAT     H110949   6.048   5.251   9.341
 3569WAT     H210950   6.055   5.298   9.185
 3570WAT      O10951   5.779   2.048   9.099
 3570WAT     H110952   5.700   2.070   9.041
 3570WAT     H210953   5.770   2.095   9.187
 3571WAT      O10954   9.102   7.402   5.677
 3571WAT     H110955   9.049   7.477   5.717
 3571WAT     H210956   9.168   7.439   5.612
 3572WAT      O10957   7.730   1.691   7.716
 3572WAT     H110958   7.668   1.686   7.794
 3572WAT     H210959   7.698   1.761   7.653
 3573WAT      O10960   7.357   1.638   3.259
 3573WAT     H110961   7.435   1.580   3.280
 3573WAT     H210962   7.285   1.583   3.215
 3574WAT      O10963   3.353   0.189   7.096
 3574WAT     H110964   3.358   0.282   7.132
 3574WAT     H210965   3.302   0.131   7.160
 3575WAT      O10966   5.679   0.769   0.622
 3575WAT     H110967   5.651   0.701   0.554
 3575WAT     H210968   5.751   0.826   0.584
 3576WAT      O10969   2.382   0.766   6.504
 3576WAT     H110970   2.306   0.768   6.569
 3576WAT     H210971   2.464   0.804   6.547
 3577WAT      O10972   6.117   4.979   7.046
 3577WAT     H110973   6.063   4.984   6.963
 3577WAT     H210974   6.066   4.928   7.116
 3578WAT      O10975   8.244   3.450   6.667
 3578WAT     H110976   8.313   3.466   6.737
 3578WAT     H210977   8.154   3.471   6.704
 3579WAT      O10978   4.304   6.726   9.162
 3579WAT     H110979   4.360   6.791   9.213
 3579WAT     H210980   4.299   6.640   9.212
 3580WAT      O10981   9.455   4.778   1.219
 3580WAT     H110982   9.551   4.776   1.247
 3580WAT     H210983   9.440   4.857   1.159
 3581WAT      O10984   3.044   0.559   3.587
 3581WAT     H110985   3.060   0.602   3.498
 3581WAT     H210986   3.074   0.620   3.659
 3582WAT      O10987   2.775   3.882   1.612
 3582WAT     H110988   2.707   3.915   1.678
 3582WAT     H210989   2.852   3.946   1.608
 3583WAT      O10990   6.270   4.690   1.843
 3583WAT     H110991   6.231   4.605   1.807
 3583WAT     H210992   6.240   4.766   1.785
 3584WAT      O10993   1.639   9.783   3.252
 3584WAT     H110994   1.662   9.878   3.273
 3584WAT     H210995   1.594   9.779   3.162
 3585WAT      O10996   3.034   3.650   6.991
 3585WAT     H110997   2.986   3.733   7.018
 3585WAT     H210998   3.131   3.669   6.980
 3586WAT      O10999   0.250   1.677   8.774
 3586WAT     H111000   0.291   1.768   8.781
 3586WAT     H211001   0.161   1.677   8.820
 3587WAT      O11002   5.521   5.753   4.926
 3587WAT     H111003   5.614   5.747   4.891
 3587WAT     H211004   5.458   5.771   4.850
 3588WAT      O11005   5.429   5.674   7.581
 3588WAT     H111006   5.470   5.652   7.492
 3588WAT     H211007   5.502   5.686   7.648
 3589WAT      O11008   7.426   7.166   1.696
 3589WAT     H111009   7.381   7.229   1.759
 3589WAT     H211010   7.376   7.079   1.694
 3590WAT      O11011   2.867   1.572   8.745
 3590WAT     H111012   2.872   1.641   8.673
 3590WAT     H211013   2.864   1.481   8.704
 3591WAT      O11014   4.567   4.251   1.021
 3591WAT     H111015   4.502   4.327   1.029
 3591WAT     H211016   4.657   4.281   1.051
 3592WAT      O11017   7.999   9.183   4.217
 3592WAT     H111018   7.923   9.124   4.186
 3592WAT     H211019   8.009   9.260   4.154
 3593WAT      O11020   0.993   0.752   0.588
 3593WAT     H111021   1.002   0.824   0.519
 3593WAT     H211022   1.053   0.773   0.666
 3594WAT      O11023   8.344   9.560   0.472
 3594WAT     H111024   8.307   9.517   0.554
 3594WAT     H211025   8.293   9.530   0.391
 3595WAT      O11026   0.493   1.891   2.972
 3595WAT     H111027   0.593   1.886   2.965
 3595WAT     H211028   0.452   1.885   2.882
 3596WAT      O11029   1.297   8.323   8.647
 3596WAT     H111030   1.264   8.409   8.686
 3596WAT     H211031   1.392   8.333   8.619
 3597WAT      O11032   8.476   4.420   2.348
 3597WAT     H111033   8.412   4.403   2.423
 3597WAT     H211034   8.526   4.505   2.366
 3598WAT      O11035   6.120   7.916   7.830
 3598WAT     H111036   6.150   7.832   7.875
 3598WAT     H211037   6.187   7.989   7.847
 3599WAT      O11038   0.396   6.812   8.620
 3599WAT     H111039   0.301   6.844   8.614
 3599WAT     H211040   0.398   6.714   8.635
 3600WAT      O11041   2.887   8.491   1.936
 3600WAT     H111042   2.809   8.476   1.997
 3600WAT     H211043   2.959   8.540   1.986
 3601WAT      O11044   2.983   9.439   2.848
 3601WAT     H111045   2.976   9.409   2.752
 3601WAT     H211046   2.951   9.533   2.856
 3602WAT      O11047   0.509   4.830   6.661
 3602WAT     H111048   0.606   4.822   6.683
 3602WAT     H211049   0.497   4.818   6.562
 3603WAT      O11050   8.586   6.106   4.737
 3603WAT     H111051   8.674   6.060   4.720
 3603WAT     H211052   8.540   6.061   4.814
 3604WAT      O11053   9.610   4.864   5.242
 3604WAT     H111054   9.597   4.840   5.146
 3604WAT     H211055   9.594   4.962   5.254
 3605WAT      O11056   0.116   4.449   1.497
 3605WAT     H111057   0.215   4.437   1.497
 3605WAT     H211058   0.083   4.460   1.403
 3606WAT      O11059   5.680   1.992   2.748
 3606WAT     H111060   5.761   2.018   2.801
 3606WAT     H211061   5.708   1.969   2.655
 3607WAT      O11062   5.616   5.781   0.893
 3607WAT     H111063   5.630   5.799   0.991
 3607WAT     H211064   5.699   5.741   0.854
 3608WAT      O11065   2.492   1.544   1.224
 3608WAT     H111066   2.562   1.570   1.158
 3608WAT     H211067   2.535   1.519   1.310
 3609WAT      O11068   7.907   6.651   4.735
 3609WAT     H111069   7.999   6.617   4.717
 3609WAT     H211070   7.845   6.618   4.663
 3610WAT      O11071   2.662   8.454   2.088
 3610WAT     H111072   2.636   8.410   2.174
 3610WAT     H211073   2.590   8.518   2.060
 3611WAT      O11074   4.029   6.390   7.558
 3611WAT     H111075   4.093   6.456   7.598
 3611WAT     H211076   3.936   6.423   7.569
 3612WAT      O11077   1.694   2.656   0.076
 3612WAT     H111078   1.665   2.752   0.079
 3612WAT     H211079   1.614   2.598   0.060
 3613WAT      O11080   7.958   9.362   8.460
 3613WAT     H111081   7.895   9.294   8.498
 3613WAT     H211082   7.938   9.452   8.499
 3614WAT      O11083   7.148   3.053   6.378
 3614WAT     H111084   7.247   3.049   6.393
 3614WAT     H211085   7.102   3.078   6.463
 3615WAT      O11086   9.092   0.697   1.266
 3615WAT     H111087   9.012   0.643   1.241
 3615WAT     H211088   9.063   0.788   1.295
 3616WAT      O11089   7.091   6.147   4.028
 3616WAT     H111090   7.113   6.102   3.942
 3616WAT     H211091   7.129   6.093   4.104
 3617WAT      O11092   1.775   4.991   6.528
 3617WAT     H111093   1.849   4.926   6.511
 3617WAT     H211094   1.799   5.080   6.489
 3618WAT      O11095   6.954   7.930   4.722
 3618WAT     H111096   6.984   7.942   4.817
 3618WAT     H211097   6.927   8.018   4.684
 3619WAT      O11098   9.757   2.924   0.885
 3619WAT     H111099   9.664   2.962   0.892
 3619WAT     H211100   9.769   2.882   0.796
 3620WAT      O11101   8.654   4.092   8.125
 3620WAT     H111102   8.636   4.070   8.221
 3620WAT     H211103   8.617   4.020   8.067
 3621WAT      O11104   5.045   9.314   7.252
 3621WAT     H111105   5.038   9.262   7.167
 3621WAT     H211106   5.016   9.257   7.329
 3622WAT      O11107   6.908   2.118   7.499
 3622WAT     H111108   6.938   2.023   7.500
 3622WAT     H211109   6.854   2.137   7.581
 3623WAT      O11110   1.928   2.535   8.886
 3623WAT     H111111   2.010   2.523   8.830
 3623WAT     H211112   1.847   2.528   8.828
 3624WAT      O11113   4.602   8.597   0.634
 3624WAT     H111114   4.611   8.680   0.689
 3624WAT     H211115   4.517   8.601   0.581
 3625WAT      O11116   6.691   8.753   1.069
 3625WAT     H111117   6.683   8.810   0.987
 3625WAT     H211118   6.742   8.804   1.139
 3626WAT      O11119   4.181   9.159   9.861
 3626WAT     H111120   4.115   9.085   9.848
 3626WAT     H211121   4.195   9.208   9.775
 3627WAT      O11122   3.202   2.682   5.681
 3627WAT     H111123   3.176   2.710   5.774
 3627WAT     H211124   3.254   2.756   5.638
 3628WAT      O11125   8.943   9.560   6.437
 3628WAT     H111126   9.006   9.627   6.397
 3628WAT     H211127   8.849   9.587   6.416
 3629WAT      O11128   8.658   5.019   0.164
 3629WAT     H111129   8.593   4.944   0.164
 3629WAT     H211130   8.736   4.995   0.104
 3630WAT      O11131   8.580   4.042   5.054
 3630WAT     H111132   8.537   4.013   5.139
 3630WAT     H211133   8.659   3.983   5.035
 3631WAT      O11134   2.108   3.913   9.416
 3631WAT     H111135   2.201   3.925   9.451
 3631WAT     H211136   2.044   3.907   9.493
 3632WAT      O11137   1.227   9.028   8.143
 3632WAT     H111138   1.280   9.059   8.064
 3632WAT     H211139   1.216   8.929   8.139
 3633WAT      O11140   2.571   4.659   5.291
 3633WAT     H111141   2.582   4.707   5.204
 3633WAT     H211142   2.576   4.560   5.276
 3634WAT      O11143   7.022   7.118   6.403
 3634WAT     H111144   7.049   7.095   6.310
 3634WAT     H211145   6.923   7.110   6.412
 3635WAT      O11146   3.860   3.113   8.864
 3635WAT     H111147   3.946   3.148   8.826
 3635WAT     H211148   3.807   3.068   8.792
 3636WAT      O11149   5.100   8.607   5.923
 3636WAT     H111150   5.174   8.587   5.859
 3636WAT     H211151   5.014   8.570   5.888
 3637WAT      O11152   3.164   3.856   9.102
 3637WAT     H111153   3.252   3.808   9.113
 3637WAT     H211154   3.090   3.789   9.100
 3638WAT      O11155   6.428   7.661   5.240
 3638WAT     H111156   6.363   7.709   5.181
 3638WAT     H211157   6.382   7.632   5.324
 3639WAT      O11158   9.609   2.964   9.697
 3639WAT     H111159   9.534   2.998   9.639
 3639WAT     H211160   9.664   3.041   9.729
 3640WAT      O11161   0.738   4.049   1.303
 3640WAT     H111162   0.837   4.045   1.320
 3640WAT     H211163   0.693   4.096   1.379
 3641WAT      O11164   7.953   4.596   9.638
 3641WAT     H111165   7.866   4.581   9.591
 3641WAT     H211166   8.009   4.512   9.633
 3642WAT      O11167   9.132   1.680   2.706
 3642WAT     H111168   9.194   1.689   2.628
 3642WAT     H211169   9.101   1.585   2.713
 3643WAT      O11170   4.465   1.434   9.605
 3643WAT     H111171   4.451   1.532   9.619
 3643WAT     H211172   4.396   1.398   9.542
 3644WAT      O11173   6.954   5.033   4.098
 3644WAT     H111174   6.978   5.073   4.187
 3644WAT     H211175   6.967   5.101   4.026
 3645WAT      O11176   3.481   1.101   9.526
 3645WAT     H111177   3.503   1.057   9.612
 3645WAT     H211178   3.557   1.090   9.462
 3646WAT      O11179   0.106   9.061   8.805
 3646WAT     H111180   0.080   9.143   8.856
 3646WAT     H211181   0.082   8.979   8.858
 3647WAT      O11182   8.490   7.162   5.601
 3647WAT     H111183   8.528   7.107   5.527
 3647WAT     H211184   8.390   7.156   5.599
 3648WAT      O11185   4.497   0.557   5.747
 3648WAT     H111186   4.499   0.656   5.732
 3648WAT     H211187   4.543   0.511   5.671
 3649WAT      O11188   7.092   9.181   0.493
 3649WAT     H111189   7.083   9.226   0.582
 3649WAT     H211190   7.001   9.158   0.459
 3650WAT      O11191   3.965   7.491   4.319
 3650WAT     H111192   3.882   7.447   4.354
 3650WAT     H211193   4.023   7.519   4.396
 3651WAT      O11194   5.713   4.128   7.244
 3651WAT     H111195   5.638   4.141   7.308
 3651WAT     H211196   5.701   4.189   7.166
 3652WAT      O11197   8.575   4.818   8.412
 3652WAT     H111198   8.491   4.857   8.450
 3652WAT     H211199   8.636   4.892   8.384
 3653WAT      O11200   1.813   5.578   1.016
 3653WAT     H111201   1.787   5.610   1.107
 3653WAT     H211202   1.730   5.560   0.962
 3654WAT      O11203   6.310   5.990   7.520
 3654WAT     H111204   6.265   5.935   7.591
 3654WAT     H211205   6.317   6.085   7.551
 3655WAT      O11206   2.715   4.862   3.134
 3655WAT     H111207   2.760   4.875   3.222
 3655WAT     H211208   2.756   4.784   3.087
 3656WAT      O11209   8.880   0.761   7.263
 3656WAT     H111210   8.798   0.726   7.218
 3656WAT     H211211   8.932   0.685   7.303
 3657WAT      O11212   6.351   3.452   9.646
 3657WAT     H111213   6.300   3.493   9.571
 3657WAT     H211214   6.406   3.523   9.691
 3658WAT      O11215   6.004   6.778   9.792
 3658WAT     H111216   6.063   6.794   9.871
 3658WAT     H211217   5.922   6.728   9.823
 3659WAT      O11218   3.496   4.590   3.249
 3659WAT     H111219   3.580   4.596   3.302
 3659WAT     H211220   3.494   4.505   3.197
 3660WAT      O11221   3.506   4.235   4.852
 3660WAT     H111222   3.478   4.279   4.937
 3660WAT     H211223   3.606   4.235   4.845
 3661WAT      O11224   9.253   7.062   1.905
 3661WAT     H111225   9.343   7.103   1.891
 3661WAT     H211226   9.198   7.122   1.963
 3662WAT      O11227   6.551   8.731   4.542
 3662WAT     H111228   6.552   8.721   4.641
 3662WAT     H211229   6.625   8.677   4.502
 3663WAT      O11230   7.709   2.067   5.688
 3663WAT     H111231   7.649   2.065   5.608
 3663WAT     H211232   7.762   1.983   5.693
 3664WAT      O11233   9.709   4.044   9.492
 3664WAT     H111234   9.703   3.954   9.449
 3664WAT     H211235   9.692   4.115   9.424
 3665WAT      O11236   7.574   5.681   2.689
 3665WAT     H111237   7.602   5.595   2.733
 3665WAT     H211238   7.606   5.758   2.744
 3666WAT      O11239   6.990   3.632   5.772
 3666WAT     H111240   6.932   3.667   5.845
 3666WAT     H211241   7.086   3.640   5.799
 3667WAT      O11242   4.133   8.095   9.856
 3667WAT     H111243   4.200   8.047   9.799
 3667WAT     H211244   4.044   8.050   9.847
 3668WAT      O11245   9.749   6.475   5.036
 3668WAT     H111246   9.757   6.407   5.108
 3668WAT     H211247   9.776   6.435   4.948
 3669WAT      O11248   3.268   1.698   2.251
 3669WAT     H111249   3.250   1.761   2.175
 3669WAT     H211250   3.189   1.638   2.263
 3670WAT      O11251   7.853   4.965   4.325
 3670WAT     H111252   7.879   5.044   4.270
 3670WAT     H211253   7.760   4.937   4.302
 3671WAT      O11254   8.529   4.839   5.254
 3671WAT     H111255   8.443   4.848   5.204
 3671WAT     H211256   8.592   4.912   5.227
 3672WAT      O11257   3.352   3.185   3.760
 3672WAT     H111258   3.300   3.255   3.711
 3672WAT     H211259   3.412   3.229   3.827
 3673WAT      O11260   6.988   9.097   1.115
 3673WAT     H111261   6.941   9.158   1.052
 3673WAT     H211262   7.026   9.149   1.192
 3674WAT      O11263   8.868   5.523   5.882
 3674WAT     H111264   8.957   5.538   5.840
 3674WAT     H211265   8.857   5.426   5.904
 3675WAT      O11266   1.689   3.712   4.361
 3675WAT     H111267   1.640   3.684   4.443
 3675WAT     H211268   1.707   3.811   4.365
 3676WAT      O11269   9.777   8.127   9.663
 3676WAT     H111270   9.834   8.072   9.724
 3676WAT     H211271   9.826   8.144   9.578
 3677WAT      O11272   9.363   3.932   5.085
 3677WAT     H111273   9.283   3.986   5.113
 3677WAT     H211274   9.334   3.860   5.022
 3678WAT      O11275   0.701   0.891   1.758
 3678WAT     H111276   0.752   0.887   1.672
 3678WAT     H211277   0.605   0.911   1.740
 3679WAT      O11278   4.258   0.540   8.612
 3679WAT     H111279   4.286   0.523   8.517
 3679WAT     H211280   4.166   0.505   8.627
 3680WAT      O11281   9.130   1.572   3.844
 3680WAT     H111282   9.200   1.552   3.775
 3680WAT     H211283   9.045   1.600   3.799
 3681WAT      O11284   9.726   6.573   2.247
 3681WAT     H111285   9.650   6.637   2.264
 3681WAT     H211286   9.782   6.566   2.329
 3682WAT      O11287   6.685   1.862   3.520
 3682WAT     H111288   6.603   1.921   3.520
 3682WAT     H211289   6.658   1.767   3.503
 3683WAT      O11290   4.474   8.647   4.597
 3683WAT     H111291   4.574   8.642   4.591
 3683WAT     H211292   4.440   8.567   4.647
 3684WAT      O11293   2.683   6.739   2.151
 3684WAT     H111294   2.672   6.716   2.247
 3684WAT     H211295   2.609   6.801   2.123
 3685WAT      O11296   0.588   3.610   8.690
 3685WAT     H111297   0.551   3.623   8.598
 3685WAT     H211298   0.572   3.516   8.719
 3686WAT      O11299   4.917   4.396   6.008
 3686WAT     H111300   4.871   4.337   5.941
 3686WAT     H211301   4.992   4.444   5.964
 3687WAT      O11302   8.912   0.585   4.523
 3687WAT     H111303   9.003   0.544   4.527
 3687WAT     H211304   8.910   0.668   4.579
 3688WAT      O11305   9.184   4.588   5.276
 3688WAT     H111306   9.259   4.532   5.312
 3688WAT     H211307   9.200   4.684   5.299
 3689WAT      O11308   5.135   0.928   2.879
 3689WAT     H111309   5.092   0.838   2.881
 3689WAT     H211310   5.083   0.991   2.936
 3690WAT      O11311   7.474   2.985   1.640
 3690WAT     H111312   7.498   2.941   1.726
 3690WAT     H211313   7.482   2.919   1.565
 3691WAT      O11314   8.838   8.909   8.718
 3691WAT     H111315   8.831   8.979   8.647
 3691WAT     H211316   8.926   8.917   8.764
 3692WAT      O11317   3.939   5.430   0.701
 3692WAT     H111318   4.026   5.462   0.664
 3692WAT     H211319   3.950   5.340   0.741
 3693WAT      O11320   0.359   1.072   4.542
 3693WAT     H111321   0.351   0.984   4.589
 3693WAT     H211322   0.279   1.128   4.563
 3694WAT      O11323   1.444   1.093   5.455
 3694WAT     H111324   1.479   1.019   5.512
 3694WAT     H211325   1.345   1.099   5.466
 3695WAT      O11326   3.929   0.345   6.874
 3695WAT     H111327   3.944   0.409   6.799
 3695WAT     H211328   3.834   0.351   6.904
 3696WAT      O11329   9.191   0.112   8.899
 3696WAT     H111330   9.235   0.189   8.854
 3696WAT     H211331   9.154   0.049   8.830
 3697WAT      O11332   8.642   7.810   8.625
 3697WAT     H111333   8.651   7.903   8.591
 3697WAT     H211334   8.556   7.801   8.675
 3698WAT      O11335   4.296   0.289   1.410
 3698WAT     H111336   4.316   0.268   1.314
 3698WAT     H211337   4.264   0.383   1.418
 3699WAT      O11338   3.723   7.699   2.051
 3699WAT     H111339   3.748   7.754   2.130
 3699WAT     H211340   3.656   7.630   2.078
 3700WAT      O11341   7.805   6.890   4.848
 3700WAT     H111342   7.826   6.794   4.830
 3700WAT     H211343   7.799   6.905   4.947
 3701WAT      O11344   4.799   1.958   6.136
 3701WAT     H111345   4.875   1.936   6.075
 3701WAT     H211346   4.742   2.029   6.093
 3702WAT      O11347   8.191   1.817   2.475
 3702WAT     H111348   8.098   1.826   2.439
 3702WAT     H211349   8.208   1.722   2.498
 3703WAT      O11350   8.150   8.888   8.687
 3703WAT     H111351   8.146   8.818   8.757
 3703WAT     H211352   8.218   8.863   8.618
 3704WAT      O11353   7.027   2.810   3.771
 3704WAT     H111354   6.950   2.867   3.800
 3704WAT     H211355   7.009   2.714   3.793
 3705WAT      O11356   9.377   1.062   9.058
 3705WAT     H111357   9.316   1.119   9.112
 3705WAT     H211358   9.435   1.120   9.001
 3706WAT      O11359   7.653   2.840   9.484
 3706WAT     H111360   7.656   2.835   9.584
 3706WAT     H211361   7.744   2.820   9.448
 3707WAT      O11362   7.872   3.511   1.721
 3707WAT     H111363   7.862   3.469   1.631
 3707WAT     H211364   7.961   3.556   1.729
 3708WAT      O11365   0.576   9.829   2.819
 3708WAT     H111366   0.542   9.738   2.842
 3708WAT     H211367   0.561   9.846   2.722
 3709WAT      O11368   0.021   0.942   9.754
 3709WAT     H111369  -0.050   0.977   9.815
 3709WAT     H211370   0.077   0.875   9.803
 3710WAT      O11371   8.933   8.363   2.503
 3710WAT     H111372   9.021   8.408   2.518
 3710WAT     H211373   8.935   8.313   2.417
 3711WAT      O11374   8.744   0.855   4.422
 3711WAT     H111375   8.706   0.775   4.376
 3711WAT     H211376   8.723   0.851   4.519
 3712WAT      O11377   9.058   8.141   7.382
 3712WAT     H111378   8.998   8.133   7.462
 3712WAT     H211379   9.082   8.237   7.368
 3713WAT      O11380   9.293   0.434   3.370
 3713WAT     H111381   9.325   0.369   3.302
 3713WAT     H211382   9.250   0.385   3.446
 3714WAT      O11383   9.592   4.366   6.451
 3714WAT     H111384   9.586   4.372   6.551
 3714WAT     H211385   9.676   4.410   6.420
 3715WAT      O11386   9.405   5.799   0.292
 3715WAT     H111387   9.320   5.851   0.298
 3715WAT     H211388   9.473   5.851   0.240
 3716WAT      O11389   1.002   7.236   1.032
 3716WAT     H111390   0.916   7.262   1.076
 3716WAT     H211391   0.982   7.173   0.956
 3717WAT      O11392   3.525   3.654   3.347
 3717WAT     H111393   3.551   3.741   3.390
 3717WAT     H211394   3.543   3.659   3.249
 3718WAT      O11395   8.151   0.978   9.845
 3718WAT     H111396   8.205   0.909   9.894
 3718WAT     H211397   8.103   0.934   9.769
 3719WAT      O11398   8.878   7.698   8.509
 3719WAT     H111399   8.827   7.718   8.593
 3719WAT     H211400   8.945   7.770   8.494
 3720WAT      O11401   1.922   1.346   4.167
 3720WAT     H111402   1.843   1.361   4.108
 3720WAT     H211403   1.899   1.373   4.261
 3721WAT      O11404   5.150   5.612   7.566
 3721WAT     H111405   5.225   5.679   7.572
 3721WAT     H211406   5.078   5.648   7.508
 3722WAT      O11407   5.951   2.893   2.212
 3722WAT     H111408   5.982   2.902   2.117
 3722WAT     H211409   5.904   2.977   2.240
 3723WAT      O11410   7.995   5.143   4.138
 3723WAT     H111411   7.956   5.226   4.179
 3723WAT     H211412   7.951   5.126   4.050
 3724WAT      O11413   0.387   6.329   7.507
 3724WAT     H111414   0.358   6.414   7.551
 3724WAT     H211415   0.309   6.267   7.501
 3725WAT      O11416   0.582   0.982   3.622
 3725WAT     H111417   0.542   1.074   3.620
 3725WAT     H211418   0.515   0.916   3.589
 3726WAT      O11419   3.046   1.550   9.004
 3726WAT     H111420   3.058   1.460   9.047
 3726WAT     H211421   2.959   1.551   8.954
 3727WAT      O11422   1.929   7.898   2.866
 3727WAT     H111423   1.890   7.811   2.894
 3727WAT     H211424   1.915   7.966   2.938
 3728WAT      O11425   3.220   4.520   3.113
 3728WAT     H111426   3.166   4.602   3.097
 3728WAT     H211427   3.187   4.473   3.195
 3729WAT      O11428   8.972   4.740   1.754
 3729WAT     H111429   8.906   4.811   1.730
 3729WAT     H211430   9.011   4.759   1.844
 3730WAT      O11431   9.301   1.972   7.405
 3730WAT     H111432   9.228   2.036   7.428
 3730WAT     H211433   9.262   1.880   7.393
 3731WAT      O11434   2.842   1.029   2.978
 3731WAT     H111435   2.756   0.980   2.964
 3731WAT     H211436   2.831   1.125   2.951
 3732WAT      O11437   4.685   0.836   4.225
 3732WAT     H111438   4.607   0.878   4.180
 3732WAT     H211439   4.756   0.817   4.157
 3733WAT      O11440   1.549   2.313   2.372
 3733WAT     H111441   1.498   2.330   2.456
 3733WAT     H211442   1.645   2.339   2.386
 3734WAT      O11443   7.279   8.791   0.814
 3734WAT     H111444   7.248   8.853   0.886
 3734WAT     H211445   7.358   8.831   0.768
 3735WAT      O11446   2.683   6.412   7.520
 3735WAT     H111447   2.609   6.396   7.585
 3735WAT     H211448   2.690   6.334   7.458
 3736WAT      O11449   7.913   7.461   9.230
 3736WAT     H111450   7.923   7.433   9.325
 3736WAT     H211451   7.883   7.384   9.175
 3737WAT      O11452   4.661   5.054   0.006
 3737WAT     H111453   4.706   5.116  -0.059
 3737WAT     H211454   4.698   5.069   0.097
 3738WAT      O11455   5.771   6.543   0.184
 3738WAT     H111456   5.868   6.566   0.176
 3738WAT     H211457   5.757   6.485   0.265
 3739WAT      O11458   7.149   2.796   2.270
 3739WAT     H111459   7.247   2.785   2.253
 3739WAT     H211460   7.130   2.891   2.298
 3740WAT      O11461   4.113   5.491   9.813
 3740WAT     H111462   4.031   5.442   9.842
 3740WAT     H211463   4.162   5.437   9.744
 3741WAT      O11464   7.559   0.074   8.041
 3741WAT     H111465   7.585   0.096   8.135
 3741WAT     H211466   7.637   0.035   7.992
 3742WAT      O11467   1.792   9.216   7.446
 3742WAT     H111468   1.829   9.234   7.355
 3742WAT     H211469   1.787   9.117   7.461
 3743WAT      O11470   2.723   5.032   6.690
 3743WAT     H111471   2.641   5.027   6.632
 3743WAT     H211472   2.782   5.107   6.658
 3744WAT      O11473   6.584   9.626   4.756
 3744WAT     H111474   6.615   9.714   4.722
 3744WAT     H211475   6.651   9.555   4.731
 3745WAT      O11476   3.558   5.098   7.229
 3745WAT     H111477   3.508   5.172   7.274
 3745WAT     H211478   3.492   5.033   7.190
 3746WAT      O11479   6.437   7.748   6.249
 3746WAT     H111480   6.459   7.676   6.315
 3746WAT     H211481   6.457   7.715   6.157
 3747WAT      O11482   6.979   1.471   8.091
 3747WAT     H111483   6.957   1.430   8.180
 3747WAT     H211484   6.898   1.519   8.056
 3748WAT      O11485   8.699   8.371   8.024
 3748WAT     H111486   8.623   8.436   8.023
 3748WAT     H211487   8.679   8.298   8.090
 3749WAT      O11488   0.617   0.341   6.979
 3749WAT     H111489   0.533   0.287   6.983
 3749WAT     H211490   0.651   0.358   7.072
 3750WAT      O11491   3.845   6.954   9.298
 3750WAT     H111492   3.931   6.923   9.258
 3750WAT     H211493   3.844   6.934   9.396
 3751WAT      O11494   0.254   0.366   6.553
 3751WAT     H111495   0.247   0.461   6.523
 3751WAT     H211496   0.280   0.308   6.475
 3752WAT      O11497   9.348   5.550   5.576
 3752WAT     H111498   9.321   5.606   5.497
 3752WAT     H211499   9.330   5.454   5.556
 3753WAT      O11500   9.162   9.143   0.054
 3753WAT     H111501   9.169   9.177  -0.039
 3753WAT     H211502   9.128   9.049   0.053
 3754WAT      O11503   1.291   3.557   6.712
 3754WAT     H111504   1.309   3.502   6.630
 3754WAT     H211505   1.375   3.606   6.737
 3755WAT      O11506   9.041   0.930   2.181
 3755WAT     H111507   8.953   0.882   2.173
 3755WAT     H211508   9.051   0.993   2.104
 3756WAT      O11509   5.231   9.673   5.965
 3756WAT     H111510   5.248   9.678   5.867
 3756WAT     H211511   5.162   9.741   5.990
 3757WAT      O11512   0.142   9.681   7.330
 3757WAT     H111513   0.139   9.659   7.428
 3757WAT     H211514   0.081   9.619   7.280
 3758WAT      O11515   9.699   3.823   7.219
 3758WAT     H111516   9.736   3.883   7.149
 3758WAT     H211517   9.665   3.739   7.177
 3759WAT      O11518   9.243   7.616   8.761
 3759WAT     H111519   9.265   7.597   8.665
 3759WAT     H211520   9.152   7.657   8.765
 3760WAT      O11521   9.537   7.048   4.277
 3760WAT     H111522   9.604   6.993   4.327
 3760WAT     H211523   9.583   7.093   4.200
 3761WAT      O11524   1.186   0.379   4.058
 3761WAT     H111525   1.119   0.453   4.060
 3761WAT     H211526   1.166   0.319   3.980
 3762WAT      O11527   1.628   5.819   6.144
 3762WAT     H111528   1.690   5.840   6.069
 3762WAT     H211529   1.546   5.774   6.109
 3763WAT      O11530   3.624   2.502   4.527
 3763WAT     H111531   3.671   2.451   4.599
 3763WAT     H211532   3.605   2.441   4.450
 3764WAT      O11533   6.978   7.250   8.855
 3764WAT     H111534   6.946   7.194   8.931
 3764WAT     H211535   7.078   7.253   8.855
 3765WAT      O11536   8.524   1.930   1.824
 3765WAT     H111537   8.600   1.923   1.759
 3765WAT     H211538   8.472   1.845   1.825
 3766WAT      O11539   0.894   2.947   8.737
 3766WAT     H111540   0.909   2.924   8.833
 3766WAT     H211541   0.965   3.009   8.707
 3767WAT      O11542   7.866   0.253   7.417
 3767WAT     H111543   7.928   0.327   7.391
 3767WAT     H211544   7.860   0.248   7.517
 3768WAT      O11545   8.644   3.588   1.206
 3768WAT     H111546   8.653   3.569   1.108
 3768WAT     H211547   8.557   3.633   1.223
 3769WAT      O11548   5.195   9.489   9.429
 3769WAT     H111549   5.159   9.518   9.518
 3769WAT     H211550   5.121   9.490   9.361
 3770WAT      O11551   2.875   6.721   5.982
 3770WAT     H111552   2.898   6.624   5.973
 3770WAT     H211553   2.890   6.767   5.894
 3771WAT      O11554   2.598   0.357   9.548
 3771WAT     H111555   2.510   0.366   9.594
 3771WAT     H211556   2.669   0.334   9.615
 3772WAT      O11557   6.760   1.580   8.454
 3772WAT     H111558   6.762   1.659   8.394
 3772WAT     H211559   6.673   1.577   8.503
 3773WAT      O11560   8.554   3.226   7.232
 3773WAT     H111561   8.594   3.317   7.217
 3773WAT     H211562   8.538   3.182   7.144
 3774WAT      O11563   3.666   6.980   8.595
 3774WAT     H111564   3.701   6.955   8.685
 3774WAT     H211565   3.663   7.080   8.587
 3775WAT      O11566   9.375   5.736   9.605
 3775WAT     H111567   9.294   5.678   9.597
 3775WAT     H211568   9.423   5.738   9.518
 3776WAT      O11569   5.019   8.859   1.575
 3776WAT     H111570   5.039   8.761   1.581
 3776WAT     H211571   5.014   8.898   1.666
 3777WAT      O11572   0.526   6.533   0.737
 3777WAT     H111573   0.561   6.449   0.696
 3777WAT     H211574   0.602   6.592   0.763
 3778WAT      O11575   5.045   7.765   3.262
 3778WAT     H111576   5.054   7.799   3.168
 3778WAT     H211577   5.099   7.822   3.324
 3779WAT      O11578   6.444   7.747   2.119
 3779WAT     H111579   6.485   7.761   2.028
 3779WAT     H211580   6.470   7.657   2.153
 3780WAT      O11581   0.374   7.705   9.332
 3780WAT     H111582   0.306   7.704   9.405
 3780WAT     H211583   0.465   7.713   9.372
 3781WAT      O11584   9.389   8.442   7.309
 3781WAT     H111585   9.382   8.541   7.297
 3781WAT     H211586   9.483   8.412   7.292
 3782WAT      O11587   7.349   0.193   4.280
 3782WAT     H111588   7.314   0.238   4.198
 3782WAT     H211589   7.401   0.111   4.254
 3783WAT      O11590   9.320   6.855   5.332
 3783WAT     H111591   9.227   6.858   5.368
 3783WAT     H211592   9.329   6.918   5.255
 3784WAT      O11593   1.390   5.801   5.797
 3784WAT     H111594   1.386   5.708   5.835
 3784WAT     H211595   1.484   5.824   5.773
 3785WAT      O11596   9.880   4.952   6.033
 3785WAT     H111597   9.807   4.937   5.965
 3785WAT     H211598   9.870   4.885   6.106
 3786WAT      O11599   5.180   3.150   3.016
 3786WAT     H111600   5.108   3.173   3.082
 3786WAT     H211601   5.269   3.180   3.051
 3787WAT      O11602   0.954   4.163   6.251
 3787WAT     H111603   0.883   4.110   6.205
 3787WAT     H211604   1.035   4.105   6.264
 3788WAT      O11605   4.024   6.428   9.654
 3788WAT     H111606   4.027   6.434   9.554
 3788WAT     H211607   3.934   6.396   9.683
 3789WAT      O11608   8.872   2.872   2.446
 3789WAT     H111609   8.821   2.919   2.374
 3789WAT     H211610   8.949   2.824   2.406
 3790WAT      O11611   8.149   3.133   7.326
 3790WAT     H111612   8.217   3.086   7.382
 3790WAT     H211613   8.060   3.130   7.373
 3791WAT      O11614   6.629   6.321   8.605
 3791WAT     H111615   6.577   6.398   8.569
 3791WAT     H211616   6.566   6.254   8.645
 3792WAT      O11617   2.828   8.202   2.733
 3792WAT     H111618   2.784   8.116   2.706
 3792WAT     H211619   2.927   8.195   2.717
 3793WAT      O11620   8.859   9.639   9.756
 3793WAT     H111621   8.773   9.673   9.793
 3793WAT     H211622   8.845   9.546   9.721
 3794WAT      O11623   9.723   1.147   2.035
 3794WAT     H111624   9.777   1.070   2.069
 3794WAT     H211625   9.722   1.220   2.103
 3795WAT      O11626   7.003   2.529   0.473
 3795WAT     H111627   6.933   2.458   0.463
 3795WAT     H211628   7.041   2.551   0.383
 3796WAT      O11629   2.460   4.606   9.294
 3796WAT     H111630   2.477   4.527   9.352
 3796WAT     H211631   2.547   4.642   9.261
 3797WAT      O11632   0.239   8.311   8.986
 3797WAT     H111633   0.312   8.323   9.053
 3797WAT     H211634   0.218   8.214   8.976
 3798WAT      O11635   0.487   1.779   4.878
 3798WAT     H111636   0.432   1.862   4.886
 3798WAT     H211637   0.569   1.788   4.935
 3799WAT      O11638   8.048   5.308   1.061
 3799WAT     H111639   7.991   5.298   1.142
 3799WAT     H211640   8.128   5.249   1.069
 3800WAT      O11641   5.136   3.967   2.109
 3800WAT     H111642   5.181   4.030   2.173
 3800WAT     H211643   5.146   4.001   2.016
 3801WAT      O11644   6.171   4.830   9.761
 3801WAT     H111645   6.196   4.774   9.682
 3801WAT     H211646   6.249   4.885   9.789
 3802WAT      O11647   8.496   3.126   4.619
 3802WAT     H111648   8.510   3.160   4.526
 3802WAT     H211649   8.563   3.166   4.681
 3803WAT      O11650   5.257   3.763   8.455
 3803WAT     H111651   5.233   3.857   8.432
 3803WAT     H211652   5.328   3.730   8.393
 3804WAT      O11653   8.957   0.224   1.075
 3804WAT     H111654   8.896   0.226   1.154
 3804WAT     H211655   8.997   0.132   1.066
 3805WAT      O11656   3.814   8.865   6.697
 3805WAT     H111657   3.723   8.851   6.736
 3805WAT     H211658   3.833   8.794   6.630
 3806WAT      O11659   2.000   9.413   0.870
 3806WAT     H111660   2.030   9.414   0.966
 3806WAT     H211661   1.900   9.404   0.867
 3807WAT      O11662   4.603   5.937   8.404
 3807WAT     H111663   4.683   5.973   8.452
 3807WAT     H211664   4.632   5.889   8.322
 3808WAT      O11665   6.693   7.660   8.491
 3808WAT     H111666   6.766   7.591   8.489
 3808WAT     H211667   6.654   7.669   8.399
 3809WAT      O11668   7.798   4.224   0.162
 3809WAT     H111669   7.840   4.153   0.218
 3809WAT     H211670   7.798   4.195   0.066
 3810WAT      O11671   2.037   5.812   9.451
 3810WAT     H111672   2.122   5.783   9.494
 3810WAT     H211673   2.041   5.911   9.435
 3811WAT      O11674   0.209   7.135   9.788
 3811WAT     H111675   0.153   7.109   9.710
 3811WAT     H211676   0.179   7.224   9.823
 3812WAT      O11677   9.447   5.372   3.751
 3812WAT     H111678   9.425   5.461   3.789
 3812WAT     H211679   9.539   5.344   3.780
 3813WAT      O11680   9.702   6.563   4.534
 3813WAT     H111681   9.712   6.465   4.516
 3813WAT     H211682   9.782   6.596   4.585
 3814WAT      O11683   3.098   2.730   2.787
 3814WAT     H111684   3.101   2.637   2.821
 3814WAT     H211685   3.150   2.790   2.849
 3815WAT      O11686   4.588   5.865   2.053
 3815WAT     H111687   4.607   5.963   2.044
 3815WAT     H211688   4.667   5.820   2.094
 3816WAT      O11689   0.598   5.210   8.092
 3816WAT     H111690   0.519   5.272   8.094
 3816WAT     H211691   0.590   5.150   8.012
 3817WAT      O11692   8.649   4.531   6.529
 3817WAT     H111693   8.718   4.472   6.572
 3817WAT     H211694   8.689   4.621   6.510
 3818WAT      O11695   8.197   7.894   6.073
 3818WAT     H111696   8.254   7.976   6.084
 3818WAT     H211697   8.238   7.836   6.002
 3819WAT      O11698   6.162   6.386   3.147
 3819WAT     H111699   6.198   6.292   3.148
 3819WAT     H211700   6.179   6.429   3.235
 3820WAT      O11701   1.074   4.423   4.493
 3820WAT     H111702   1.115   4.344   4.447
 3820WAT     H211703   1.032   4.393   4.579
 3821WAT      O11704   3.353   6.091   7.053
 3821WAT     H111705   3.270   6.062   7.007
 3821WAT     H211706   3.386   6.017   7.112
 3822WAT      O11707   9.079   5.962   3.420
 3822WAT     H111708   9.042   5.870   3.404
 3822WAT     H211709   9.014   6.030   3.389
 3823WAT      O11710   8.546   3.109   7.503
 3823WAT     H111711   8.597   3.140   7.422
 3823WAT     H211712   8.472   3.049   7.473
 3824WAT      O11713   2.000   5.760   6.958
 3824WAT     H111714   2.002   5.829   7.029
 3824WAT     H211715   1.919   5.701   6.970
 3825WAT      O11716   8.909   9.786   5.188
 3825WAT     H111717   8.844   9.807   5.114
 3825WAT     H211718   8.998   9.826   5.167
 3826WAT      O11719   2.479   8.646   8.568
 3826WAT     H111720   2.558   8.681   8.618
 3826WAT     H211721   2.415   8.603   8.633
 3827WAT      O11722   6.842   3.109   8.350
 3827WAT     H111723   6.921   3.057   8.381
 3827WAT     H211724   6.781   3.127   8.427
 3828WAT      O11725   8.735   0.956   9.264
 3828WAT     H111726   8.761   0.883   9.200
 3828WAT     H211727   8.730   0.918   9.357
 3829WAT      O11728   1.589   3.210   7.868
 3829WAT     H111729   1.527   3.206   7.790
 3829WAT     H211730   1.558   3.146   7.938
 3830WAT      O11731   0.064   4.884   1.597
 3830WAT     H111732   0.118   4.808   1.633
 3830WAT     H211733   0.099   4.970   1.634
 3831WAT      O11734   5.198   5.263   8.660
 3831WAT     H111735   5.175   5.339   8.721
 3831WAT     H211736   5.297   5.247   8.663
 3832WAT      O11737   6.228   5.437   3.974
 3832WAT     H111738   6.189   5.389   4.053
 3832WAT     H211739   6.242   5.533   3.998
 3833WAT      O11740   7.488   7.634   2.805
 3833WAT     H111741   7.494   7.537   2.828
 3833WAT     H211742   7.578   7.676   2.817
 3834WAT      O11743   6.179   2.236   1.830
 3834WAT     H111744   6.135   2.324   1.847
 3834WAT     H211745   6.204   2.229   1.733
 3835WAT      O11746   0.172   9.791   9.747
 3835WAT     H111747   0.121   9.779   9.832
 3835WAT     H211748   0.191   9.702   9.706
 3836WAT      O11749   7.820   3.619   4.565
 3836WAT     H111750   7.815   3.712   4.601
 3836WAT     H211751   7.813   3.621   4.466
 3837WAT      O11752  -0.001   1.708   7.375
 3837WAT     H111753   0.050   1.633   7.417
 3837WAT     H211754   0.040   1.795   7.401
 3838WAT      O11755   7.357   0.009   2.572
 3838WAT     H111756   7.406   0.051   2.648
 3838WAT     H211757   7.322  -0.080   2.600
 3839WAT      O11758   6.014   7.455   5.802
 3839WAT     H111759   6.008   7.394   5.881
 3839WAT     H211760   5.922   7.487   5.778
 3840WAT      O11761   5.482   1.903   5.977
 3840WAT     H111762   5.430   1.966   5.920
 3840WAT     H211763   5.429   1.819   5.989
 3841WAT      O11764   4.131   0.171   3.329
 3841WAT     H111765   4.123   0.169   3.230
 3841WAT     H211766   4.227   0.186   3.354
 3842WAT      O11767   6.022   7.401   4.891
 3842WAT     H111768   6.019   7.323   4.828
 3842WAT     H211769   6.047   7.369   4.982
 3843WAT      O11770   4.165   3.003   0.097
 3843WAT     H111771   4.074   3.042   0.083
 3843WAT     H211772   4.225   3.073   0.135
 3844WAT      O11773   6.415   6.575   3.932
 3844WAT     H111774   6.481   6.506   3.961
 3844WAT     H211775   6.463   6.652   3.891
 3845WAT      O11776   1.893   2.876   3.404
 3845WAT     H111777   1.879   2.857   3.501
 3845WAT     H211778   1.978   2.928   3.393
 3846WAT      O11779   4.082   0.858   4.228
 3846WAT     H111780   4.111   0.950   4.201
 3846WAT     H211781   4.054   0.859   4.324
 3847WAT      O11782   4.552   7.174   4.194
 3847WAT     H111783   4.494   7.098   4.224
 3847WAT     H211784   4.624   7.189   4.262
 3848WAT      O11785   6.989   1.389   6.941
 3848WAT     H111786   6.910   1.385   7.002
 3848WAT     H211787   7.073   1.388   6.995
 3849WAT      O11788   8.098   4.421   3.305
 3849WAT     H111789   8.034   4.413   3.229
 3849WAT     H211790   8.159   4.499   3.290
 3850WAT      O11791   1.283   7.737   1.631
 3850WAT     H111792   1.367   7.721   1.683
 3850WAT     H211793   1.262   7.835   1.631
 3851WAT      O11794   4.407   4.448   7.925
 3851WAT     H111795   4.498   4.490   7.915
 3851WAT     H211796   4.343   4.493   7.862
 3852WAT      O11797   5.646   2.472   1.654
 3852WAT     H111798   5.563   2.424   1.626
 3852WAT     H211799   5.725   2.413   1.637
 3853WAT      O11800   9.294   3.605   0.938
 3853WAT     H111801   9.269   3.597   1.034
 3853WAT     H211802   9.223   3.565   0.881
 3854WAT      O11803   9.449   4.595   6.127
 3854WAT     H111804   9.362   4.645   6.134
 3854WAT     H211805   9.434   4.510   6.078
 3855WAT      O11806   3.651   4.517   4.055
 3855WAT     H111807   3.582   4.506   4.127
 3855WAT     H211808   3.729   4.568   4.090
 3856WAT      O11809   1.516   5.249   1.667
 3856WAT     H111810   1.482   5.247   1.573
 3856WAT     H211811   1.584   5.323   1.675
 3857WAT      O11812   9.595   4.024   4.080
 3857WAT     H111813   9.653   3.950   4.045
 3857WAT     H211814   9.645   4.110   4.079
 3858WAT      O11815   6.532   2.595   7.672
 3858WAT     H111816   6.599   2.667   7.688
 3858WAT     H211817   6.503   2.596   7.576
 3859WAT      O11818   5.051   1.152   5.683
 3859WAT     H111819   5.109   1.094   5.740
 3859WAT     H211820   4.958   1.116   5.683
 3860WAT      O11821   3.959   7.793   6.410
 3860WAT     H111822   4.048   7.811   6.452
 3860WAT     H211823   3.959   7.701   6.369
 3861WAT      O11824   5.322   3.917   0.009
 3861WAT     H111825   5.314   3.836  -0.049
 3861WAT     H211826   5.282   3.898   0.099
 3862WAT      O11827   2.304   2.269   5.520
 3862WAT     H111828   2.404   2.265   5.526
 3862WAT     H211829   2.270   2.188   5.474
 3863WAT      O11830   0.363   1.766   6.786
 3863WAT     H111831   0.441   1.789   6.728
 3863WAT     H211832   0.365   1.823   6.869
 3864WAT      O11833   1.332   9.734   2.188
 3864WAT     H111834   1.309   9.824   2.226
 3864WAT     H211835   1.313   9.734   2.090
 3865WAT      O11836   6.024   7.860   2.287
 3865WAT     H111837   6.026   7.769   2.244
 3865WAT     H211838   6.039   7.850   2.385
 3866WAT      O11839   2.296   4.463   8.795
 3866WAT     H111840   2.224   4.394   8.798
 3866WAT     H211841   2.337   4.473   8.886
 3867WAT      O11842   9.757   8.878   5.485
 3867WAT     H111843   9.813   8.953   5.519
 3867WAT     H211844   9.666   8.913   5.460
 3868WAT      O11845   6.970   8.488   0.288
 3868WAT     H111846   6.991   8.410   0.347
 3868WAT     H211847   7.034   8.562   0.307
 3869WAT      O11848   2.421   8.431   4.584
 3869WAT     H111849   2.391   8.381   4.503
 3869WAT     H211850   2.349   8.431   4.653
 3870WAT      O11851   9.089   2.588   1.344
 3870WAT     H111852   9.014   2.639   1.300
 3870WAT     H211853   9.175   2.611   1.299
 3871WAT      O11854   9.214   4.736   4.383
 3871WAT     H111855   9.136   4.796   4.362
 3871WAT     H211856   9.180   4.652   4.425
 3872WAT      O11857   2.087   9.101   5.927
 3872WAT     H111858   2.081   9.012   5.971
 3872WAT     H211859   2.014   9.111   5.859
 3873WAT      O11860   5.067   1.588   3.817
 3873WAT     H111861   5.042   1.679   3.852
 3873WAT     H211862   5.147   1.597   3.757
 3874WAT      O11863   6.906   2.114   1.587
 3874WAT     H111864   6.852   2.135   1.505
 3874WAT     H211865   6.988   2.063   1.560
 3875WAT      O11866   7.861   5.077   2.038
 3875WAT     H111867   7.885   5.108   2.130
 3875WAT     H211868   7.795   5.003   2.044
 3876WAT      O11869   9.787   7.976   7.751
 3876WAT     H111870   9.772   7.881   7.723
 3876WAT     H211871   9.837   8.025   7.680
 3877WAT      O11872   1.653   1.036   4.200
 3877WAT     H111873   1.578   1.030   4.265
 3877WAT     H211874   1.655   0.954   4.143
 3878WAT      O11875   3.375   5.089   2.943
 3878WAT     H111876   3.384   5.000   2.987
 3878WAT     H211877   3.424   5.158   2.996
 3879WAT      O11878   6.904   0.725   4.051
 3879WAT     H111879   6.961   0.651   4.087
 3879WAT     H211880   6.907   0.725   3.951
 3880WAT      O11881   0.559   5.899   5.672
 3880WAT     H111882   0.496   5.969   5.638
 3880WAT     H211883   0.509   5.831   5.724
 3881WAT      O11884   4.603   5.278   2.621
 3881WAT     H111885   4.540   5.350   2.651
 3881WAT     H211886   4.649   5.308   2.537
 3882WAT      O11887   3.500   7.006   5.770
 3882WAT     H111888   3.586   6.974   5.729
 3882WAT     H211889   3.423   6.963   5.722
 3883WAT      O11890   3.280   7.730   1.781
 3883WAT     H111891   3.199   7.731   1.840
 3883WAT     H211892   3.251   7.727   1.685
 3884WAT      O11893   0.904   7.866   2.655
 3884WAT     H111894   0.822   7.862   2.598
 3884WAT     H211895   0.891   7.808   2.735
 3885WAT      O11896   7.322   6.944   1.103
 3885WAT     H111897   7.268   6.993   1.034
 3885WAT     H211898   7.352   6.857   1.065
 3886WAT      O11899   8.247   1.242   1.245
 3886WAT     H111900   8.317   1.258   1.175
 3886WAT     H211901   8.183   1.319   1.247
 3887WAT      O11902   3.790   2.317   2.939
 3887WAT     H111903   3.821   2.346   2.849
 3887WAT     H211904   3.758   2.223   2.935
 3888WAT      O11905   6.426   5.902   9.460
 3888WAT     H111906   6.406   5.839   9.535
 3888WAT     H211907   6.411   5.855   9.373
 3889WAT      O11908   1.368   5.765   1.000
 3889WAT     H111909   1.435   5.757   0.926
 3889WAT     H211910   1.386   5.695   1.069
 3890WAT      O11911   7.261   4.397   5.354
 3890WAT     H111912   7.242   4.311   5.401
 3890WAT     H211913   7.345   4.438   5.391
 3891WAT      O11914   3.263   4.927   6.523
 3891WAT     H111915   3.241   4.838   6.563
 3891WAT     H211916   3.344   4.919   6.465
 3892WAT      O11917   5.759   8.922   5.918
 3892WAT     H111918   5.856   8.898   5.921
 3892WAT     H211919   5.740   8.970   5.832
 3893WAT      O11920   7.835   2.916   0.533
 3893WAT     H111921   7.820   2.870   0.621
 3893WAT     H211922   7.747   2.947   0.497
 3894WAT      O11923   4.430   5.929   6.517
 3894WAT     H111924   4.428   6.028   6.534
 3894WAT     H211925   4.382   5.881   6.591
 3895WAT      O11926   9.596   7.206   5.847
 3895WAT     H111927   9.599   7.152   5.763
 3895WAT     H211928   9.502   7.212   5.880
 3896WAT      O11929   3.549   2.766   9.394
 3896WAT     H111930   3.520   2.833   9.326
 3896WAT     H211931   3.643   2.787   9.423
 3897WAT      O11932   8.498   4.320   9.891
 3897WAT     H111933   8.473   4.271   9.975
 3897WAT     H211934   8.494   4.257   9.814
 3898WAT      O11935   6.995   2.503   3.652
 3898WAT     H111936   7.017   2.408   3.631
 3898WAT     H211937   6.903   2.508   3.690
 3899WAT      O11938   1.704   2.191   7.867
 3899WAT     H111939   1.688   2.118   7.801
 3899WAT     H211940   1.626   2.253   7.868
 3900WAT      O11941   9.303   2.610   8.768
 3900WAT     H111942   9.328   2.552   8.691
 3900WAT     H211943   9.380   2.670   8.792
 3901WAT      O11944   0.948   9.144   3.181
 3901WAT     H111945   0.915   9.167   3.089
 3901WAT     H211946   0.869   9.131   3.241
 3902WAT      O11947   2.686   7.304   1.239
 3902WAT     H111948   2.773   7.270   1.273
 3902WAT     H211949   2.653   7.377   1.298
 3903WAT      O11950   3.544   7.450   1.422
 3903WAT     H111951   3.519   7.525   1.362
 3903WAT     H211952   3.604   7.483   1.495
 3904WAT      O11953   4.239   1.200   6.501
 3904WAT     H111954   4.288   1.125   6.455
 3904WAT     H211955   4.141   1.189   6.488
 3905WAT      O11956   1.476   1.074   0.016
 3905WAT     H111957   1.448   1.144  -0.051
 3905WAT     H211958   1.513   1.119   0.097
 3906WAT      O11959   7.415   1.810   6.457
 3906WAT     H111960   7.425   1.738   6.525
 3906WAT     H211961   7.390   1.895   6.503
 3907WAT      O11962   4.655   8.441   6.537
 3907WAT     H111963   4.679   8.415   6.444
 3907WAT     H211964   4.556   8.454   6.543
 3908WAT      O11965   6.018   2.481   2.467
 3908WAT     H111966   6.088   2.543   2.501
 3908WAT     H211967   5.960   2.528   2.400
 3909WAT      O11968   5.320   7.786   2.538
 3909WAT     H111969   5.375   7.791   2.455
 3909WAT     H211970   5.235   7.736   2.520
 3910WAT      O11971   6.205   4.818   2.826
 3910WAT     H111972   6.229   4.909   2.859
 3910WAT     H211973   6.114   4.822   2.784
 3911WAT      O11974   6.916   1.056   6.627
 3911WAT     H111975   6.839   0.996   6.649
 3911WAT     H211976   6.942   1.043   6.532
 3912WAT      O11977   3.671   1.720   1.465
 3912WAT     H111978   3.725   1.796   1.501
 3912WAT     H211979   3.729   1.663   1.407
 3913WAT      O11980   1.605   7.266   5.953
 3913WAT     H111981   1.648   7.288   6.041
 3913WAT     H211982   1.565   7.350   5.914
 3914WAT      O11983   1.497   4.966   7.865
 3914WAT     H111984   1.596   4.960   7.852
 3914WAT     H211985   1.473   5.059   7.892
 3915WAT      O11986   7.696   6.105   7.138
 3915WAT     H111987   7.759   6.064   7.204
 3915WAT     H211988   7.639   6.034   7.097
 3916WAT      O11989   2.068   0.162   6.982
 3916WAT     H111990   2.139   0.158   7.052
 3916WAT     H211991   2.099   0.219   6.906
 3917WAT      O11992   0.514   9.750   4.330
 3917WAT     H111993   0.442   9.702   4.379
 3917WAT     H211994   0.529   9.705   4.241
 3918WAT      O11995   3.665   9.560   5.320
 3918WAT     H111996   3.641   9.623   5.393
 3918WAT     H211997   3.741   9.501   5.350
 3919WAT      O11998   0.495   2.506   5.647
 3919WAT     H111999   0.550   2.438   5.695
 3919WAT     H212000   0.405   2.513   5.689
 3920WAT      O12001   6.030   7.879   0.973
 3920WAT     H112002   6.077   7.855   1.059
 3920WAT     H212003   6.008   7.795   0.923
 3921WAT      O12004   3.816   0.098   5.983
 3921WAT     H112005   3.913   0.122   5.990
 3921WAT     H212006   3.801   0.007   6.020
 3922WAT      O12007   8.937   6.866   1.645
 3922WAT     H112008   8.983   6.858   1.733
 3922WAT     H212009   8.968   6.794   1.584
 3923WAT      O12010   7.321   1.667   8.654
 3923WAT     H112011   7.307   1.585   8.709
 3923WAT     H212012   7.263   1.664   8.573
 3924WAT      O12013   1.139   8.125   0.840
 3924WAT     H112014   1.174   8.197   0.901
 3924WAT     H212015   1.039   8.122   0.848
 3925WAT      O12016   0.264   9.709   9.281
 3925WAT     H112017   0.244   9.617   9.248
 3925WAT     H212018   0.178   9.757   9.298
 3926WAT      O12019   9.654   5.494   0.400
 3926WAT     H112020   9.714   5.472   0.477
 3926WAT     H212021   9.589   5.564   0.428
 3927WAT      O12022   6.854   5.711   1.565
 3927WAT     H112023   6.946   5.676   1.547
 3927WAT     H212024   6.858   5.811   1.572
 3928WAT      O12025   0.285   0.464   6.878
 3928WAT     H112026   0.187   0.446   6.868
 3928WAT     H212027   0.313   0.446   6.972
 3929WAT      O12028   0.033   9.207   4.286
 3929WAT     H112029   0.078   9.247   4.206
 3929WAT     H212030   0.066   9.253   4.368
 3930WAT      O12031   1.245   1.273   2.616
 3930WAT     H112032   1.248   1.373   2.619
 3930WAT     H212033   1.261   1.236   2.707
 3931WAT      O12034   0.845   3.484   8.154
 3931WAT     H112035   0.893   3.437   8.228
 3931WAT     H212036   0.839   3.582   8.175
 3932WAT      O12037   9.697   7.371   5.055
 3932WAT     H112038   9.635   7.302   5.090
 3932WAT     H212039   9.729   7.429   5.130
 3933WAT      O12040   5.977   7.112   6.871
 3933WAT     H112041   5.901   7.173   6.893
 3933WAT     H212042   6.059   7.166   6.851
 3934WAT      O12043   6.489   2.291   6.762
 3934WAT     H112044   6.535   2.265   6.677
 3934WAT     H212045   6.392   2.267   6.757
 3935WAT      O12046   3.095   6.848   4.107
 3935WAT     H112047   3.039   6.804   4.178
 3935WAT     H212048   3.191   6.841   4.132
 3936WAT      O12049   2.434   4.906   0.760
 3936WAT     H112050   2.455   5.004   0.758
 3936WAT     H212051   2.472   4.863   0.678
 3937WAT      O12052   6.823   4.821   9.836
 3937WAT     H112053   6.825   4.853   9.930
 3937WAT     H212054   6.767   4.739   9.830
 3938WAT      O12055   3.549   6.746   8.591
 3938WAT     H112056   3.526   6.689   8.512
 3938WAT     H212057   3.601   6.826   8.559
 3939WAT      O12058   6.114   5.218   5.538
 3939WAT     H112059   6.098   5.304   5.490
 3939WAT     H212060   6.196   5.227   5.595
 3940WAT      O12061   7.356   0.282   9.432
 3940WAT     H112062   7.424   0.355   9.443
 3940WAT     H212063   7.399   0.194   9.449
 3941WAT      O12064   7.956   4.754   6.709
 3941WAT     H112065   7.988   4.737   6.616
 3941WAT     H212066   7.857   4.740   6.714
 3942WAT      O12067   3.095   6.046   0.549
 3942WAT     H112068   3.161   6.113   0.514
 3942WAT     H212069   3.135   5.998   0.627
 3943WAT      O12070   1.574   3.460   1.898
 3943WAT     H112071   1.480   3.489   1.878
 3943WAT     H212072   1.623   3.534   1.944
 3944WAT      O12073   8.524   0.228   0.828
 3944WAT     H112074   8.556   0.159   0.893
 3944WAT     H212075   8.511   0.315   0.875
 3945WAT      O12076   7.242   1.778   1.710
 3945WAT     H112077   7.309   1.816   1.774
 3945WAT     H212078   7.264   1.808   1.617
 3946WAT      O12079   1.417   8.242   3.602
 3946WAT     H112080   1.454   8.300   3.675
 3946WAT     H212081   1.318   8.232   3.614
 3947WAT      O12082   2.448   6.549   7.807
 3947WAT     H112083   2.387   6.515   7.878
 3947WAT     H212084   2.492   6.633   7.839
 3948WAT      O12085   5.142   4.723   1.852
 3948WAT     H112086   5.125   4.804   1.797
 3948WAT     H212087   5.226   4.678   1.820
 3949WAT      O12088   2.940   3.807   2.908
 3949WAT     H112089   3.029   3.785   2.947
 3949WAT     H212090   2.951   3.853   2.820
 3950WAT      O12091   2.800   2.322   3.547
 3950WAT     H112092   2.707   2.316   3.510
 3950WAT     H212093   2.855   2.381   3.489
 3951WAT      O12094   0.019   7.218   8.615
 3951WAT     H112095  -0.072   7.184   8.595
 3951WAT     H212096   0.068   7.236   8.530
 3952WAT      O12097   4.887   4.355   4.433
 3952WAT     H112098   4.957   4.285   4.420
 3952WAT     H212099   4.923   4.444   4.405
 3953WAT      O12100   7.245   9.712   2.984
 3953WAT     H112101   7.155   9.673   2.963
 3953WAT     H212102   7.243   9.811   2.970
 3954WAT      O12103   1.196   6.622   3.903
 3954WAT     H112104   1.201   6.708   3.851
 3954WAT     H212105   1.136   6.635   3.982
 3955WAT      O12106   2.306   1.996   8.580
 3955WAT     H112107   2.230   2.054   8.552
 3955WAT     H212108   2.294   1.968   8.675
 3956WAT      O12109   4.252   0.787   2.709
 3956WAT     H112110   4.216   0.818   2.621
 3956WAT     H212111   4.198   0.826   2.783
 3957WAT      O12112   4.951   5.042   9.781
 3957WAT     H112113   5.040   5.063   9.819
 3957WAT     H212114   4.891   5.007   9.853
 3958WAT      O12115   6.748   4.688   8.131
 3958WAT     H112116   6.690   4.620   8.087
 3958WAT     H212117   6.834   4.696   8.081
 3959WAT      O12118   3.707   4.271   4.265
 3959WAT     H112119   3.726   4.236   4.173
 3959WAT     H212120   3.620   4.321   4.264
 3960WAT      O12121   3.224   0.894   2.609
 3960WAT     H112122   3.294   0.841   2.656
 3960WAT     H212123   3.267   0.952   2.540
 3961WAT      O12124   5.421   6.985   1.844
 3961WAT     H112125   5.437   6.931   1.762
 3961WAT     H212126   5.324   6.979   1.870
 3962WAT      O12127   2.231   0.896   2.006
 3962WAT     H112128   2.181   0.850   2.079
 3962WAT     H212129   2.247   0.992   2.031
 3963WAT      O12130   2.837   0.597   1.666
 3963WAT     H112131   2.789   0.534   1.728
 3963WAT     H212132   2.872   0.546   1.588
 3964WAT      O12133   4.103   7.877   3.590
 3964WAT     H112134   4.041   7.948   3.557
 3964WAT     H212135   4.066   7.787   3.568
 3965WAT      O12136   7.192   8.491   9.066
 3965WAT     H112137   7.273   8.434   9.081
 3965WAT     H212138   7.133   8.487   9.147
 3966WAT      O12139   8.692   4.877   2.070
 3966WAT     H112140   8.753   4.809   2.110
 3966WAT     H212141   8.618   4.898   2.134
 3967WAT      O12142   0.756   3.493   6.638
 3967WAT     H112143   0.815   3.412   6.636
 3967WAT     H212144   0.785   3.558   6.569
 3968WAT      O12145   5.671   9.667   5.329
 3968WAT     H112146   5.574   9.657   5.306
 3968WAT     H212147   5.719   9.709   5.251
 3969WAT      O12148   5.616   0.840   2.698
 3969WAT     H112149   5.570   0.838   2.609
 3969WAT     H212150   5.549   0.829   2.771
 3970WAT      O12151   9.475   2.414   2.079
 3970WAT     H112152   9.385   2.374   2.065
 3970WAT     H212153   9.467   2.509   2.108
 3971WAT      O12154   4.475   0.003   1.128
 3971WAT     H112155   4.429   0.086   1.162
 3971WAT     H212156   4.574   0.013   1.140
 3972WAT      O12157   9.176   2.169   8.669
 3972WAT     H112158   9.238   2.137   8.598
 3972WAT     H212159   9.123   2.091   8.704
 3973WAT      O12160   3.805   1.010   1.028
 3973WAT     H112161   3.886   1.034   0.974
 3973WAT     H212162   3.814   0.916   1.062
 3974WAT      O12163   2.469   2.769   8.722
 3974WAT     H112164   2.453   2.832   8.646
 3974WAT     H212165   2.409   2.793   8.798
 3975WAT      O12166   0.451   5.951   6.708
 3975WAT     H112167   0.427   5.883   6.639
 3975WAT     H212168   0.531   5.920   6.759
 3976WAT      O12169   4.434   2.377   7.769
 3976WAT     H112170   4.431   2.400   7.671
 3976WAT     H212171   4.345   2.395   7.810
 3977WAT      O12172   4.151   6.105   3.324
 3977WAT     H112173   4.113   6.015   3.308
 3977WAT     H212174   4.223   6.100   3.394
 3978WAT      O12175   3.930   2.878   1.913
 3978WAT     H112176   3.999   2.847   1.978
 3978WAT     H212177   3.900   2.801   1.857
 3979WAT      O12178   8.104   6.518   8.980
 3979WAT     H112179   8.021   6.531   8.926
 3979WAT     H212180   8.175   6.478   8.923
 3980WAT      O12181   4.194   0.498   2.448
 3980WAT     H112182   4.159   0.576   2.397
 3980WAT     H212183   4.167   0.505   2.544
 3981WAT      O12184   5.586   3.849   5.668
 3981WAT     H112185   5.512   3.907   5.634
 3981WAT     H212186   5.661   3.849   5.602
 3982WAT      O12187   8.562   1.881   1.080
 3982WAT     H112188   8.588   1.810   1.146
 3982WAT     H212189   8.643   1.912   1.031
 3983WAT      O12190   2.129   4.946   8.784
 3983WAT     H112191   2.086   5.013   8.722
 3983WAT     H212192   2.213   4.912   8.743
 3984WAT      O12193   6.600   4.383   3.640
 3984WAT     H112194   6.637   4.297   3.605
 3984WAT     H212195   6.665   4.422   3.706
 3985WAT      O12196   5.086   4.916   8.902
 3985WAT     H112197   4.992   4.952   8.902
 3985WAT     H212198   5.128   4.933   8.991
 3986WAT      O12199   5.131   6.903   0.015
 3986WAT     H112200   5.220   6.946   0.001
 3986WAT     H212201   5.130   6.855   0.103
 3987WAT      O12202   7.223   6.174   4.704
 3987WAT     H112203   7.161   6.188   4.627
 3987WAT     H212204   7.317   6.174   4.672
 3988WAT      O12205   8.992   5.679   6.503
 3988WAT     H112206   8.965   5.732   6.583
 3988WAT     H212207   9.088   5.651   6.512
 3989WAT      O12208   2.816   2.914   2.430
 3989WAT     H112209   2.832   2.882   2.336
 3989WAT     H212210   2.826   3.013   2.433
 3990WAT      O12211   2.420   4.103   7.790
 3990WAT     H112212   2.363   4.159   7.729
 3990WAT     H212213   2.508   4.148   7.803
 3991WAT      O12214   2.634   8.517   6.883
 3991WAT     H112215   2.567   8.443   6.894
 3991WAT     H212216   2.666   8.519   6.789
 3992WAT      O12217   8.119   2.794   3.837
 3992WAT     H112218   8.147   2.701   3.861
 3992WAT     H212219   8.200   2.852   3.832
 3993WAT      O12220   1.335   0.462   6.761
 3993WAT     H112221   1.380   0.388   6.712
 3993WAT     H212222   1.395   0.541   6.766
 3994WAT      O12223   3.691   7.380   2.708
 3994WAT     H112224   3.690   7.286   2.675
 3994WAT     H212225   3.725   7.441   2.637
 3995WAT      O12226   7.385   3.652   4.417
 3995WAT     H112227   7.368   3.747   4.444
 3995WAT     H212228   7.365   3.591   4.494
 3996WAT      O12229   7.771   7.455   6.039
 3996WAT     H112230   7.848   7.414   6.088
 3996WAT     H212231   7.748   7.544   6.079
 3997WAT      O12232   8.237   6.601   2.446
 3997WAT     H112233   8.278   6.511   2.429
 3997WAT     H212234   8.235   6.618   2.544
 3998WAT      O12235   6.277   2.801   3.580
 3998WAT     H112236   6.285   2.747   3.664
 3998WAT     H212237   6.291   2.742   3.501
 3999WAT      O12238   3.186   5.355   1.483
 3999WAT     H112239   3.169   5.376   1.579
 3999WAT     H212240   3.150   5.265   1.461
 4000WAT      O12241   2.809   1.288   2.895
 4000WAT     H112242   2.876   1.314   2.825
 4000WAT     H212243   2.723   1.336   2.878
 4001WAT      O12244   3.481   2.167   0.385
 4001WAT     H112245   3.482   2.113   0.301
 4001WAT     H212246   3.569   2.214   0.395
 4002WAT      O12247   7.391   8.435   9.611
 4002WAT     H112248   7.321   8.503   9.587
 4002WAT     H212249   7.378   8.353   9.556
 4003WAT      O12250   3.769   2.161   1.131
 4003WAT     H112251   3.764   2.259   1.153
 4003WAT     H212252   3.749   2.147   1.034
 4004WAT      O12253   4.273   2.228   0.319
 4004WAT     H112254   4.298   2.213   0.415
 4004WAT     H212255   4.179   2.263   0.314
 4005WAT      O12256   5.166   8.139   7.802
 4005WAT     H112257   5.126   8.212   7.858
 4005WAT     H212258   5.229   8.085   7.858
 4006WAT      O12259   3.021   0.857   8.224
 4006WAT     H112260   3.051   0.896   8.137
 4006WAT     H212261   3.099   0.818   8.272
 4007WAT      O12262   8.396   0.674   3.579
 4007WAT     H112263   8.423   0.608   3.649
 4007WAT     H212264   8.303   0.706   3.596
 4008WAT      O12265   7.050   0.922   2.218
 4008WAT     H112266   6.987   0.929   2.296
 4008WAT     H212267   7.028   0.993   2.151
 4009WAT      O12268   5.277   2.776   5.511
 4009WAT     H112269   5.215   2.827   5.452
 4009WAT     H212270   5.354   2.835   5.537
 4010WAT      O12271   4.557   2.780   2.676
 4010WAT     H112272   4.498   2.705   2.705
 4010WAT     H212273   4.536   2.805   2.581
 4011WAT      O12274   7.333   7.847   6.734
 4011WAT     H112275   7.321   7.902   6.817
 4011WAT     H212276   7.349   7.752   6.759
 4012WAT      O12277   8.241   3.903   2.526
 4012WAT     H112278   8.327   3.891   2.476
 4012WAT     H212279   8.211   3.998   2.517
 4013WAT      O12280   5.632   2.428   6.474
 4013WAT     H112281   5.640   2.519   6.515
 4013WAT     H212282   5.701   2.367   6.514
 4014WAT      O12283   4.474   2.241   2.074
 4014WAT     H112284   4.471   2.274   2.168
 4014WAT     H212285   4.567   2.249   2.039
 4015WAT      O12286   3.072   4.674   2.124
 4015WAT     H112287   3.142   4.664   2.195
 4015WAT     H212288   3.116   4.700   2.038
 4016WAT      O12289   4.319   9.007   3.997
 4016WAT     H112290   4.317   9.066   4.078
 4016WAT     H212291   4.378   8.928   4.015
 4017WAT      O12292   1.078   5.037   0.908
 4017WAT     H112293   1.165   5.034   0.958
 4017WAT     H212294   1.095   5.022   0.811
 4018WAT      O12295   9.382   4.460   7.890
 4018WAT     H112296   9.354   4.519   7.966
 4018WAT     H212297   9.301   4.421   7.846
 4019WAT      O12298   4.523   0.762   7.099
 4019WAT     H112299   4.596   0.822   7.067
 4019WAT     H212300   4.546   0.727   7.190
 4020WAT      O12301   8.857   0.452   5.858
 4020WAT     H112302   8.835   0.510   5.780
 4020WAT     H212303   8.940   0.486   5.903
 4021WAT      O12304   2.189   2.188   2.333
 4021WAT     H112305   2.283   2.222   2.330
 4021WAT     H212306   2.156   2.172   2.240
 4022WAT      O12307   9.677   9.716   9.534
 4022WAT     H112308   9.655   9.811   9.556
 4022WAT     H212309   9.675   9.661   9.618
 4023WAT      O12310   3.881   4.393   5.529
 4023WAT     H112311   3.979   4.404   5.513
 4023WAT     H212312   3.858   4.428   5.620
 4024WAT      O12313   4.174   6.722   2.730
 4024WAT     H112314   4.145   6.780   2.653
 4024WAT     H212315   4.148   6.627   2.712
 4025WAT      O12316   4.951   3.268   2.902
 4025WAT     H112317   5.027   3.204   2.912
 4025WAT     H212318   4.984   3.353   2.861
 4026WAT      O12319   3.296   7.682   5.589
 4026WAT     H112320   3.221   7.723   5.642
 4026WAT     H212321   3.309   7.734   5.505
 4027WAT      O12322   7.176   4.028   9.662
 4027WAT     H112323   7.182   3.934   9.627
 4027WAT     H212324   7.200   4.029   9.759
 4028WAT      O12325   0.352   5.033   1.130
 4028WAT     H112326   0.374   5.110   1.069
 4028WAT     H212327   0.322   4.955   1.075
 4029WAT      O12328   7.574   7.904   7.815
 4029WAT     H112329   7.613   7.927   7.904
 4029WAT     H212330   7.474   7.915   7.818
 4030WAT      O12331   1.287   5.647   2.644
 4030WAT     H112332   1.356   5.716   2.668
 4030WAT     H212333   1.217   5.643   2.716
 4031WAT      O12334   9.461   2.599   0.894
 4031WAT     H112335   9.558   2.587   0.911
 4031WAT     H212336   9.409   2.527   0.941
 4032WAT      O12337   8.825   6.943   4.227
 4032WAT     H112338   8.892   6.870   4.242
 4032WAT     H212339   8.826   6.970   4.131
 4033WAT      O12340   0.569   6.482   8.174
 4033WAT     H112341   0.479   6.445   8.196
 4033WAT     H212342   0.577   6.494   8.075
 4034WAT      O12343   1.708   3.578   7.276
 4034WAT     H112344   1.758   3.497   7.308
 4034WAT     H212345   1.652   3.615   7.350
 4035WAT      O12346   3.228   4.608   3.843
 4035WAT     H112347   3.269   4.679   3.900
 4035WAT     H212348   3.142   4.642   3.804
 4036WAT      O12349   1.465   4.537   1.454
 4036WAT     H112350   1.435   4.490   1.371
 4036WAT     H212351   1.408   4.617   1.470
 4037WAT      O12352   0.269   4.970   6.605
 4037WAT     H112353   0.187   4.938   6.652
 4037WAT     H212354   0.341   4.901   6.613
 4038WAT      O12355   6.454   4.768   2.610
 4038WAT     H112356   6.505   4.687   2.642
 4038WAT     H212357   6.378   4.738   2.552
 4039WAT      O12358   8.514   6.551   9.104
 4039WAT     H112359   8.426   6.553   9.152
 4039WAT     H212360   8.540   6.645   9.079
 4040WAT      O12361   1.876   3.099   1.506
 4040WAT     H112362   1.968   3.079   1.472
 4040WAT     H212363   1.877   3.182   1.561
 4041WAT      O12364   1.887   8.328   1.137
 4041WAT     H112365   1.898   8.258   1.066
 4041WAT     H212366   1.921   8.416   1.103
 4042WAT      O12367   3.429   3.473   7.082
 4042WAT     H112368   3.334   3.444   7.094
 4042WAT     H212369   3.468   3.427   7.002
 4043WAT      O12370   6.298   6.745   2.427
 4043WAT     H112371   6.208   6.712   2.454
 4043WAT     H212372   6.302   6.845   2.439
 4044WAT      O12373   6.229   2.636   2.552
 4044WAT     H112374   6.325   2.617   2.533
 4044WAT     H212375   6.221   2.718   2.608
 4045WAT      O12376   1.320   3.527   0.633
 4045WAT     H112377   1.402   3.548   0.685
 4045WAT     H212378   1.313   3.428   0.620
 4046WAT      O12379   5.921   5.107   8.435
 4046WAT     H112380   5.905   5.167   8.513
 4046WAT     H212381   6.019   5.103   8.415
 4047WAT      O12382   4.617   5.554   6.840
 4047WAT     H112383   4.659   5.501   6.767
 4047WAT     H212384   4.688   5.593   6.899
 4048WAT      O12385   1.969   1.952   2.828
 4048WAT     H112386   2.025   2.023   2.871
 4048WAT     H212387   1.879   1.990   2.805
 4049WAT      O12388   2.689   0.439   7.558
 4049WAT     H112389   2.712   0.426   7.462
 4049WAT     H212390   2.603   0.392   7.579
 4050WAT      O12391   5.996   3.148   4.348
 4050WAT     H112392   5.977   3.054   4.323
 4050WAT     H212393   6.090   3.157   4.380
 4051WAT      O12394   0.186   1.836   5.396
 4051WAT     H112395   0.093   1.822   5.362
 4051WAT     H212396   0.230   1.747   5.410
 4052WAT      O12397   9.776   7.041   1.889
 4052WAT     H112398   9.811   6.957   1.846
 4052WAT     H212399   9.790   7.118   1.828
 4053WAT      O12400   7.651   4.567   2.828
 4053WAT     H112401   7.680   4.645   2.883
 4053WAT     H212402   7.716   4.554   2.753
 4054WAT      O12403   4.100   2.142   1.021
 4054WAT     H112404   4.009   2.160   0.983
 4054WAT     H212405   4.145   2.071   0.967
 4055WAT      O12406   5.912   6.882   6.773
 4055WAT     H112407   5.926   6.961   6.833
 4055WAT     H212408   5.854   6.908   6.696
 4056WAT      O12409   5.365   1.966   3.589
 4056WAT     H112410   5.267   1.951   3.577
 4056WAT     H212411   5.403   2.005   3.505
 4057WAT      O12412   4.616   6.873   8.397
 4057WAT     H112413   4.640   6.801   8.333
 4057WAT     H212414   4.689   6.942   8.399
 4058WAT      O12415   3.382   9.307   6.883
 4058WAT     H112416   3.468   9.267   6.913
 4058WAT     H212417   3.388   9.407   6.890
 4059WAT      O12418   5.707   7.051   2.332
 4059WAT     H112419   5.641   6.979   2.311
 4059WAT     H212420   5.665   7.119   2.392
 4060WAT      O12421   0.732   1.066   7.880
 4060WAT     H112422   0.818   1.022   7.904
 4060WAT     H212423   0.719   1.148   7.936
 4061WAT      O12424   8.701   1.533   4.676
 4061WAT     H112425   8.760   1.507   4.599
 4061WAT     H212426   8.656   1.451   4.713
 4062WAT      O12427   0.815   0.128   6.150
 4062WAT     H112428   0.740   0.189   6.125
 4062WAT     H212429   0.851   0.154   6.240
 4063WAT      O12430   6.583   0.858   1.892
 4063WAT     H112431   6.515   0.838   1.963
 4063WAT     H212432   6.667   0.892   1.935
 4064WAT      O12433   9.171   6.510   0.952
 4064WAT     H112434   9.159   6.587   1.014
 4064WAT     H212435   9.260   6.517   0.906
 4065WAT      O12436   2.299   9.404   5.444
 4065WAT     H112437   2.261   9.487   5.403
 4065WAT     H212438   2.267   9.324   5.392
 4066WAT      O12439   8.307   4.838   7.467
 4066WAT     H112440   8.241   4.907   7.496
 4066WAT     H212441   8.376   4.880   7.409
 4067WAT      O12442   7.950   2.687   2.256
 4067WAT     H112443   7.861   2.642   2.264
 4067WAT     H212444   8.013   2.650   2.324
 4068WAT      O12445   1.386   2.367   4.393
 4068WAT     H112446   1.431   2.280   4.371
 4068WAT     H212447   1.294   2.349   4.428
 4069WAT      O12448   7.733   6.957   2.264
 4069WAT     H112449   7.699   6.863   2.264
 4069WAT     H212450   7.703   7.004   2.346
 4070WAT      O12451   6.671   4.693   9.149
 4070WAT     H112452   6.660   4.740   9.237
 4070WAT     H212453   6.745   4.734   9.098
 4071WAT      O12454   1.247   1.258   1.040
 4071WAT     H112455   1.182   1.326   1.075
 4071WAT     H212456   1.277   1.199   1.115
 4072WAT      O12457   3.441   2.395   8.833
 4072WAT     H112458   3.398   2.322   8.887
 4072WAT     H212459   3.468   2.470   8.893
 4073WAT      O12460   0.330   6.111   1.696
 4073WAT     H112461   0.319   6.209   1.680
 4073WAT     H212462   0.257   6.079   1.756
 4074WAT      O12463   3.395   8.175   0.630
 4074WAT     H112464   3.472   8.112   0.626
 4074WAT     H212465   3.425   8.262   0.671
 4075WAT      O12466   3.718   8.264   5.427
 4075WAT     H112467   3.635   8.224   5.467
 4075WAT     H212468   3.696   8.304   5.338
 4076WAT      O12469   6.606   8.144   8.481
 4076WAT     H112470   6.648   8.121   8.393
 4076WAT     H212471   6.639   8.234   8.510
 4077WAT      O12472   9.700   3.561   2.954
 4077WAT     H112473   9.782   3.510   2.980
 4077WAT     H212474   9.661   3.605   3.035
 4078WAT      O12475   1.151   0.005   4.050
 4078WAT     H112476   1.066  -0.048   4.051
 4078WAT     H212477   1.143   0.080   3.985
 4079WAT      O12478   9.099   5.597   4.899
 4079WAT     H112479   9.089   5.658   4.820
 4079WAT     H212480   9.029   5.619   4.967
 4080WAT      O12481   4.554   0.067   9.600
 4080WAT     H112482   4.556   0.076   9.700
 4080WAT     H212483   4.521   0.152   9.560
 4081WAT      O12484   6.331   2.988   9.167
 4081WAT     H112485   6.418   2.982   9.118
 4081WAT     H212486   6.271   3.054   9.121
 4082WAT      O12487   8.413   8.606   1.910
 4082WAT     H112488   8.417   8.656   1.996
 4082WAT     H212489   8.404   8.508   1.929
 4083WAT      O12490   5.471   9.578   0.370
 4083WAT     H112491   5.405   9.610   0.303
 4083WAT     H212492   5.476   9.478   0.367
 4084WAT      O12493   0.090   2.951   9.845
 4084WAT     H112494   0.084   2.983   9.751
 4084WAT     H212495   0.025   2.877   9.859
 4085WAT      O12496   3.978   7.108   4.072
 4085WAT     H112497   3.996   7.076   4.166
 4085WAT     H212498   3.944   7.202   4.075
 4086WAT      O12499   5.626   0.347   8.468
 4086WAT     H112500   5.632   0.407   8.389
 4086WAT     H212501   5.718   0.323   8.500
 4087WAT      O12502   2.338   4.580   0.363
 4087WAT     H112503   2.280   4.512   0.319
 4087WAT     H212504   2.314   4.589   0.459
 4088WAT      O12505   4.820   6.494   5.954
 4088WAT     H112506   4.806   6.454   6.045
 4088WAT     H212507   4.910   6.538   5.950
 4089WAT      O12508   3.217   4.311   0.338
 4089WAT     H112509   3.149   4.238   0.338
 4089WAT     H212510   3.299   4.280   0.290
 4090WAT      O12511   1.122   3.880   9.186
 4090WAT     H112512   1.188   3.915   9.253
 4090WAT     H212513   1.048   3.832   9.234
 4091WAT      O12514   7.778   1.593   6.853
 4091WAT     H112515   7.711   1.663   6.829
 4091WAT     H212516   7.732   1.516   6.897
 4092WAT      O12517   7.213   7.576   9.710
 4092WAT     H112518   7.130   7.544   9.664
 4092WAT     H212519   7.215   7.542   9.804
 4093WAT      O12520   0.157   9.727   8.524
 4093WAT     H112521   0.242   9.771   8.491
 4093WAT     H212522   0.167   9.704   8.620
 4094WAT      O12523   8.522   6.925   8.794
 4094WAT     H112524   8.457   6.852   8.773
 4094WAT     H212525   8.508   7.001   8.732
 4095WAT      O12526   4.900   3.071   7.166
 4095WAT     H112527   4.963   2.996   7.189
 4095WAT     H212528   4.952   3.150   7.135
 4096WAT      O12529   2.591   7.676   3.161
 4096WAT     H112530   2.682   7.709   3.138
 4096WAT     H212531   2.522   7.730   3.113
 4097WAT      O12532   8.396   3.742   7.755
 4097WAT     H112533   8.459   3.666   7.766
 4097WAT     H212534   8.309   3.708   7.720
 4098WAT      O12535   5.151   3.991   3.752
 4098WAT     H112536   5.114   3.910   3.708
 4098WAT     H212537   5.143   4.069   3.690
 4099WAT      O12538   0.150   6.955   5.217
 4099WAT     H112539   0.132   7.014   5.295
 4099WAT     H212540   0.223   6.890   5.240
 4100WAT      O12541   8.361   3.386   1.790
 4100WAT     H112542   8.296   3.311   1.787
 4100WAT     H212543   8.438   3.366   1.729
 4101WAT      O12544   9.145   9.758   1.560
 4101WAT     H112545   9.243   9.741   1.560
 4101WAT     H212546   9.117   9.797   1.648
 4102WAT      O12547   1.806   7.520   6.503
 4102WAT     H112548   1.707   7.507   6.497
 4102WAT     H212549   1.844   7.459   6.572
 4103WAT      O12550   4.732   1.655   8.459
 4103WAT     H112551   4.670   1.631   8.534
 4103WAT     H212552   4.806   1.713   8.494
 4104WAT      O12553   3.200   8.573   8.426
 4104WAT     H112554   3.247   8.642   8.482
 4104WAT     H212555   3.201   8.602   8.330
 4105WAT      O12556   3.556   6.638   6.887
 4105WAT     H112557   3.554   6.543   6.921
 4105WAT     H212558   3.645   6.657   6.846
 4106WAT      O12559   4.368   1.112   7.740
 4106WAT     H112560   4.415   1.200   7.732
 4106WAT     H212561   4.309   1.098   7.661
 4107WAT      O12562   8.143   1.394   8.636
 4107WAT     H112563   8.165   1.483   8.675
 4107WAT     H212564   8.170   1.322   8.701
 4108WAT      O12565   1.888   1.186   5.665
 4108WAT     H112566   1.981   1.203   5.631
 4108WAT     H212567   1.863   1.091   5.645
 4109WAT      O12568   4.581   6.755   6.574
 4109WAT     H112569   4.555   6.717   6.663
 4109WAT     H212570   4.530   6.707   6.502
 4110WAT      O12571   0.806   4.073   1.674
 4110WAT     H112572   0.850   4.004   1.617
 4110WAT     H212573   0.708   4.053   1.679
 4111WAT      O12574   5.568   2.717   9.617
 4111WAT     H112575   5.605   2.625   9.633
 4111WAT     H212576   5.643   2.782   9.606
 4112WAT      O12577   7.212   8.088   9.854
 4112WAT     H112578   7.276   8.165   9.862
 4112WAT     H212579   7.128   8.110   9.905
 4113WAT      O12580   6.406   5.433   2.249
 4113WAT     H112581   6.361   5.343   2.249
 4113WAT     H212582   6.355   5.494   2.188
 4114WAT      O12583   6.675   8.299   4.343
 4114WAT     H112584   6.763   8.254   4.354
 4114WAT     H212585   6.664   8.368   4.415
 4115WAT      O12586   7.897   6.248   9.302
 4115WAT     H112587   7.984   6.298   9.298
 4115WAT     H212588   7.873   6.231   9.397
 4116WAT      O12589   8.749   8.563   0.572
 4116WAT     H112590   8.738   8.636   0.505
 4116WAT     H212591   8.843   8.527   0.567
 4117WAT      O12592   5.595   2.998   3.365
 4117WAT     H112593   5.556   2.985   3.456
 4117WAT     H212594   5.525   2.980   3.295
 4118WAT      O12595   9.057   6.018   1.632
 4118WAT     H112596   9.098   5.934   1.596
 4118WAT     H212597   9.126   6.070   1.683
 4119WAT      O12598   1.242   0.164   1.185
 4119WAT     H112599   1.336   0.136   1.203
 4119WAT     H212600   1.183   0.138   1.262
 4120WAT      O12601   3.525   9.795   2.569
 4120WAT     H112602   3.619   9.826   2.588
 4120WAT     H212603   3.471   9.800   2.653
 4121WAT      O12604   2.895   0.203   6.238
 4121WAT     H112605   2.975   0.191   6.179
 4121WAT     H212606   2.911   0.157   6.325
 4122WAT      O12607   4.856   9.735   6.306
 4122WAT     H112608   4.825   9.764   6.397
 4122WAT     H212609   4.858   9.635   6.303
 4123WAT      O12610   6.448   5.926   8.897
 4123WAT     H112611   6.359   5.913   8.940
 4123WAT     H212612   6.483   5.838   8.865
 4124WAT      O12613   4.868   9.530   3.311
 4124WAT     H112614   4.845   9.619   3.350
 4124WAT     H212615   4.832   9.458   3.370
 4125WAT      O12616   1.298   6.072   8.074
 4125WAT     H112617   1.328   6.116   7.990
 4125WAT     H212618   1.234   6.132   8.122
 4126WAT      O12619   7.683   9.474   0.585
 4126WAT     H112620   7.662   9.555   0.529
 4126WAT     H212621   7.602   9.417   0.594
 4127WAT      O12622   7.973   8.134   4.619
 4127WAT     H112623   8.017   8.213   4.574
 4127WAT     H212624   7.919   8.166   4.696
 4128WAT      O12625   9.847   3.783   4.640
 4128WAT     H112626   9.856   3.689   4.606
 4128WAT     H212627   9.794   3.782   4.725
 4129WAT      O12628   3.769   7.618   3.360
 4129WAT     H112629   3.770   7.718   3.367
 4129WAT     H212630   3.705   7.581   3.427
 4130WAT      O12631   9.152   3.468   1.883
 4130WAT     H112632   9.081   3.422   1.831
 4130WAT     H212633   9.242   3.443   1.847
 4131WAT      O12634   6.117   7.983   2.720
 4131WAT     H112635   6.176   8.014   2.646
 4131WAT     H212636   6.164   7.995   2.807
 4132WAT      O12637   5.886   1.376   6.179
 4132WAT     H112638   5.845   1.302   6.127
 4132WAT     H212639   5.985   1.362   6.184
 4133WAT      O12640   7.607   1.699   5.151
 4133WAT     H112641   7.556   1.784   5.156
 4133WAT     H212642   7.600   1.651   5.239
 4134WAT      O12643   4.348   6.433   8.758
 4134WAT     H112644   4.407   6.361   8.722
 4134WAT     H212645   4.374   6.452   8.853
 4135WAT      O12646   9.815   8.210   3.394
 4135WAT     H112647   9.759   8.129   3.412
 4135WAT     H212648   9.779   8.258   3.314
 4136WAT      O12649   4.522   1.288   3.853
 4136WAT     H112650   4.470   1.349   3.913
 4136WAT     H212651   4.458   1.234   3.798
 4137WAT      O12652   3.797   6.967   0.120
 4137WAT     H112653   3.776   6.959   0.022
 4137WAT     H212654   3.714   6.953   0.174
 4138WAT      O12655   2.694   8.991   5.382
 4138WAT     H112656   2.660   8.914   5.436
 4138WAT     H212657   2.766   9.038   5.432
 4139WAT      O12658   1.202   2.892   3.430
 4139WAT     H112659   1.111   2.921   3.399
 4139WAT     H212660   1.194   2.805   3.479
 4140WAT      O12661   6.617   5.156   4.227
 4140WAT     H112662   6.651   5.078   4.280
 4140WAT     H212663   6.650   5.241   4.266
 4141WAT      O12664   3.803   6.433   8.579
 4141WAT     H112665   3.753   6.497   8.520
 4141WAT     H212666   3.896   6.423   8.544
 4142WAT      O12667   1.450   7.271   5.292
 4142WAT     H112668   1.545   7.239   5.300
 4142WAT     H212669   1.447   7.369   5.308
 4143WAT      O12670   3.813   1.495   4.248
 4143WAT     H112671   3.791   1.427   4.178
 4143WAT     H212672   3.735   1.507   4.309
 4144WAT      O12673   6.186   8.653   2.040
 4144WAT     H112674   6.116   8.591   2.074
 4144WAT     H212675   6.273   8.632   2.085
 4145WAT      O12676   0.681   0.846   4.688
 4145WAT     H112677   0.668   0.794   4.772
 4145WAT     H212678   0.689   0.943   4.709
 4146WAT      O12679   0.690   9.020   4.022
 4146WAT     H112680   0.776   8.970   4.011
 4146WAT     H212681   0.703   9.093   4.089
 4147WAT      O12682   3.905   0.010   9.580
 4147WAT     H112683   3.879  -0.027   9.491
 4147WAT     H212684   3.995  -0.025   9.605
 4148WAT      O12685   1.037   7.309   0.668
 4148WAT     H112686   1.040   7.211   0.650
 4148WAT     H212687   0.989   7.355   0.593
 4149WAT      O12688   7.276   7.772   5.287
 4149WAT     H112689   7.276   7.869   5.263
 4149WAT     H212690   7.292   7.718   5.204
 4150WAT      O12691   1.828   4.708   9.003
 4150WAT     H112692   1.899   4.646   9.037
 4150WAT     H212693   1.760   4.657   8.952
 4151WAT      O12694   2.117   7.684   6.918
 4151WAT     H112695   2.161   7.771   6.898
 4151WAT     H212696   2.186   7.614   6.938
 4152WAT      O12697   3.257   7.875   1.156
 4152WAT     H112698   3.309   7.959   1.170
 4152WAT     H212699   3.321   7.801   1.134
 4153WAT      O12700   5.871   2.491   2.028
 4153WAT     H112701   5.775   2.473   2.010
 4153WAT     H212702   5.917   2.406   2.051
 4154WAT      O12703   3.983   9.146   6.314
 4154WAT     H112704   3.984   9.145   6.414
 4154WAT     H212705   3.902   9.196   6.283
 4155WAT      O12706   7.092   5.772   0.348
 4155WAT     H112707   7.083   5.807   0.255
 4155WAT     H212708   7.145   5.837   0.403
 4156WAT      O12709   8.820   2.413   6.434
 4156WAT     H112710   8.874   2.330   6.446
 4156WAT     H212711   8.737   2.408   6.490
 4157WAT      O12712   8.511   6.279   0.357
 4157WAT     H112713   8.601   6.289   0.400
 4157WAT     H212714   8.522   6.259   0.260
 4158WAT      O12715   1.647   8.128   4.020
 4158WAT     H112716   1.680   8.043   4.061
 4158WAT     H212717   1.552   8.117   3.991
 4159WAT      O12718   0.189   0.724   1.030
 4159WAT     H112719   0.165   0.819   1.049
 4159WAT     H212720   0.123   0.685   0.966
 4160WAT      O12721   8.476   7.674   7.075
 4160WAT     H112722   8.508   7.742   7.141
 4160WAT     H212723   8.392   7.706   7.032
 4161WAT      O12724   3.714   5.437   5.160
 4161WAT     H112725   3.751   5.375   5.230
 4161WAT     H212726   3.674   5.383   5.086
 4162WAT      O12727   7.781   3.309   8.323
 4162WAT     H112728   7.826   3.301   8.234
 4162WAT     H212729   7.767   3.406   8.344
 4163WAT      O12730   2.638   8.907   9.866
 4163WAT     H112731   2.548   8.949   9.865
 4163WAT     H212732   2.649   8.850   9.785
 4164WAT      O12733   1.751   9.592   2.055
 4164WAT     H112734   1.670   9.565   2.106
 4164WAT     H212735   1.737   9.683   2.015
 4165WAT      O12736   7.744   3.204   9.301
 4165WAT     H112737   7.671   3.236   9.360
 4165WAT     H212738   7.759   3.270   9.227
 4166WAT      O12739   7.901   3.292   1.859
 4166WAT     H112740   7.897   3.385   1.822
 4166WAT     H212741   7.850   3.231   1.799
 4167WAT      O12742   3.975   0.476   7.277
 4167WAT     H112743   3.937   0.523   7.358
 4167WAT     H212744   3.975   0.377   7.293
 4168WAT      O12745   2.953   9.690   4.782
 4168WAT     H112746   2.887   9.759   4.751
 4168WAT     H212747   2.960   9.617   4.715
 4169WAT      O12748   9.081   7.287   9.738
 4169WAT     H112749   9.105   7.217   9.671
 4169WAT     H212750   9.034   7.362   9.692
 4170WAT      O12751   1.064   3.055   1.143
 4170WAT     H112752   0.965   3.066   1.153
 4170WAT     H212753   1.082   2.981   1.078
 4171WAT      O12754   6.986   0.893   3.241
 4171WAT     H112755   6.889   0.885   3.263
 4171WAT     H212756   7.028   0.802   3.238
 4172WAT      O12757   2.831   0.054   3.399
 4172WAT     H112758   2.747   0.056   3.345
 4172WAT     H212759   2.845  -0.038   3.435
 4173WAT      O12760   5.143   0.354   9.453
 4173WAT     H112761   5.106   0.300   9.377
 4173WAT     H212762   5.082   0.433   9.469
 4174WAT      O12763   3.555   5.259   9.301
 4174WAT     H112764   3.543   5.180   9.242
 4174WAT     H212765   3.478   5.266   9.364
 4175WAT      O12766   8.119   7.334   5.263
 4175WAT     H112767   8.051   7.407   5.254
 4175WAT     H212768   8.189   7.362   5.329
 4176WAT      O12769   5.414   6.389   8.571
 4176WAT     H112770   5.430   6.420   8.665
 4176WAT     H212771   5.316   6.387   8.552
 4177WAT      O12772   0.218   2.748   4.985
 4177WAT     H112773   0.288   2.702   4.929
 4177WAT     H212774   0.250   2.755   5.079
 4178WAT      O12775   4.489   5.241   9.099
 4178WAT     H112776   4.528   5.316   9.044
 4178WAT     H212777   4.451   5.172   9.038
 4179WAT      O12778   0.913   1.151   3.983
 4179WAT     H112779   0.819   1.150   4.018
 4179WAT     H212780   0.916   1.203   3.897
 4180WAT      O12781   4.999   4.707   7.048
 4180WAT     H112782   5.015   4.803   7.071
 4180WAT     H212783   5.000   4.651   7.131
 4181WAT      O12784   6.251   1.446   3.496
 4181WAT     H112785   6.163   1.400   3.500
 4181WAT     H212786   6.237   1.543   3.477
 4182WAT      O12787   2.249   8.861   7.339
 4182WAT     H112788   2.182   8.934   7.351
 4182WAT     H212789   2.317   8.867   7.411
 4183WAT      O12790   6.618   9.756   7.269
 4183WAT     H112791   6.707   9.777   7.310
 4183WAT     H212792   6.600   9.820   7.194
 4184WAT      O12793   7.745   6.804   1.119
 4184WAT     H112794   7.702   6.760   1.040
 4184WAT     H212795   7.778   6.895   1.094
 4185WAT      O12796   0.322   6.695   0.322
 4185WAT     H112797   0.312   6.596   0.332
 4185WAT     H212798   0.418   6.717   0.306
 4186WAT      O12799   3.111   2.365   5.905
 4186WAT     H112800   3.017   2.395   5.890
 4186WAT     H212801   3.146   2.406   5.988
 4187WAT      O12802   8.688   2.680   6.710
 4187WAT     H112803   8.742   2.764   6.701
 4187WAT     H212804   8.591   2.703   6.699
 4188WAT      O12805   6.759   0.796   6.634
 4188WAT     H112806   6.762   0.727   6.561
 4188WAT     H212807   6.671   0.844   6.631
 4189WAT      O12808   2.550   9.587   3.573
 4189WAT     H112809   2.646   9.603   3.597
 4189WAT     H212810   2.540   9.594   3.474
 4190WAT      O12811   6.287   7.297   6.884
 4190WAT     H112812   6.274   7.394   6.906
 4190WAT     H212813   6.359   7.259   6.943
 4191WAT      O12814   3.217   6.330   7.517
 4191WAT     H112815   3.271   6.330   7.601
 4191WAT     H212816   3.266   6.280   7.446
 4192WAT      O12817   2.060   6.357   6.362
 4192WAT     H112818   2.123   6.302   6.417
 4192WAT     H212819   2.105   6.387   6.278
 4193WAT      O12820   5.954   2.899   6.744
 4193WAT     H112821   6.024   2.908   6.816
 4193WAT     H212822   5.871   2.860   6.783
 4194WAT      O12823   3.785   7.757   6.681
 4194WAT     H112824   3.818   7.768   6.588
 4194WAT     H212825   3.696   7.712   6.680
 4195WAT      O12826   9.647   5.308   0.871
 4195WAT     H112827   9.719   5.248   0.908
 4195WAT     H212828   9.600   5.262   0.796
 4196WAT      O12829   4.209   0.241   0.328
 4196WAT     H112830   4.279   0.299   0.286
 4196WAT     H212831   4.229   0.145   0.307
 4197WAT      O12832   7.517   8.074   5.592
 4197WAT     H112833   7.595   8.062   5.653
 4197WAT     H212834   7.546   8.121   5.509
 4198WAT      O12835   6.200   9.772   0.311
 4198WAT     H112836   6.280   9.774   0.372
 4198WAT     H212837   6.155   9.861   0.313
 4199WAT      O12838   2.739   4.222   1.515
 4199WAT     H112839   2.653   4.196   1.471
 4199WAT     H212840   2.815   4.175   1.471
 4200WAT      O12841   9.021   4.620   8.829
 4200WAT     H112842   9.016   4.699   8.891
 4200WAT     H212843   8.935   4.568   8.835
 4201WAT      O12844   9.039   2.700   2.265
 4201WAT     H112845   9.032   2.731   2.170
 4201WAT     H212846   9.136   2.688   2.289
 4202WAT      O12847   3.448   1.383   3.481
 4202WAT     H112848   3.491   1.338   3.403
 4202WAT     H212849   3.404   1.315   3.540
 4203WAT      O12850   0.866   1.803   9.188
 4203WAT     H112851   0.786   1.743   9.180
 4203WAT     H212852   0.871   1.862   9.107
 4204WAT      O12853   7.548   4.745   9.485
 4204WAT     H112854   7.623   4.811   9.491
 4204WAT     H212855   7.470   4.778   9.539
 4205WAT      O12856   7.162   4.641   5.301
 4205WAT     H112857   7.174   4.664   5.204
 4205WAT     H212858   7.164   4.542   5.312
 4206WAT      O12859   0.880   5.808   8.283
 4206WAT     H112860   0.808   5.759   8.235
 4206WAT     H212861   0.840   5.881   8.339
 4207WAT      O12862   6.043   2.869   5.369
 4207WAT     H112863   5.950   2.841   5.345
 4207WAT     H212864   6.101   2.788   5.379
 4208WAT      O12865   3.753   9.721   6.157
 4208WAT     H112866   3.817   9.645   6.165
 4208WAT     H212867   3.660   9.686   6.152
 4209WAT      O12868   5.381   4.516   6.350
 4209WAT     H112869   5.416   4.431   6.313
 4209WAT     H212870   5.282   4.520   6.337
 4210WAT      O12871   2.853   5.255   6.527
 4210WAT     H112872   2.796   5.246   6.445
 4210WAT     H212873   2.946   5.227   6.505
 4211WAT      O12874   2.278   7.102   7.262
 4211WAT     H112875   2.285   7.025   7.326
 4211WAT     H212876   2.369   7.144   7.250
 4212WAT      O12877   4.585   6.938   1.788
 4212WAT     H112878   4.561   7.029   1.753
 4212WAT     H212879   4.563   6.933   1.885
 4213WAT      O12880   0.824   1.651   6.847
 4213WAT     H112881   0.894   1.592   6.887
 4213WAT     H212882   0.772   1.598   6.779
 4214WAT      O12883   8.623   6.877   0.212
 4214WAT     H112884   8.560   6.820   0.159
 4214WAT     H212885   8.591   6.971   0.211
 4215WAT      O12886   3.794   5.070   2.722
 4215WAT     H112887   3.883   5.092   2.762
 4215WAT     H212888   3.766   5.143   2.660
 4216WAT      O12889   7.739   0.663   6.331
 4216WAT     H112890   7.806   0.696   6.265
 4216WAT     H212891   7.752   0.711   6.418
 4217WAT      O12892   1.098   5.147   8.680
 4217WAT     H112893   1.066   5.198   8.759
 4217WAT     H212894   1.198   5.148   8.678
 4218WAT      O12895   7.202   2.086   7.755
 4218WAT     H112896   7.224   2.004   7.702
 4218WAT     H212897   7.192   2.164   7.693
 4219WAT      O12898   9.005   5.118   8.548
 4219WAT     H112899   9.009   5.024   8.581
 4219WAT     H212900   8.920   5.160   8.579
 4220WAT      O12901   5.251   1.789   9.233
 4220WAT     H112902   5.316   1.850   9.278
 4220WAT     H212903   5.159   1.829   9.236
 4221WAT      O12904   9.397   1.582   0.760
 4221WAT     H112905   9.415   1.549   0.853
 4221WAT     H212906   9.403   1.682   0.759
 4222WAT      O12907   9.743   3.631   8.994
 4222WAT     H112908   9.775   3.562   8.929
 4222WAT     H212909   9.735   3.719   8.948
 4223WAT      O12910   1.316   4.886   2.568
 4223WAT     H112911   1.344   4.815   2.633
 4223WAT     H212912   1.284   4.842   2.484
 4224WAT      O12913   7.999   7.642   2.582
 4224WAT     H112914   8.026   7.588   2.662
 4224WAT     H212915   8.079   7.662   2.526
 4225WAT      O12916   9.525   5.018   8.603
 4225WAT     H112917   9.436   5.062   8.620
 4225WAT     H212918   9.598   5.081   8.628
 4226WAT      O12919   1.650   3.176   5.702
 4226WAT     H112920   1.668   3.158   5.606
 4226WAT     H212921   1.737   3.185   5.751
 4227WAT      O12922   2.191   6.960   0.228
 4227WAT     H112923   2.195   6.935   0.325
 4227WAT     H212924   2.165   6.881   0.174
 4228WAT      O12925   7.665   3.588   3.646
 4228WAT     H112926   7.716   3.605   3.561
 4228WAT     H212927   7.599   3.661   3.660
 4229WAT      O12928   3.081   2.321   5.316
 4229WAT     H112929   3.076   2.407   5.368
 4229WAT     H212930   3.090   2.342   5.219
 4230WAT      O12931   3.549   9.499   3.490
 4230WAT     H112932   3.483   9.562   3.449
 4230WAT     H212933   3.555   9.516   3.589
 4231WAT      O12934   8.260   7.197   8.779
 4231WAT     H112935   8.206   7.215   8.861
 4231WAT     H212936   8.357   7.214   8.798
 4232WAT      O12937   1.288   7.336   0.779
 4232WAT     H112938   1.333   7.397   0.713
 4232WAT     H212939   1.189   7.339   0.765
 4233WAT      O12940   8.711   0.890   8.907
 4233WAT     H112941   8.612   0.904   8.911
 4233WAT     H212942   8.741   0.894   8.811
 4234WAT      O12943   5.886   0.962   6.287
 4234WAT     H112944   5.918   0.988   6.378
 4234WAT     H212945   5.795   1.001   6.272
 4235WAT      O12946   1.556   7.205   5.628
 4235WAT     H112947   1.629   7.138   5.623
 4235WAT     H212948   1.576   7.271   5.701
 4236WAT      O12949   1.277   1.064   2.160
 4236WAT     H112950   1.284   1.042   2.257
 4236WAT     H212951   1.196   1.121   2.145
 4237WAT      O12952   4.746   1.536   8.709
 4237WAT     H112953   4.787   1.608   8.764
 4237WAT     H212954   4.776   1.446   8.742
 4238WAT      O12955   3.290   0.474   2.853
 4238WAT     H112956   3.319   0.382   2.878
 4238WAT     H212957   3.367   0.537   2.863
 4239WAT      O12958   8.978   7.079   6.792
 4239WAT     H112959   8.922   7.074   6.709
 4239WAT     H212960   8.951   7.005   6.855
 4240WAT      O12961   6.249   6.200   3.915
 4240WAT     H112962   6.187   6.124   3.895
 4240WAT     H212963   6.277   6.244   3.829
 4241WAT      O12964   5.864   1.617   6.313
 4241WAT     H112965   5.776   1.608   6.360
 4241WAT     H212966   5.884   1.532   6.264
 4242WAT      O12967   7.037   3.617   9.738
 4242WAT     H112968   6.944   3.585   9.719
 4242WAT     H212969   7.036   3.674   9.821
 4243WAT      O12970   7.918   2.156   1.781
 4243WAT     H112971   7.980   2.185   1.854
 4243WAT     H212972   7.875   2.236   1.740
 4244WAT      O12973   1.208   9.556   8.188
 4244WAT     H112974   1.223   9.505   8.273
 4244WAT     H212975   1.251   9.507   8.112
 4245WAT      O12976   0.372   3.622   9.343
 4245WAT     H112977   0.307   3.649   9.272
 4245WAT     H212978   0.453   3.582   9.301
 4246WAT      O12979   5.980   9.282   6.250
 4246WAT     H112980   5.902   9.335   6.217
 4246WAT     H212981   6.061   9.341   6.255
 4247WAT      O12982   0.199   3.432   8.089
 4247WAT     H112983   0.114   3.384   8.113
 4247WAT     H212984   0.177   3.519   8.046
 4248WAT      O12985   2.152   0.974   5.706
 4248WAT     H112986   2.233   0.918   5.688
 4248WAT     H212987   2.166   1.066   5.669
 4249WAT      O12988   8.347   4.758   9.506
 4249WAT     H112989   8.252   4.785   9.519
 4249WAT     H212990   8.352   4.683   9.440
 4250WAT      O12991   2.782   5.869   1.342
 4250WAT     H112992   2.702   5.869   1.403
 4250WAT     H212993   2.779   5.787   1.284
 4251WAT      O12994   2.368   0.817   8.985
 4251WAT     H112995   2.448   0.869   8.955
 4251WAT     H212996   2.342   0.847   9.077
 4252WAT      O12997   8.052   8.496   4.847
 4252WAT     H112998   8.105   8.425   4.894
 4252WAT     H212999   8.115   8.563   4.808
 4253WAT      O13000   0.849   6.643   7.480
 4253WAT     H113001   0.891   6.564   7.434
 4253WAT     H213002   0.875   6.727   7.432
 4254WAT      O13003   5.548   9.630   4.724
 4254WAT     H113004   5.629   9.594   4.770
 4254WAT     H213005   5.554   9.730   4.720
 4255WAT      O13006   7.445   9.207   2.608
 4255WAT     H113007   7.519   9.244   2.551
 4255WAT     H213008   7.478   9.125   2.656
 4256WAT      O13009   4.670   0.887   9.395
 4256WAT     H113010   4.748   0.886   9.458
 4256WAT     H213011   4.694   0.836   9.313
 4257WAT      O13012   6.624   4.895   8.262
 4257WAT     H113013   6.674   4.822   8.216
 4257WAT     H213014   6.600   4.966   8.196
 4258WAT      O13015   4.551   1.108   4.353
 4258WAT     H113016   4.647   1.108   4.379
 4258WAT     H213017   4.532   1.030   4.294
 4259WAT      O13018   9.218   9.612   4.176
 4259WAT     H113019   9.183   9.690   4.227
 4259WAT     H213020   9.318   9.619   4.169
 4260WAT      O13021   9.042   1.727   9.544
 4260WAT     H113022   9.001   1.647   9.498
 4260WAT     H213023   8.990   1.809   9.519
 4261WAT      O13024   7.414   6.826   1.552
 4261WAT     H113025   7.417   6.856   1.648
 4261WAT     H213026   7.350   6.750   1.543
 4262WAT      O13027   7.492   0.241   0.297
 4262WAT     H113028   7.585   0.240   0.261
 4262WAT     H213029   7.494   0.261   0.395
 4263WAT      O13030   2.464   6.235   8.316
 4263WAT     H113031   2.383   6.230   8.375
 4263WAT     H213032   2.512   6.148   8.318
 4264WAT      O13033   6.389   2.515   6.928
 4264WAT     H113034   6.444   2.551   7.003
 4264WAT     H213035   6.446   2.456   6.871
 4265WAT      O13036   2.434   9.328   2.876
 4265WAT     H113037   2.426   9.283   2.787
 4265WAT     H213038   2.371   9.406   2.880
 4266WAT      O13039   1.895   5.302   7.678
 4266WAT     H113040   1.957   5.361   7.731
 4266WAT     H213041   1.801   5.316   7.709
 4267WAT      O13042   0.772   6.524   5.453
 4267WAT     H113043   0.814   6.604   5.497
 4267WAT     H213044   0.703   6.486   5.514
 4268WAT      O13045   3.628   3.782   4.309
 4268WAT     H113046   3.630   3.881   4.322
 4268WAT     H213047   3.585   3.739   4.388
 4269WAT      O13048   3.804   6.816   5.871
 4269WAT     H113049   3.707   6.806   5.893
 4269WAT     H213050   3.820   6.789   5.776
 4270WAT      O13051   0.261   8.289   7.855
 4270WAT     H113052   0.348   8.297   7.904
 4270WAT     H213053   0.186   8.311   7.917
 4271WAT      O13054   3.366   7.995   4.493
 4271WAT     H113055   3.410   8.077   4.529
 4271WAT     H213056   3.401   7.975   4.402
 4272WAT      O13057   8.802   2.296   3.816
 4272WAT     H113058   8.848   2.383   3.833
 4272WAT     H213059   8.759   2.299   3.726
 4273WAT      O13060   4.539   1.152   2.675
 4273WAT     H113061   4.535   1.052   2.669
 4273WAT     H213062   4.450   1.187   2.704
 4274WAT      O13063   7.849   5.136   4.540
 4274WAT     H113064   7.862   5.055   4.482
 4274WAT     H213065   7.911   5.208   4.509
 4275WAT      O13066   5.447   8.805   5.735
 4275WAT     H113067   5.481   8.803   5.829
 4275WAT     H213068   5.498   8.740   5.680
 4276WAT      O13069   1.516   0.379   6.554
 4276WAT     H113070   1.603   0.401   6.598
 4276WAT     H213071   1.529   0.368   6.456
 4277WAT      O13072   3.356   7.760   2.135
 4277WAT     H113073   3.344   7.857   2.112
 4277WAT     H213074   3.269   7.712   2.123
 4278WAT      O13075   5.352   4.934   4.642
 4278WAT     H113076   5.391   4.844   4.621
 4278WAT     H213077   5.254   4.924   4.662
 4279WAT      O13078   4.904   7.928   7.522
 4279WAT     H113079   4.904   7.838   7.478
 4279WAT     H213080   4.810   7.954   7.544
 4280WAT      O13081   1.900   2.872   4.728
 4280WAT     H113082   1.833   2.934   4.687
 4280WAT     H213083   1.959   2.923   4.790
 4281WAT      O13084   5.736   1.296   0.433
 4281WAT     H113085   5.669   1.294   0.358
 4281WAT     H213086   5.697   1.251   0.513
 4282WAT      O13087   1.272   7.989   5.813
 4282WAT     H113088   1.230   7.900   5.835
 4282WAT     H213089   1.370   7.984   5.828
 4283WAT      O13090   3.878   4.631   9.125
 4283WAT     H113091   3.885   4.730   9.117
 4283WAT     H213092   3.853   4.606   9.218
 4284WAT      O13093   9.663   9.121   8.033
 4284WAT     H113094   9.731   9.050   8.055
 4284WAT     H213095   9.614   9.146   8.117
 4285WAT      O13096   4.241   0.538   1.486
 4285WAT     H113097   4.211   0.543   1.581
 4285WAT     H213098   4.315   0.603   1.471
 4286WAT      O13099   3.749   8.842   7.700
 4286WAT     H113100   3.767   8.852   7.797
 4286WAT     H213101   3.791   8.918   7.650
 4287WAT      O13102   2.658   0.525   8.498
 4287WAT     H113103   2.568   0.530   8.456
 4287WAT     H213104   2.679   0.611   8.544
 4288WAT      O13105   3.242   5.224   0.157
 4288WAT     H113106   3.278   5.141   0.114
 4288WAT     H213107   3.316   5.270   0.208
 4289WAT      O13108   1.570   8.566   9.482
 4289WAT     H113109   1.601   8.658   9.462
 4289WAT     H213110   1.604   8.503   9.412
 4290WAT      O13111   4.028   2.359   0.312
 4290WAT     H113112   3.966   2.287   0.342
 4290WAT     H213113   3.981   2.420   0.247
 4291WAT      O13114   5.411   2.050   2.760
 4291WAT     H113115   5.508   2.040   2.778
 4291WAT     H213116   5.395   2.050   2.661
 4292WAT      O13117   7.778   1.271   7.365
 4292WAT     H113118   7.842   1.332   7.319
 4292WAT     H213119   7.687   1.281   7.323
 4293WAT      O13120   2.055   0.382   6.372
 4293WAT     H113121   1.991   0.306   6.379
 4293WAT     H213122   2.033   0.438   6.292
 4294WAT      O13123   8.419   9.049   8.851
 4294WAT     H113124   8.353   8.993   8.901
 4294WAT     H213125   8.506   9.050   8.899
 4295WAT      O13126   8.413   7.159   1.542
 4295WAT     H113127   8.435   7.088   1.609
 4295WAT     H213128   8.315   7.157   1.522
 4296WAT      O13129   9.842   1.810   5.267
 4296WAT     H113130   9.792   1.884   5.312
 4296WAT     H213131   9.896   1.846   5.191
 4297WAT      O13132   8.155   0.828   4.292
 4297WAT     H113133   8.086   0.900   4.299
 4297WAT     H213134   8.182   0.818   4.196
 4298WAT      O13135   6.335   9.078   2.455
 4298WAT     H113136   6.405   9.007   2.464
 4298WAT     H213137   6.318   9.120   2.544
 4299WAT      O13138   5.411   3.383   8.571
 4299WAT     H113139   5.492   3.327   8.555
 4299WAT     H213140   5.437   3.480   8.572
 4300WAT      O13141   3.220   7.766   6.789
 4300WAT     H113142   3.217   7.817   6.875
 4300WAT     H213143   3.244   7.670   6.808
 4301WAT      O13144   4.019   5.671   5.244
 4301WAT     H113145   3.985   5.747   5.190
 4301WAT     H213146   3.945   5.631   5.298
 4302WAT      O13147   6.916   1.511   3.260
 4302WAT     H113148   6.998   1.478   3.213
 4302WAT     H213149   6.923   1.492   3.358
 4303WAT      O13150   0.424   3.292   5.426
 4303WAT     H113151   0.362   3.257   5.497
 4303WAT     H213152   0.389   3.268   5.336
 4304WAT      O13153   4.490   7.215   6.322
 4304WAT     H113154   4.558   7.276   6.362
 4304WAT     H213155   4.429   7.268   6.264
 4305WAT      O13156   3.290   2.341   2.556
 4305WAT     H113157   3.353   2.418   2.547
 4305WAT     H213158   3.197   2.375   2.573
 4306WAT      O13159   4.016   2.988   7.795
 4306WAT     H113160   3.929   2.953   7.829
 4306WAT     H213161   4.074   2.911   7.769
 4307WAT      O13162   8.622   8.917   9.281
 4307WAT     H113163   8.546   8.982   9.285
 4307WAT     H213164   8.663   8.919   9.189
 4308WAT      O13165   9.759   4.766   3.504
 4308WAT     H113166   9.852   4.789   3.531
 4308WAT     H213167   9.705   4.743   3.585
 4309WAT      O13168   6.473   0.286   6.213
 4309WAT     H113169   6.506   0.232   6.135
 4309WAT     H213170   6.515   0.251   6.297
 4310WAT      O13171   2.992   2.581   6.667
 4310WAT     H113172   3.030   2.569   6.576
 4310WAT     H213173   2.899   2.618   6.659
 4311WAT      O13174   3.722   5.534   8.316
 4311WAT     H113175   3.778   5.452   8.331
 4311WAT     H213176   3.637   5.525   8.368
 4312WAT      O13177   8.611   8.267   7.774
 4312WAT     H113178   8.538   8.329   7.746
 4312WAT     H213179   8.643   8.292   7.865
 4313WAT      O13180   8.897   2.489   6.882
 4313WAT     H113181   8.903   2.391   6.900
 4313WAT     H213182   8.977   2.518   6.830
 4314WAT      O13183   4.194   5.539   6.805
 4314WAT     H113184   4.147   5.541   6.893
 4314WAT     H213185   4.253   5.459   6.800
 4315WAT      O13186   2.048   1.567   4.805
 4315WAT     H113187   2.047   1.648   4.747
 4315WAT     H213188   2.125   1.508   4.779
 4316WAT      O13189   3.152   4.718   6.654
 4316WAT     H113190   3.204   4.724   6.739
 4316WAT     H213191   3.117   4.625   6.642
 4317WAT      O13192   4.953   0.261   0.381
 4317WAT     H113193   5.018   0.281   0.307
 4317WAT     H213194   4.922   0.347   0.422
 4318WAT      O13195   2.266   5.755   2.575
 4318WAT     H113196   2.196   5.717   2.635
 4318WAT     H213197   2.312   5.681   2.526
 4319WAT      O13198   0.354   5.639   2.903
 4319WAT     H113199   0.260   5.619   2.932
 4319WAT     H213200   0.410   5.656   2.984
 4320WAT      O13201   6.897   3.787   1.010
 4320WAT     H113202   6.939   3.696   0.999
 4320WAT     H213203   6.875   3.802   1.106
 4321WAT      O13204   1.131   9.733   5.002
 4321WAT     H113205   1.191   9.671   4.952
 4321WAT     H213206   1.077   9.786   4.936
 4322WAT      O13207   3.147   5.629   8.961
 4322WAT     H113208   3.193   5.716   8.978
 4322WAT     H213209   3.112   5.592   9.047
 4323WAT      O13210   9.361   1.408   6.657
 4323WAT     H113211   9.453   1.376   6.637
 4323WAT     H213212   9.365   1.500   6.695
 4324WAT      O13213   8.479   8.829   5.389
 4324WAT     H113214   8.477   8.879   5.302
 4324WAT     H213215   8.511   8.889   5.461
 4325WAT      O13216   6.737   1.887   8.657
 4325WAT     H113217   6.676   1.957   8.695
 4325WAT     H213218   6.733   1.890   8.557
 4326WAT      O13219   7.250   2.639   4.447
 4326WAT     H113220   7.276   2.618   4.353
 4326WAT     H213221   7.155   2.668   4.450
 4327WAT      O13222   6.644   9.047   6.477
 4327WAT     H113223   6.661   8.957   6.518
 4327WAT     H213224   6.614   9.111   6.549
 4328WAT      O13225   4.526   6.568   5.346
 4328WAT     H113226   4.488   6.526   5.264
 4328WAT     H213227   4.625   6.576   5.337
 4329WAT      O13228   8.283   5.509   7.962
 4329WAT     H113229   8.312   5.414   7.972
 4329WAT     H213230   8.226   5.534   8.040
 4330WAT      O13231   0.444   5.136   0.136
 4330WAT     H113232   0.385   5.055   0.140
 4330WAT     H213233   0.398   5.208   0.085
 4331WAT      O13234   6.851   8.307   9.591
 4331WAT     H113235   6.916   8.233   9.608
 4331WAT     H213236   6.782   8.276   9.525
 4332WAT      O13237   3.944   5.381   9.277
 4332WAT     H113238   3.971   5.467   9.233
 4332WAT     H213239   3.886   5.401   9.357
 4333WAT      O13240   4.858   5.826   8.808
 4333WAT     H113241   4.883   5.737   8.846
 4333WAT     H213242   4.840   5.890   8.883
 4334WAT      O13243   6.476   1.246   2.630
 4334WAT     H113244   6.492   1.184   2.706
 4334WAT     H213245   6.393   1.300   2.647
 4335WAT      O13246   8.265   3.871   6.336
 4335WAT     H113247   8.200   3.918   6.396
 4335WAT     H213248   8.282   3.779   6.371
 4336WAT      O13249   6.349   0.061   6.440
 4336WAT     H113250   6.410   0.033   6.514
 4336WAT     H213251   6.355   0.161   6.428
 4337WAT      O13252   9.772   5.400   5.024
 4337WAT     H113253   9.858   5.449   5.008
 4337WAT     H213254   9.744   5.354   4.941
 4338WAT      O13255   1.723   4.876   9.186
 4338WAT     H113256   1.721   4.812   9.109
 4338WAT     H213257   1.726   4.970   9.151
 4339WAT      O13258   2.040   0.010   8.810
 4339WAT     H113259   2.006  -0.060   8.748
 4339WAT     H213260   2.105   0.069   8.763
 4340WAT      O13261   7.513   4.495   7.755
 4340WAT     H113262   7.426   4.502   7.705
 4340WAT     H213263   7.526   4.400   7.783
 4341WAT      O13264   8.596   3.627   0.664
 4341WAT     H113265   8.691   3.596   0.655
 4341WAT     H213266   8.535   3.557   0.627
 4342WAT      O13267   3.674   9.572   1.522
 4342WAT     H113268   3.725   9.488   1.503
 4342WAT     H213269   3.576   9.556   1.504
 4343WAT      O13270   5.678   7.281   0.386
 4343WAT     H113271   5.757   7.225   0.411
 4343WAT     H213272   5.705   7.378   0.388
 4344WAT      O13273   7.840   9.511   6.147
 4344WAT     H113274   7.835   9.599   6.100
 4344WAT     H213275   7.761   9.503   6.209
 4345WAT      O13276   2.985   0.744   6.631
 4345WAT     H113277   3.040   0.811   6.582
 4345WAT     H213278   3.036   0.710   6.710
 4346WAT      O13279   7.672   8.855   3.875
 4346WAT     H113280   7.764   8.815   3.874
 4346WAT     H213281   7.610   8.793   3.924
 4347WAT      O13282   0.469   6.558   1.012
 4347WAT     H113283   0.448   6.655   1.010
 4347WAT     H213284   0.485   6.526   0.918
 4348WAT      O13285   0.012   2.988   4.507
 4348WAT     H113286  -0.082   2.955   4.515
 4348WAT     H213287   0.025   3.034   4.419
 4349WAT      O13288   7.469   3.876   1.049
 4349WAT     H113289   7.475   3.938   0.971
 4349WAT     H213290   7.557   3.874   1.098
 4350WAT      O13291   8.800   0.155   1.454
 4350WAT     H113292   8.779   0.215   1.531
 4350WAT     H213293   8.772   0.200   1.369
 4351WAT      O13294   4.341   8.753   9.310
 4351WAT     H113295   4.251   8.741   9.268
 4351WAT     H213296   4.412   8.747   9.240
 4352WAT      O13297   0.883   6.805   3.079
 4352WAT     H113298   0.813   6.799   3.008
 4352WAT     H213299   0.898   6.714   3.118
 4353WAT      O13300   1.106   4.596   6.250
 4353WAT     H113301   1.058   4.620   6.334
 4353WAT     H213302   1.124   4.679   6.197
 4354WAT      O13303   9.259   8.343   4.633
 4354WAT     H113304   9.296   8.371   4.722
 4354WAT     H213305   9.277   8.414   4.566
 4355WAT      O13306   5.786   9.413   7.772
 4355WAT     H113307   5.708   9.361   7.807
 4355WAT     H213308   5.871   9.367   7.798
 4356WAT      O13309   7.819   0.376   2.258
 4356WAT     H113310   7.807   0.339   2.351
 4356WAT     H213311   7.843   0.301   2.196
 4357WAT      O13312   1.247   4.719   8.084
 4357WAT     H113313   1.253   4.620   8.091
 4357WAT     H213314   1.242   4.745   7.987
 4358WAT      O13315   1.564   9.199   1.284
 4358WAT     H113316   1.661   9.176   1.285
 4358WAT     H213317   1.534   9.221   1.377
 4359WAT      O13318   2.860   0.365   7.875
 4359WAT     H113319   2.862   0.462   7.900
 4359WAT     H213320   2.912   0.352   7.790
 4360WAT      O13321   7.484   1.257   7.717
 4360WAT     H113322   7.568   1.306   7.740
 4360WAT     H213323   7.508   1.173   7.668
 4361WAT      O13324   6.584   9.523   7.499
 4361WAT     H113325   6.598   9.553   7.405
 4361WAT     H213326   6.653   9.565   7.558
 4362WAT      O13327   8.050   6.836   7.831
 4362WAT     H113328   7.965   6.862   7.876
 4362WAT     H213329   8.125   6.893   7.866
 4363WAT      O13330   7.667   1.761   9.112
 4363WAT     H113331   7.652   1.722   9.204
 4363WAT     H213332   7.581   1.758   9.061
 4364WAT      O13333   9.081   5.704   9.640
 4364WAT     H113334   9.122   5.618   9.670
 4364WAT     H213335   9.019   5.738   9.711
 4365WAT      O13336   3.556   4.352   0.648
 4365WAT     H113337   3.608   4.427   0.689
 4365WAT     H213338   3.461   4.357   0.678
 4366WAT      O13339   2.442   8.420   1.255
 4366WAT     H113340   2.516   8.481   1.283
 4366WAT     H213341   2.436   8.420   1.155
 4367WAT      O13342   8.663   6.479   3.825
 4367WAT     H113343   8.564   6.489   3.830
 4367WAT     H213344   8.701   6.548   3.763
 4368WAT      O13345   8.085   1.691   3.861
 4368WAT     H113346   7.990   1.667   3.879
 4368WAT     H213347   8.105   1.678   3.764
 4369WAT      O13348   7.543   6.836   2.731
 4369WAT     H113349   7.490   6.789   2.661
 4369WAT     H213350   7.639   6.842   2.701
 4370WAT      O13351   8.275   0.986   9.407
 4370WAT     H113352   8.227   0.933   9.337
 4370WAT     H213353   8.365   1.011   9.373
 4371WAT      O13354   8.511   1.194   3.451
 4371WAT     H113355   8.475   1.110   3.492
 4371WAT     H213356   8.571   1.170   3.375
 4372WAT      O13357   7.030   9.089   4.144
 4372WAT     H113358   6.967   9.147   4.194
 4372WAT     H213359   7.115   9.077   4.196
 4373WAT      O13360   1.166   7.926   8.310
 4373WAT     H113361   1.177   7.867   8.389
 4373WAT     H213362   1.237   7.997   8.312
 4374WAT      O13363   1.650   3.917   9.603
 4374WAT     H113364   1.650   4.009   9.642
 4374WAT     H213365   1.614   3.920   9.510
 4375WAT      O13366   7.193   1.129   8.680
 4375WAT     H113367   7.245   1.045   8.699
 4375WAT     H213368   7.164   1.170   8.766
 4376WAT      O13369   4.173   1.630   4.904
 4376WAT     H113370   4.187   1.719   4.860
 4376WAT     H213371   4.229   1.625   4.987
 4377WAT      O13372   6.429   6.931   0.360
 4377WAT     H113373   6.373   6.982   0.295
 4377WAT     H213374   6.408   6.833   0.353
 4378WAT      O13375   4.703   0.247   9.168
 4378WAT     H113376   4.633   0.234   9.097
 4378WAT     H213377   4.794   0.241   9.127
 4379WAT      O13378   3.211   3.107   1.967
 4379WAT     H113379   3.221   3.121   2.065
 4379WAT     H213380   3.301   3.115   1.923
 4380WAT      O13381   8.461   0.387   1.438
 4380WAT     H113382   8.437   0.323   1.364
 4380WAT     H213383   8.511   0.465   1.399
 4381WAT      O13384   8.962   1.847   7.177
 4381WAT     H113385   8.872   1.807   7.189
 4381WAT     H213386   8.958   1.945   7.194
 4382WAT      O13387   0.603   9.049   1.026
 4382WAT     H113388   0.624   9.095   0.939
 4382WAT     H213389   0.635   8.955   1.022
 4383WAT      O13390   5.724   6.482   4.187
 4383WAT     H113391   5.747   6.562   4.242
 4383WAT     H213392   5.802   6.419   4.186
 4384WAT      O13393   0.752   7.303   3.040
 4384WAT     H113394   0.682   7.292   2.969
 4384WAT     H213395   0.779   7.213   3.074
 4385WAT      O13396   8.877   9.497   4.437
 4385WAT     H113397   8.789   9.475   4.480
 4385WAT     H213398   8.906   9.588   4.468
 4386WAT      O13399   6.990   4.260   2.401
 4386WAT     H113400   7.029   4.323   2.468
 4386WAT     H213401   6.910   4.215   2.440
 4387WAT      O13402   1.765   5.330   2.043
 4387WAT     H113403   1.675   5.307   2.004
 4387WAT     H213404   1.766   5.303   2.139
 4388WAT      O13405   0.493   0.957   8.160
 4388WAT     H113406   0.496   0.864   8.197
 4388WAT     H213407   0.583   0.999   8.169
 4389WAT      O13408   6.280   8.442   3.777
 4389WAT     H113409   6.196   8.491   3.797
 4389WAT     H213410   6.278   8.409   3.682
 4390WAT      O13411   0.746   3.554   5.931
 4390WAT     H113412   0.695   3.469   5.923
 4390WAT     H213413   0.824   3.540   5.992
 4391WAT      O13414   2.773   2.929   5.935
 4391WAT     H113415   2.828   3.012   5.944
 4391WAT     H213416   2.724   2.930   5.848
 4392WAT      O13417   2.637   6.353   6.320
 4392WAT     H113418   2.702   6.423   6.350
 4392WAT     H213419   2.668   6.314   6.233
 4393WAT      O13420   2.691   2.777   1.804
 4393WAT     H113421   2.732   2.690   1.831
 4393WAT     H213422   2.726   2.803   1.714
 4394WAT      O13423   2.361   6.156   0.142
 4394WAT     H113424   2.374   6.172   0.044
 4394WAT     H213425   2.396   6.234   0.194
 4395WAT      O13426   9.253   0.852   0.712
 4395WAT     H113427   9.269   0.805   0.798
 4395WAT     H213428   9.254   0.951   0.727
 4396WAT      O13429   0.960   2.620   2.664
 4396WAT     H113430   0.881   2.649   2.718
 4396WAT     H213431   0.990   2.530   2.694
 4397WAT      O13432   5.306   2.674   4.243
 4397WAT     H113433   5.308   2.620   4.158
 4397WAT     H213434   5.255   2.624   4.313
 4398WAT      O13435   2.895   1.313   9.612
 4398WAT     H113436   2.847   1.259   9.543
 4398WAT     H213437   2.926   1.399   9.572
 4399WAT      O13438   9.290   0.604   8.361
 4399WAT     H113439   9.359   0.649   8.304
 4399WAT     H213440   9.298   0.504   8.350
 4400WAT      O13441   5.066   3.585   0.137
 4400WAT     H113442   5.159   3.611   0.164
 4400WAT     H213443   5.067   3.545   0.046
 4401WAT      O13444   5.700   1.144   2.792
 4401WAT     H113445   5.676   1.049   2.772
 4401WAT     H213446   5.722   1.154   2.889
 4402WAT      O13447   6.550   7.403   9.182
 4402WAT     H113448   6.608   7.480   9.209
 4402WAT     H213449   6.602   7.341   9.123
 4403WAT      O13450   1.188   7.580   6.665
 4403WAT     H113451   1.115   7.573   6.732
 4403WAT     H213452   1.185   7.670   6.620
 4404WAT      O13453   0.866   3.782   6.248
 4404WAT     H113454   0.832   3.690   6.268
 4404WAT     H213455   0.965   3.783   6.258
 4405WAT      O13456   7.268   6.582   3.449
 4405WAT     H113457   7.254   6.483   3.449
 4405WAT     H213458   7.185   6.627   3.481
 4406WAT      O13459   0.418   4.889   8.675
 4406WAT     H113460   0.320   4.902   8.692
 4406WAT     H213461   0.461   4.856   8.760
 4407WAT      O13462   4.219   0.007   5.031
 4407WAT     H113463   4.200   0.033   4.936
 4407WAT     H213464   4.258   0.086   5.079
 4408WAT      O13465   1.101   3.560   0.826
 4408WAT     H113466   1.156   3.590   0.904
 4408WAT     H213467   1.159   3.511   0.761
 4409WAT      O13468   4.311   7.454   7.301
 4409WAT     H113469   4.230   7.395   7.298
 4409WAT     H213470   4.387   7.409   7.253
 4410WAT      O13471   8.042   9.826   8.741
 4410WAT     H113472   8.050   9.817   8.840
 4410WAT     H213473   7.997   9.912   8.718
 4411WAT      O13474   0.726   7.801   8.569
 4411WAT     H113475   0.731   7.709   8.530
 4411WAT     H213476   0.641   7.845   8.541
 4412WAT      O13477   5.229   3.275   8.784
 4412WAT     H113478   5.292   3.321   8.722
 4412WAT     H213479   5.238   3.176   8.774
 4413WAT      O13480   4.610   2.336   9.137
 4413WAT     H113481   4.567   2.283   9.064
 4413WAT     H213482   4.560   2.422   9.150
 4414WAT      O13483   3.138   9.325   7.930
 4414WAT     H113484   3.164   9.417   7.899
 4414WAT     H213485   3.129   9.265   7.850
 4415WAT      O13486   4.071   1.336   4.748
 4415WAT     H113487   4.031   1.396   4.817
 4415WAT     H213488   4.169   1.325   4.765
 4416WAT      O13489   3.165   3.836   3.097
 4416WAT     H113490   3.204   3.751   3.062
 4416WAT     H213491   3.100   3.816   3.169
 4417WAT      O13492   3.105   5.157   0.655
 4417WAT     H113493   3.102   5.066   0.613
 4417WAT     H213494   3.033   5.214   0.615
 4418WAT      O13495   0.999   1.194   5.857
 4418WAT     H113496   0.909   1.158   5.833
 4418WAT     H213497   1.042   1.234   5.776
 4419WAT      O13498   0.347   7.325   2.956
 4419WAT     H113499   0.349   7.418   2.991
 4419WAT     H213500   0.294   7.321   2.872
 4420WAT      O13501   1.373   2.736   7.084
 4420WAT     H113502   1.328   2.758   6.998
 4420WAT     H213503   1.304   2.719   7.154
 4421WAT      O13504   7.149   1.881   6.068
 4421WAT     H113505   7.111   1.871   5.976
 4421WAT     H213506   7.247   1.896   6.063
 4422WAT      O13507   8.633   5.231   8.047
 4422WAT     H113508   8.675   5.141   8.038
 4422WAT     H213509   8.631   5.258   8.143
 4423WAT      O13510   3.878   8.111   8.201
 4423WAT     H113511   3.897   8.141   8.108
 4423WAT     H213512   3.820   8.030   8.199
 4424WAT      O13513   8.250   7.676   6.869
 4424WAT     H113514   8.309   7.625   6.806
 4424WAT     H213515   8.187   7.734   6.817
 4425WAT      O13516   6.267   4.659   3.542
 4425WAT     H113517   6.169   4.645   3.528
 4425WAT     H213518   6.319   4.589   3.493
 4426WAT      O13519   7.114   1.314   1.117
 4426WAT     H113520   7.076   1.284   1.030
 4426WAT     H213521   7.214   1.309   1.113
 4427WAT      O13522   0.009   3.332   9.654
 4427WAT     H113523   0.021   3.386   9.737
 4427WAT     H213524  -0.023   3.391   9.580
 4428WAT      O13525   5.659   7.672   9.037
 4428WAT     H113526   5.561   7.675   9.019
 4428WAT     H213527   5.694   7.581   9.016
 4429WAT      O13528   2.652   8.973   6.510
 4429WAT     H113529   2.577   9.032   6.481
 4429WAT     H213530   2.618   8.904   6.573
 4430WAT      O13531   3.337   7.084   0.425
 4430WAT     H113532   3.418   7.143   0.417
 4430WAT     H213533   3.347   7.026   0.506
 4431WAT      O13534   7.392   1.003   2.575
 4431WAT     H113535   7.367   0.910   2.549
 4431WAT     H213536   7.457   1.040   2.509
 4432WAT      O13537   3.001   3.849   8.421
 4432WAT     H113538   2.964   3.884   8.335
 4432WAT     H213539   3.059   3.918   8.464
 4433WAT      O13540   0.715   8.920   8.162
 4433WAT     H113541   0.779   8.995   8.145
 4433WAT     H213542   0.671   8.932   8.250
 4434WAT      O13543   3.105   9.829   5.899
 4434WAT     H113544   3.068   9.826   5.806
 4434WAT     H213545   3.066   9.906   5.949
 4435WAT      O13546   2.771   7.889   1.773
 4435WAT     H113547   2.683   7.933   1.790
 4435WAT     H213548   2.759   7.812   1.710
 4436WAT      O13549   3.056   8.954   4.451
 4436WAT     H113550   3.047   8.872   4.507
 4436WAT     H213551   3.053   8.929   4.354
 4437WAT      O13552   2.445   4.089   5.702
 4437WAT     H113553   2.396   4.133   5.777
 4437WAT     H213554   2.390   4.015   5.665
 4438WAT      O13555   5.006   2.509   7.789
 4438WAT     H113556   4.981   2.460   7.872
 4438WAT     H213557   5.006   2.445   7.712
 4439WAT      O13558   4.183   2.536   9.356
 4439WAT     H113559   4.084   2.531   9.344
 4439WAT     H213560   4.225   2.571   9.272
 4440WAT      O13561   8.907   1.979   9.489
 4440WAT     H113562   8.835   2.030   9.537
 4440WAT     H213563   8.884   1.972   9.392
 4441WAT      O13564   3.189   2.407   5.073
 4441WAT     H113565   3.117   2.431   5.008
 4441WAT     H213566   3.229   2.320   5.047
 4442WAT      O13567   0.769   2.778   7.244
 4442WAT     H113568   0.776   2.797   7.146
 4442WAT     H213569   0.675   2.791   7.274
 4443WAT      O13570   2.409   1.601   5.334
 4443WAT     H113571   2.311   1.588   5.317
 4443WAT     H213572   2.437   1.543   5.410
 4444WAT      O13573   1.438   2.667   5.673
 4444WAT     H113574   1.361   2.713   5.715
 4444WAT     H213575   1.423   2.568   5.674
 4445WAT      O13576   8.880   2.776   7.115
 4445WAT     H113577   8.949   2.789   7.044
 4445WAT     H213578   8.849   2.865   7.149
 4446WAT      O13579   5.394   3.462   9.176
 4446WAT     H113580   5.442   3.500   9.097
 4446WAT     H213581   5.362   3.536   9.235
 4447WAT      O13582   0.519   8.455   1.984
 4447WAT     H113583   0.424   8.423   1.975
 4447WAT     H213584   0.519   8.547   2.022
 4448WAT      O13585   1.759   2.278   4.800
 4448WAT     H113586   1.853   2.263   4.829
 4448WAT     H213587   1.738   2.376   4.803
 4449WAT      O13588   0.686   6.000   9.697
 4449WAT     H113589   0.670   6.092   9.663
 4449WAT     H213590   0.764   6.000   9.759
 4450WAT      O13591   1.121   3.852   0.122
 4450WAT     H113592   1.071   3.765   0.121
 4450WAT     H213593   1.181   3.855   0.202
 4451WAT      O13594   7.260   1.864   4.519
 4451WAT     H113595   7.298   1.954   4.498
 4451WAT     H213596   7.174   1.875   4.568
 4452WAT      O13597   5.694   5.009   8.643
 4452WAT     H113598   5.660   4.929   8.694
 4452WAT     H213599   5.644   5.016   8.557
 4453WAT      O13600   6.425   1.290   3.649
 4453WAT     H113601   6.375   1.367   3.609
 4453WAT     H213602   6.432   1.303   3.748
 4454WAT      O13603   4.369   7.030   9.643
 4454WAT     H113604   4.385   6.952   9.703
 4454WAT     H213605   4.437   7.029   9.569
 4455WAT      O13606   1.183   0.315   0.756
 4455WAT     H113607   1.262   0.259   0.730
 4455WAT     H213608   1.206   0.412   0.743
 4456WAT      O13609   0.700   7.578   9.320
 4456WAT     H113610   0.682   7.676   9.321
 4456WAT     H213611   0.730   7.549   9.411
 4457WAT      O13612   9.457   7.399   6.461
 4457WAT     H113613   9.391   7.429   6.531
 4457WAT     H213614   9.461   7.299   6.460
 4458WAT      O13615   1.426   0.815   7.063
 4458WAT     H113616   1.401   0.817   7.160
 4458WAT     H213617   1.343   0.821   7.008
 4459WAT      O13618   0.107   1.502   7.811
 4459WAT     H113619   0.143   1.410   7.793
 4459WAT     H213620   0.029   1.519   7.750
 4460WAT      O13621   8.223   4.208   9.210
 4460WAT     H113622   8.277   4.169   9.135
 4460WAT     H213623   8.202   4.137   9.277
 4461WAT      O13624   5.891   9.720   4.679
 4461WAT     H113625   5.914   9.681   4.768
 4461WAT     H213626   5.924   9.660   4.607
 4462WAT      O13627   2.713   1.889   3.147
 4462WAT     H113628   2.626   1.857   3.111
 4462WAT     H213629   2.784   1.821   3.128
 4463WAT      O13630   5.285   1.426   8.648
 4463WAT     H113631   5.261   1.387   8.560
 4463WAT     H213632   5.240   1.375   8.721
 4464WAT      O13633   8.509   9.087   3.925
 4464WAT     H113634   8.566   9.152   3.976
 4464WAT     H213635   8.483   9.012   3.985
 4465WAT      O13636   4.821   1.456   5.620
 4465WAT     H113637   4.876   1.537   5.641
 4465WAT     H213638   4.725   1.482   5.615
 4466WAT      O13639   7.431   5.883   8.983
 4466WAT     H113640   7.357   5.821   9.009
 4466WAT     H213641   7.423   5.969   9.034
 4467WAT      O13642   1.745   4.925   7.842
 4467WAT     H113643   1.809   4.966   7.907
 4467WAT     H213644   1.791   4.854   7.789
 4468WAT      O13645   0.380   4.844   7.969
 4468WAT     H113646   0.348   4.760   8.014
 4468WAT     H213647   0.430   4.820   7.886
 4469WAT      O13648   4.605   2.863   0.057
 4469WAT     H113649   4.656   2.778   0.039
 4469WAT     H213650   4.630   2.931  -0.011
 4470WAT      O13651   3.247   4.515   7.199
 4470WAT     H113652   3.236   4.510   7.298
 4470WAT     H213653   3.341   4.544   7.177
 4471WAT      O13654   8.418   6.134   0.796
 4471WAT     H113655   8.515   6.129   0.821
 4471WAT     H213656   8.377   6.043   0.801
 4472WAT      O13657   0.512   4.192   3.812
 4472WAT     H113658   0.567   4.241   3.745
 4472WAT     H213659   0.434   4.248   3.839
 4473WAT      O13660   7.671   7.938   3.520
 4473WAT     H113661   7.715   8.025   3.500
 4473WAT     H213662   7.572   7.949   3.521
 4474WAT      O13663   6.657   1.902   6.841
 4474WAT     H113664   6.687   1.816   6.800
 4474WAT     H213665   6.559   1.899   6.858
 4475WAT      O13666   4.613   0.780   2.496
 4475WAT     H113667   4.701   0.821   2.474
 4475WAT     H213668   4.569   0.750   2.411
 4476WAT      O13669   7.411   7.764   9.758
 4476WAT     H113670   7.355   7.689   9.722
 4476WAT     H213671   7.381   7.787   9.850
 4477WAT      O13672   7.300   5.536   1.024
 4477WAT     H113673   7.260   5.612   1.076
 4477WAT     H213674   7.226   5.482   0.982
 4478WAT      O13675   5.240   1.319   5.584
 4478WAT     H113676   5.158   1.273   5.619
 4478WAT     H213677   5.293   1.255   5.530
 4479WAT      O13678   3.700   6.159   5.584
 4479WAT     H113679   3.780   6.212   5.612
 4479WAT     H213680   3.626   6.173   5.649
 4480WAT      O13681   8.454   7.682   9.490
 4480WAT     H113682   8.394   7.755   9.524
 4480WAT     H213683   8.399   7.601   9.469
 4481WAT      O13684   7.833   3.600   7.710
 4481WAT     H113685   7.778   3.573   7.789
 4481WAT     H213686   7.818   3.536   7.635
 4482WAT      O13687   1.020   3.977   4.123
 4482WAT     H113688   1.116   3.980   4.151
 4482WAT     H213689   1.015   3.970   4.023
 4483WAT      O13690   1.098   0.036   4.313
 4483WAT     H113691   1.086   0.133   4.292
 4483WAT     H213692   1.139  -0.011   4.234
 4484WAT      O13693   9.079   5.755   1.577
 4484WAT     H113694   9.033   5.723   1.495
 4484WAT     H213695   9.140   5.683   1.611
 4485WAT      O13696   0.155   3.433   0.498
 4485WAT     H113697   0.068   3.480   0.516
 4485WAT     H213698   0.166   3.358   0.562
 4486WAT      O13699   3.983   8.588   3.138
 4486WAT     H113700   3.908   8.526   3.160
 4486WAT     H213701   4.004   8.581   3.040
 4487WAT      O13702   6.757   2.479   8.696
 4487WAT     H113703   6.841   2.533   8.696
 4487WAT     H213704   6.772   2.393   8.647
 4488WAT      O13705   2.852   0.172   6.856
 4488WAT     H113706   2.897   0.099   6.804
 4488WAT     H213707   2.804   0.133   6.934
 4489WAT      O13708   4.341   5.394   2.666
 4489WAT     H113709   4.288   5.360   2.588
 4489WAT     H213710   4.322   5.340   2.747
 4490WAT      O13711   0.243   6.208   2.894
 4490WAT     H113712   0.215   6.211   2.990
 4490WAT     H213713   0.295   6.291   2.872
 4491WAT      O13714   5.444   6.701   1.686
 4491WAT     H113715   5.540   6.684   1.665
 4491WAT     H213716   5.394   6.614   1.686
 4492WAT      O13717   9.712   8.948   6.081
 4492WAT     H113718   9.787   8.891   6.046
 4492WAT     H213719   9.749   9.036   6.112
 4493WAT      O13720   0.598   8.191   5.638
 4493WAT     H113721   0.648   8.126   5.581
 4493WAT     H213722   0.598   8.281   5.594
 4494WAT      O13723   5.820   2.140   1.888
 4494WAT     H113724   5.856   2.146   1.795
 4494WAT     H213725   5.887   2.180   1.951
 4495WAT      O13726   9.348   5.250   2.924
 4495WAT     H113727   9.259   5.204   2.933
 4495WAT     H213728   9.418   5.196   2.969
 4496WAT      O13729   6.220   2.175   4.537
 4496WAT     H113730   6.196   2.236   4.613
 4496WAT     H213731   6.254   2.230   4.460
 4497WAT      O13732   9.451   5.853   2.678
 4497WAT     H113733   9.475   5.757   2.670
 4497WAT     H213734   9.355   5.861   2.707
 4498WAT      O13735   6.239   0.876   7.378
 4498WAT     H113736   6.335   0.853   7.392
 4498WAT     H213737   6.212   0.852   7.284
 4499WAT      O13738   3.702   0.967   2.443
 4499WAT     H113739   3.764   0.966   2.365
 4499WAT     H213740   3.627   0.903   2.426
 4500WAT      O13741   6.138   0.933   1.626
 4500WAT     H113742   6.234   0.946   1.652
 4500WAT     H213743   6.120   0.835   1.616
 4501WAT      O13744   9.765   6.556   1.193
 4501WAT     H113745   9.730   6.580   1.102
 4501WAT     H213746   9.698   6.498   1.240
 4502WAT      O13747   0.210   7.382   0.605
 4502WAT     H113748   0.186   7.418   0.514
 4502WAT     H213749   0.307   7.396   0.621
 4503WAT      O13750   3.359   3.127   6.707
 4503WAT     H113751   3.328   3.219   6.685
 4503WAT     H213752   3.294   3.060   6.671
 4504WAT      O13753   8.691   1.345   0.777
 4504WAT     H113754   8.600   1.382   0.759
 4504WAT     H213755   8.745   1.413   0.827
 4505WAT      O13756   0.874   0.845   6.932
 4505WAT     H113757   0.824   0.758   6.932
 4505WAT     H213758   0.899   0.868   6.838
 4506WAT      O13759   6.295   8.911   6.713
 4506WAT     H113760   6.313   8.900   6.811
 4506WAT     H213761   6.295   8.821   6.669
 4507WAT      O13762   2.091   3.125   6.845
 4507WAT     H113763   2.110   3.132   6.943
 4507WAT     H213764   2.079   3.217   6.807
 4508WAT      O13765   0.675   9.191   4.663
 4508WAT     H113766   0.697   9.098   4.692
 4508WAT     H213767   0.733   9.217   4.586
 4509WAT      O13768   4.078   9.810   8.438
 4509WAT     H113769   4.103   9.873   8.364
 4509WAT     H213770   4.106   9.717   8.414
 4510WAT      O13771   7.198   2.914   0.156
 4510WAT     H113772   7.143   2.997   0.159
 4510WAT     H213773   7.138   2.834   0.162
 4511WAT      O13774   1.663   4.929   9.618
 4511WAT     H113775   1.754   4.913   9.580
 4511WAT     H213776   1.670   4.995   9.693
 4512WAT      O13777   9.148   1.126   1.237
 4512WAT     H113778   9.146   1.103   1.140
 4512WAT     H213779   9.116   1.048   1.291
 4513WAT      O13780   1.020   7.574   5.178
 4513WAT     H113781   1.089   7.618   5.236
 4513WAT     H213782   0.952   7.529   5.236
 4514WAT      O13783   5.262   1.667   1.048
 4514WAT     H113784   5.239   1.721   0.967
 4514WAT     H213785   5.356   1.635   1.041
 4515WAT      O13786   2.445   5.968   7.060
 4515WAT     H113787   2.503   5.997   6.983
 4515WAT     H213788   2.412   6.049   7.108
 4516WAT      O13789   0.760   2.006   2.620
 4516WAT     H113790   0.719   2.095   2.599
 4516WAT     H213791   0.777   1.956   2.536
 4517WAT      O13792   3.976   1.639   2.334
 4517WAT     H113793   3.884   1.600   2.334
 4517WAT     H213794   4.042   1.566   2.317
 4518WAT      O13795   7.626   2.175   3.340
 4518WAT     H113796   7.704   2.237   3.344
 4518WAT     H213797   7.654   2.083   3.366
 4519WAT      O13798   4.688   4.539   0.812
 4519WAT     H113799   4.743   4.459   0.789
 4519WAT     H213800   4.706   4.612   0.745
 4520WAT      O13801   3.048   7.677   1.934
 4520WAT     H113802   2.974   7.707   1.994
 4520WAT     H213803   3.066   7.580   1.950
 4521WAT      O13804   1.678   5.459   6.356
 4521WAT     H113805   1.585   5.449   6.393
 4521WAT     H213806   1.727   5.529   6.407
 4522WAT      O13807   8.670   5.655   1.666
 4522WAT     H113808   8.593   5.688   1.611
 4522WAT     H213809   8.739   5.726   1.673
 4523WAT      O13810   8.173   0.777   1.100
 4523WAT     H113811   8.123   0.731   1.026
 4523WAT     H213812   8.150   0.874   1.101
 4524WAT      O13813   6.315   2.461   5.011
 4524WAT     H113814   6.295   2.545   4.961
 4524WAT     H213815   6.384   2.479   5.081
 4525WAT      O13816   3.754   6.764   7.336
 4525WAT     H113817   3.717   6.739   7.426
 4525WAT     H213818   3.737   6.861   7.319
 4526WAT      O13819   5.564   0.925   1.958
 4526WAT     H113820   5.608   1.014   1.962
 4526WAT     H213821   5.586   0.873   2.041
 4527WAT      O13822   6.904   3.461   5.033
 4527WAT     H113823   6.897   3.531   5.104
 4527WAT     H213824   6.992   3.469   4.987
 4528WAT      O13825   5.669   1.177   6.528
 4528WAT     H113826   5.653   1.186   6.429
 4528WAT     H213827   5.739   1.108   6.544
 4529WAT      O13828   6.034   8.318   4.167
 4529WAT     H113829   6.100   8.273   4.107
 4529WAT     H213830   6.054   8.416   4.170
 4530WAT      O13831   8.072   9.018   7.061
 4530WAT     H113832   7.990   8.982   7.106
 4530WAT     H213833   8.133   8.942   7.038
 4531WAT      O13834   5.639   8.565   7.387
 4531WAT     H113835   5.621   8.569   7.289
 4531WAT     H213836   5.733   8.596   7.405
 4532WAT      O13837   9.340   6.479   8.605
 4532WAT     H113838   9.389   6.525   8.531
 4532WAT     H213839   9.269   6.540   8.641
 4533WAT      O13840   4.096   7.942   7.236
 4533WAT     H113841   3.997   7.953   7.229
 4533WAT     H213842   4.132   8.005   7.304
 4534WAT      O13843   2.711   9.587   2.214
 4534WAT     H113844   2.667   9.637   2.139
 4534WAT     H213845   2.794   9.543   2.181
 4535WAT      O13846   0.595   2.015   5.137
 4535WAT     H113847   0.571   2.072   5.215
 4535WAT     H213848   0.592   1.918   5.163
 4536WAT      O13849   5.411   7.783   1.887
 4536WAT     H113850   5.423   7.880   1.864
 4536WAT     H213851   5.500   7.741   1.904
 4537WAT      O13852   4.241   9.566   7.417
 4537WAT     H113853   4.298   9.602   7.343
 4537WAT     H213854   4.150   9.609   7.412
 4538WAT      O13855   2.125   3.589   3.959
 4538WAT     H113856   2.192   3.663   3.962
 4538WAT     H213857   2.141   3.532   3.879
 4539WAT      O13858   8.657   0.661   7.114
 4539WAT     H113859   8.573   0.627   7.155
 4539WAT     H213860   8.635   0.736   7.051
 4540WAT      O13861   9.209   7.907   1.594
 4540WAT     H113862   9.193   7.903   1.692
 4540WAT     H213863   9.241   7.999   1.569
 4541WAT      O13864   3.980   7.540   6.301
 4541WAT     H113865   3.954   7.510   6.209
 4541WAT     H213866   3.951   7.472   6.368
 4542WAT      O13867   7.263   4.412   4.307
 4542WAT     H113868   7.345   4.444   4.259
 4542WAT     H213869   7.192   4.482   4.302
 4543WAT      O13870   9.102   6.682   6.966
 4543WAT     H113871   9.077   6.590   6.938
 4543WAT     H213872   9.160   6.678   7.046
 4544WAT      O13873   3.056   5.111   6.131
 4544WAT     H113874   3.019   5.201   6.155
 4544WAT     H213875   3.001   5.040   6.174
 4545WAT      O13876   9.430   7.140   7.606
 4545WAT     H113877   9.508   7.139   7.543
 4545WAT     H213878   9.448   7.202   7.682
 4546WAT      O13879  -0.003   9.709   5.180
 4546WAT     H113880   0.035   9.686   5.091
 4546WAT     H213881   0.061   9.767   5.230
 4547WAT      O13882   8.808   2.296   4.408
 4547WAT     H113883   8.759   2.214   4.379
 4547WAT     H213884   8.788   2.314   4.505
 4548WAT      O13885   7.132   6.704   2.833
 4548WAT     H113886   7.174   6.761   2.904
 4548WAT     H213887   7.034   6.695   2.851
 4549WAT      O13888   5.840   4.936   6.379
 4549WAT     H113889   5.745   4.953   6.350
 4549WAT     H213890   5.847   4.845   6.420
 4550WAT      O13891   2.866   9.545   8.993
 4550WAT     H113892   2.874   9.588   9.082
 4550WAT     H213893   2.941   9.480   8.980
 4551WAT      O13894   4.086   5.230   0.452
 4551WAT     H113895   4.110   5.163   0.382
 4551WAT     H213896   4.143   5.217   0.532
 4552WAT      O13897   4.059   6.344   2.102
 4552WAT     H113898   4.005   6.427   2.118
 4552WAT     H213899   4.093   6.344   2.008
 4553WAT      O13900   9.693   3.544   4.486
 4553WAT     H113901   9.743   3.458   4.497
 4553WAT     H213902   9.635   3.538   4.404
 4554WAT      O13903   4.418   0.498   2.279
 4554WAT     H113904   4.432   0.424   2.213
 4554WAT     H213905   4.331   0.483   2.327
 4555WAT      O13906   1.570   7.288   4.819
 4555WAT     H113907   1.476   7.323   4.819
 4555WAT     H213908   1.569   7.190   4.799
 4556WAT      O13909   9.316   3.591   8.782
 4556WAT     H113910   9.348   3.511   8.731
 4556WAT     H213911   9.273   3.560   8.867
 4557WAT      O13912   4.991   1.356   3.064
 4557WAT     H113913   4.974   1.393   3.155
 4557WAT     H213914   5.064   1.407   3.020
 4558WAT      O13915   3.478   3.759   4.543
 4558WAT     H113916   3.428   3.808   4.472
 4558WAT     H213917   3.473   3.810   4.629
 4559WAT      O13918   3.540   5.654   9.842
 4559WAT     H113919   3.469   5.600   9.887
 4559WAT     H213920   3.607   5.592   9.801
 4560WAT      O13921   6.534   8.997   1.147
 4560WAT     H113922   6.482   8.949   1.076
 4560WAT     H213923   6.471   9.035   1.214
 4561WAT      O13924   2.043   6.956   6.594
 4561WAT     H113925   1.964   7.017   6.595
 4561WAT     H213926   2.016   6.865   6.627
 4562WAT      O13927   6.027   1.936   0.434
 4562WAT     H113928   6.017   1.990   0.351
 4562WAT     H213929   6.097   1.977   0.492
 4563WAT      O13930   9.732   1.074   8.473
 4563WAT     H113931   9.695   0.982   8.486
 4563WAT     H213932   9.733   1.096   8.375
 4564WAT      O13933   2.328   8.845   9.473
 4564WAT     H113934   2.350   8.932   9.516
 4564WAT     H213935   2.287   8.784   9.541
 4565WAT      O13936   2.923   6.495   2.217
 4565WAT     H113937   2.838   6.444   2.202
 4565WAT     H213938   2.940   6.555   2.139
 4566WAT      O13939   0.081   4.366   6.175
 4566WAT     H113940   0.174   4.395   6.197
 4566WAT     H213941   0.042   4.427   6.106
 4567WAT      O13942   2.922   0.043   4.395
 4567WAT     H113943   2.979  -0.031   4.359
 4567WAT     H213944   2.843   0.056   4.335
 4568WAT      O13945   7.386   8.980   3.901
 4568WAT     H113946   7.454   9.002   3.971
 4568WAT     H213947   7.335   8.899   3.929
 4569WAT      O13948   8.892   0.333   8.671
 4569WAT     H113949   8.938   0.361   8.586
 4569WAT     H213950   8.862   0.238   8.663
 4570WAT      O13951   0.699   0.194   3.102
 4570WAT     H113952   0.661   0.285   3.120
 4570WAT     H213953   0.630   0.125   3.124
 4571WAT      O13954   1.941   2.356   1.603
 4571WAT     H113955   1.962   2.311   1.516
 4571WAT     H213956   2.025   2.366   1.656
 4572WAT      O13957   8.359   7.633   2.817
 4572WAT     H113958   8.434   7.698   2.828
 4572WAT     H213959   8.374   7.578   2.734
 4573WAT      O13960   9.320   7.258   4.129
 4573WAT     H113961   9.415   7.285   4.116
 4573WAT     H213962   9.279   7.236   4.041
 4574WAT      O13963   1.466   1.244   6.119
 4574WAT     H113964   1.498   1.227   6.026
 4574WAT     H213965   1.469   1.159   6.171
 4575WAT      O13966   6.196   1.860   7.055
 4575WAT     H113967   6.164   1.820   7.141
 4575WAT     H213968   6.121   1.864   6.990
 4576WAT      O13969   3.785   3.745   4.891
 4576WAT     H113970   3.832   3.804   4.957
 4576WAT     H213971   3.784   3.651   4.926
 4577WAT      O13972   3.480   6.343   9.757
 4577WAT     H113973   3.467   6.326   9.660
 4577WAT     H213974   3.394   6.370   9.799
 4578WAT      O13975   3.178   2.828   6.381
 4578WAT     H113976   3.110   2.767   6.421
 4578WAT     H213977   3.242   2.775   6.325
 4579WAT      O13978   7.389   4.524   1.597
 4579WAT     H113979   7.446   4.513   1.516
 4579WAT     H213980   7.294   4.540   1.569
 4580WAT      O13981   3.802   5.559   3.269
 4580WAT     H113982   3.775   5.563   3.173
 4580WAT     H213983   3.776   5.644   3.315
 4581WAT      O13984   6.237   1.691   4.818
 4581WAT     H113985   6.194   1.607   4.852
 4581WAT     H213986   6.268   1.746   4.895
 4582WAT      O13987   6.970   1.229   3.914
 4582WAT     H113988   6.958   1.328   3.900
 4582WAT     H213989   6.919   1.180   3.843
 4583WAT      O13990   5.655   2.813   6.143
 4583WAT     H113991   5.628   2.727   6.186
 4583WAT     H213992   5.576   2.874   6.140
 4584WAT      O13993   1.376   9.803   1.852
 4584WAT     H113994   1.301   9.737   1.846
 4584WAT     H213995   1.450   9.776   1.791
 4585WAT      O13996   8.541   5.564   2.231
 4585WAT     H113997   8.543   5.482   2.288
 4585WAT     H213998   8.568   5.541   2.138
 4586WAT      O13999   2.706   0.404   2.117
 4586WAT     H114000   2.627   0.440   2.066
 4586WAT     H214001   2.772   0.365   2.053
 4587WAT      O14002   7.581   3.006   6.607
 4587WAT     H114003   7.652   3.060   6.653
 4587WAT     H214004   7.619   2.920   6.575
 4588WAT      O14005   2.267   3.318   8.972
 4588WAT     H114006   2.233   3.229   8.943
 4588WAT     H214007   2.231   3.389   8.910
 4589WAT      O14008   6.046   6.347   2.404
 4589WAT     H114009   5.959   6.319   2.363
 4589WAT     H214010   6.036   6.437   2.445
 4590WAT      O14011   0.957   5.495   3.370
 4590WAT     H114012   0.993   5.432   3.438
 4590WAT     H214013   0.993   5.587   3.386
 4591WAT      O14014   2.974   6.581   0.699
 4591WAT     H114015   2.953   6.678   0.689
 4591WAT     H214016   3.056   6.558   0.647
 4592WAT      O14017   1.176   6.569   4.965
 4592WAT     H114018   1.274   6.583   4.975
 4592WAT     H214019   1.152   6.576   4.868
 4593WAT      O14020   4.443   4.367   6.726
 4593WAT     H114021   4.385   4.439   6.763
 4593WAT     H214022   4.429   4.282   6.778
 4594WAT      O14023   5.550   5.713   2.376
 4594WAT     H114024   5.486   5.640   2.348
 4594WAT     H214025   5.533   5.795   2.321
 4595WAT      O14026   4.624   8.174   2.034
 4595WAT     H114027   4.671   8.224   2.107
 4595WAT     H214028   4.535   8.216   2.016
 4596WAT      O14029   0.030   7.802   3.828
 4596WAT     H114030   0.018   7.899   3.850
 4596WAT     H214031  -0.026   7.779   3.748
 4597WAT      O14032   8.365   7.905   3.708
 4597WAT     H114033   8.310   7.834   3.664
 4597WAT     H214034   8.327   7.995   3.686
 4598WAT      O14035   8.214   3.387   7.705
 4598WAT     H114036   8.142   3.426   7.762
 4598WAT     H214037   8.253   3.458   7.647
 4599WAT      O14038   6.025   1.021   7.956
 4599WAT     H114039   6.053   1.010   8.052
 4599WAT     H214040   5.985   1.112   7.944
 4600WAT      O14041   7.923   9.602   7.775
 4600WAT     H114042   7.859   9.615   7.699
 4600WAT     H214043   7.891   9.527   7.833
 4601WAT      O14044   9.386   6.943   2.754
 4601WAT     H114045   9.365   7.039   2.742
 4601WAT     H214046   9.303   6.893   2.781
 4602WAT      O14047   0.051   0.597   3.526
 4602WAT     H114048  -0.030   0.652   3.505
 4602WAT     H214049   0.128   0.658   3.547
 4603WAT      O14050   0.238   8.936   6.799
 4603WAT     H114051   0.334   8.964   6.806
 4603WAT     H214052   0.211   8.932   6.703
 4604WAT      O14053   1.280   5.052   1.074
 4604WAT     H114054   1.323   5.034   1.162
 4604WAT     H214055   1.348   5.039   1.001
 4605WAT      O14056   3.040   1.017   2.045
 4605WAT     H114057   2.980   0.983   1.973
 4605WAT     H214058   3.070   0.941   2.103
 4606WAT      O14059   0.497   2.288   3.895
 4606WAT     H114060   0.443   2.244   3.968
 4606WAT     H214061   0.572   2.228   3.869
 4607WAT      O14062   3.300   8.051   4.193
 4607WAT     H114063   3.273   8.019   4.103
 4607WAT     H214064   3.373   7.993   4.229
 4608WAT      O14065   6.495   2.997   1.102
 4608WAT     H114066   6.445   2.928   1.155
 4608WAT     H214067   6.501   3.081   1.156
 4609WAT      O14068   5.489   0.323   8.698
 4609WAT     H114069   5.521   0.339   8.604
 4609WAT     H214070   5.439   0.236   8.701
 4610WAT      O14071   3.213   7.273   0.063
 4610WAT     H114072   3.252   7.184   0.089
 4610WAT     H214073   3.117   7.276   0.088
 4611WAT      O14074   7.876   7.635   2.053
 4611WAT     H114075   7.833   7.687   2.127
 4611WAT     H214076   7.904   7.545   2.088
 4612WAT      O14077   4.889   7.919   2.285
 4612WAT     H114078   4.833   7.966   2.353
 4612WAT     H214079   4.831   7.886   2.211
 4613WAT      O14080   1.914   6.595   4.413
 4613WAT     H114081   1.854   6.646   4.475
 4613WAT     H214082   1.957   6.659   4.350
 4614WAT      O14083   6.841   6.175   8.636
 4614WAT     H114084   6.817   6.116   8.714
 4614WAT     H214085   6.766   6.237   8.616
 4615WAT      O14086   6.504   2.521   5.528
 4615WAT     H114087   6.466   2.576   5.453
 4615WAT     H214088   6.582   2.468   5.494
 4616WAT      O14089   8.403   8.107   0.746
 4616WAT     H114090   8.401   8.114   0.646
 4616WAT     H214091   8.391   8.198   0.785
 4617WAT      O14092   7.663   5.769   9.317
 4617WAT     H114093   7.737   5.752   9.382
 4617WAT     H214094   7.690   5.844   9.256
 4618WAT      O14095   2.184   3.549   7.597
 4618WAT     H114096   2.281   3.526   7.591
 4618WAT     H214097   2.173   3.647   7.611
 4619WAT      O14098   5.044   5.467   0.017
 4619WAT     H114099   4.999   5.391   0.063
 4619WAT     H214100   4.975   5.527  -0.024
 4620WAT      O14101   3.719   7.343   5.965
 4620WAT     H114102   3.681   7.250   5.967
 4620WAT     H214103   3.664   7.403   6.023
 4621WAT      O14104   6.306   0.920   1.240
 4621WAT     H114105   6.273   0.991   1.301
 4621WAT     H214106   6.402   0.900   1.259
 4622WAT      O14107   5.073   1.160   0.833
 4622WAT     H114108   5.045   1.203   0.918
 4622WAT     H214109   5.163   1.118   0.846
 4623WAT      O14110   6.620   1.607   3.494
 4623WAT     H114111   6.574   1.559   3.419
 4623WAT     H214112   6.567   1.595   3.578
 4624WAT      O14113   0.370   8.520   0.677
 4624WAT     H114114   0.430   8.441   0.662
 4624WAT     H214115   0.377   8.549   0.773
 4625WAT      O14116   7.915   7.256   7.427
 4625WAT     H114117   7.973   7.306   7.361
 4625WAT     H214118   7.866   7.322   7.484
 4626WAT      O14119   0.484   7.496   1.073
 4626WAT     H114120   0.517   7.438   0.998
 4626WAT     H214121   0.559   7.549   1.110
 4627WAT      O14122   7.777   3.575   8.351
 4627WAT     H114123   7.733   3.650   8.401
 4627WAT     H214124   7.785   3.601   8.255
 4628WAT      O14125   7.651   2.043   9.071
 4628WAT     H114126   7.561   2.070   9.035
 4628WAT     H214127   7.651   1.945   9.090
 4629WAT      O14128   5.025   6.983   1.158
 4629WAT     H114129   5.063   7.051   1.221
 4629WAT     H214130   4.981   7.030   1.081
 4630WAT      O14131   4.231   3.573   3.184
 4630WAT     H114132   4.226   3.666   3.145
 4630WAT     H214133   4.144   3.551   3.228
 4631WAT      O14134   0.431   2.802   9.201
 4631WAT     H114135   0.470   2.782   9.111
 4631WAT     H214136   0.424   2.901   9.212
 4632WAT      O14137   4.193   4.828   3.717
 4632WAT     H114138   4.262   4.831   3.645
 4632WAT     H214139   4.234   4.794   3.801
 4633WAT      O14140   4.969   9.200   3.941
 4633WAT     H114141   4.984   9.295   3.969
 4633WAT     H214142   4.876   9.173   3.965
 4634WAT      O14143   9.601   9.816   5.865
 4634WAT     H114144   9.588   9.751   5.791
 4634WAT     H214145   9.699   9.831   5.880
 4635WAT      O14146   6.499   7.086   2.776
 4635WAT     H114147   6.547   7.115   2.693
 4635WAT     H214148   6.561   7.090   2.854
 4636WAT      O14149   4.392   0.363   3.943
 4636WAT     H114150   4.368   0.315   4.027
 4636WAT     H214151   4.344   0.322   3.866
 4637WAT      O14152   7.642   6.108   2.134
 4637WAT     H114153   7.694   6.023   2.123
 4637WAT     H214154   7.573   6.115   2.062
 4638WAT      O14155   7.111   9.631   5.150
 4638WAT     H114156   7.133   9.643   5.053
 4638WAT     H214157   7.196   9.618   5.201
 4639WAT      O14158   4.128   1.199   6.047
 4639WAT     H114159   4.195   1.261   6.088
 4639WAT     H214160   4.145   1.106   6.078
 4640WAT      O14161   0.490   1.217   5.600
 4640WAT     H114162   0.518   1.304   5.559
 4640WAT     H214163   0.466   1.232   5.696
 4641WAT      O14164   4.590   1.349   3.030
 4641WAT     H114165   4.621   1.271   2.976
 4641WAT     H214166   4.643   1.430   3.004
 4642WAT      O14167   0.430   8.213   0.319
 4642WAT     H114168   0.357   8.157   0.358
 4642WAT     H214169   0.402   8.308   0.314
 4643WAT      O14170   8.859   4.257   8.911
 4643WAT     H114171   8.803   4.212   8.981
 4643WAT     H214172   8.807   4.331   8.868
 4644WAT      O14173   6.896   0.295   2.643
 4644WAT     H114174   6.888   0.198   2.623
 4644WAT     H214175   6.949   0.308   2.727
 4645WAT      O14176   3.901   3.667   0.710
 4645WAT     H114177   3.867   3.756   0.678
 4645WAT     H214178   3.902   3.666   0.810
 4646WAT      O14179   1.559   8.178   2.124
 4646WAT     H114180   1.601   8.137   2.043
 4646WAT     H214181   1.515   8.265   2.099
 4647WAT      O14182   5.195   6.526   1.679
 4647WAT     H114183   5.157   6.486   1.763
 4647WAT     H214184   5.216   6.453   1.614
 4648WAT      O14185   5.332   0.863   1.496
 4648WAT     H114186   5.241   0.833   1.524
 4648WAT     H214187   5.396   0.850   1.572
 4649WAT      O14188   5.563   5.235   1.943
 4649WAT     H114189   5.555   5.215   1.845
 4649WAT     H214190   5.551   5.333   1.958
 4650WAT      O14191   2.283   9.556   2.934
 4650WAT     H114192   2.299   9.631   2.998
 4650WAT     H214193   2.313   9.582   2.843
 4651WAT      O14194   7.647   4.514   8.745
 4651WAT     H114195   7.648   4.479   8.651
 4651WAT     H214196   7.556   4.501   8.784
 4652WAT      O14197   4.630   2.179   5.617
 4652WAT     H114198   4.689   2.176   5.536
 4652WAT     H214199   4.669   2.243   5.683
 4653WAT      O14200   9.079   7.585   0.936
 4653WAT     H114201   8.998   7.591   0.878
 4653WAT     H214202   9.161   7.592   0.879
 4654WAT      O14203   0.077   6.924   4.460
 4654WAT     H114204   0.139   6.893   4.533
 4654WAT     H214205   0.108   6.887   4.373
 4655WAT      O14206   7.894   9.822   0.434
 4655WAT     H114207   7.943   9.863   0.357
 4655WAT     H214208   7.944   9.841   0.519
 4656WAT      O14209   6.413   7.992   5.292
 4656WAT     H114210   6.355   7.953   5.220
 4656WAT     H214211   6.454   7.919   5.346
 4657WAT      O14212   0.815   7.490   7.236
 4657WAT     H114213   0.825   7.587   7.213
 4657WAT     H214214   0.718   7.469   7.249
 4658WAT      O14215   7.537   0.070   4.773
 4658WAT     H114216   7.565   0.043   4.865
 4658WAT     H214217   7.618   0.077   4.715
 4659WAT      O14218   9.788   3.544   9.548
 4659WAT     H114219   9.821   3.610   9.480
 4659WAT     H214220   9.733   3.593   9.617
 4660WAT      O14221   4.115   6.254   8.559
 4660WAT     H114222   4.064   6.281   8.641
 4660WAT     H214223   4.106   6.155   8.545
 4661WAT      O14224   2.665   4.646   6.960
 4661WAT     H114225   2.657   4.692   7.048
 4661WAT     H214226   2.643   4.711   6.887
 4662WAT      O14227   6.796   9.021   4.356
 4662WAT     H114228   6.697   9.009   4.353
 4662WAT     H214229   6.820   9.109   4.317
 4663WAT      O14230   7.494   6.758   3.489
 4663WAT     H114231   7.423   6.700   3.450
 4663WAT     H214232   7.456   6.847   3.512
 4664WAT      O14233   2.612   2.503   0.295
 4664WAT     H114234   2.617   2.603   0.288
 4664WAT     H214235   2.587   2.465   0.206
 4665WAT      O14236   2.536   3.445   1.553
 4665WAT     H114237   2.439   3.438   1.580
 4665WAT     H214238   2.587   3.490   1.627
 4666WAT      O14239   6.347   0.931   5.970
 4666WAT     H114240   6.331   0.843   5.926
 4666WAT     H214241   6.445   0.943   5.987
 4667WAT      O14242   2.057   8.292   4.565
 4667WAT     H114243   1.985   8.323   4.627
 4667WAT     H214244   2.122   8.234   4.616
 4668WAT      O14245   2.170   8.778   8.619
 4668WAT     H114246   2.217   8.722   8.687
 4668WAT     H214247   2.226   8.786   8.537
 4669WAT      O14248   2.646   1.150   4.511
 4669WAT     H114249   2.615   1.055   4.516
 4669WAT     H214250   2.745   1.154   4.525
 4670WAT      O14251   1.992   0.602   6.163
 4670WAT     H114252   2.066   0.612   6.096
 4670WAT     H214253   1.978   0.689   6.210
 4671WAT      O14254   9.852   4.586   9.534
 4671WAT     H114255   9.838   4.649   9.611
 4671WAT     H214256   9.800   4.503   9.550
 4672WAT      O14257   7.453   4.571   4.145
 4672WAT     H114258   7.441   4.664   4.182
 4672WAT     H214259   7.495   4.576   4.055
 4673WAT      O14260   3.539   1.536   7.794
 4673WAT     H114261   3.573   1.614   7.845
 4673WAT     H214262   3.472   1.566   7.727
 4674WAT      O14263   5.126   2.465   6.614
 4674WAT     H114264   5.210   2.505   6.651
 4674WAT     H214265   5.143   2.434   6.520
 4675WAT      O14266   8.543   8.973   2.511
 4675WAT     H114267   8.597   9.007   2.589
 4675WAT     H214268   8.465   9.034   2.496
 4676WAT      O14269   2.133   7.757   7.458
 4676WAT     H114270   2.056   7.762   7.395
 4676WAT     H214271   2.206   7.703   7.417
 4677WAT      O14272   2.400   0.156   3.717
 4677WAT     H114273   2.390   0.069   3.669
 4677WAT     H214274   2.493   0.162   3.754
 4678WAT      O14275   4.462   5.333   1.431
 4678WAT     H114276   4.375   5.345   1.479
 4678WAT     H214277   4.491   5.420   1.391
 4679WAT      O14278   1.437   7.406   6.848
 4679WAT     H114279   1.531   7.381   6.824
 4679WAT     H214280   1.438   7.472   6.923
 4680WAT      O14281   8.744   9.623   0.209
 4680WAT     H114282   8.701   9.651   0.122
 4680WAT     H214283   8.674   9.616   0.280
 4681WAT      O14284   1.127   5.855   5.141
 4681WAT     H114285   1.052   5.888   5.085
 4681WAT     H214286   1.180   5.787   5.090
 4682WAT      O14287   9.039   9.044   2.022
 4682WAT     H114288   9.072   9.104   2.094
 4682WAT     H214289   9.113   8.986   1.990
 4683WAT      O14290   0.177   8.684   1.686
 4683WAT     H114291   0.230   8.756   1.642
 4683WAT     H214292   0.189   8.688   1.785
 4684WAT      O14293   3.219   6.301   6.894
 4684WAT     H114294   3.289   6.229   6.895
 4684WAT     H214295   3.173   6.303   6.983
 4685WAT      O14296   4.230   0.300   4.634
 4685WAT     H114297   4.208   0.395   4.608
 4685WAT     H214298   4.309   0.269   4.582
 4686WAT      O14299   0.688   7.928   9.108
 4686WAT     H114300   0.750   7.944   9.031
 4686WAT     H214301   0.596   7.958   9.083
 4687WAT      O14302   8.074   3.868   4.920
 4687WAT     H114303   8.147   3.935   4.905
 4687WAT     H214304   8.024   3.891   5.003
 4688WAT      O14305   4.609   1.012   7.542
 4688WAT     H114306   4.597   1.001   7.641
 4688WAT     H214307   4.617   1.109   7.519
 4689WAT      O14308   3.193   0.905   5.130
 4689WAT     H114309   3.161   0.814   5.101
 4689WAT     H214310   3.290   0.900   5.152
 4690WAT      O14311   5.474   3.397   0.320
 4690WAT     H114312   5.485   3.482   0.372
 4690WAT     H214313   5.559   3.344   0.326
 4691WAT      O14314   1.932   9.825   7.149
 4691WAT     H114315   1.972   9.881   7.077
 4691WAT     H214316   1.883   9.748   7.109
 4692WAT      O14317   6.969   6.250   6.565
 4692WAT     H114318   7.033   6.279   6.493
 4692WAT     H214319   6.905   6.183   6.527
 4693WAT      O14320   3.888   2.292   9.584
 4693WAT     H114321   3.796   2.292   9.544
 4693WAT     H214322   3.881   2.284   9.683
 4694WAT      O14323   1.206   9.338   9.803
 4694WAT     H114324   1.241   9.246   9.787
 4694WAT     H214325   1.209   9.391   9.718
 4695WAT      O14326   2.176   4.138   4.485
 4695WAT     H114327   2.238   4.064   4.460
 4695WAT     H214328   2.228   4.223   4.496
 4696WAT      O14329   1.976   6.907   9.319
 4696WAT     H114330   1.884   6.869   9.330
 4696WAT     H214331   1.982   6.995   9.366
 4697WAT      O14332   2.053   5.392   5.014
 4697WAT     H114333   1.987   5.370   5.086
 4697WAT     H214334   2.111   5.313   4.996
 4698WAT      O14335   6.667   4.315   2.242
 4698WAT     H114336   6.586   4.357   2.202
 4698WAT     H214337   6.660   4.215   2.237
 4699WAT      O14338   0.481   0.805   7.209
 4699WAT     H114339   0.533   0.871   7.263
 4699WAT     H214340   0.540   0.729   7.182
 4700WAT      O14341   4.717   8.443   8.891
 4700WAT     H114342   4.754   8.514   8.951
 4700WAT     H214343   4.704   8.480   8.799
 4701WAT      O14344   5.567   0.288   2.218
 4701WAT     H114345   5.627   0.359   2.255
 4701WAT     H214346   5.508   0.253   2.291
 4702WAT      O14347   0.882   2.871   6.459
 4702WAT     H114348   0.924   2.838   6.375
 4702WAT     H214349   0.783   2.878   6.447
 4703WAT      O14350   8.748   3.885   8.770
 4703WAT     H114351   8.678   3.814   8.767
 4703WAT     H214352   8.820   3.864   8.703
 4704WAT      O14353   5.528   4.329   3.685
 4704WAT     H114354   5.548   4.241   3.641
 4704WAT     H214355   5.473   4.312   3.767
 4705WAT      O14356   0.260   8.214   5.673
 4705WAT     H114357   0.224   8.307   5.678
 4705WAT     H214358   0.349   8.210   5.720
 4706WAT      O14359   7.826   9.334   9.710
 4706WAT     H114360   7.796   9.411   9.767
 4706WAT     H214361   7.875   9.268   9.767
 4707WAT      O14362   9.162   5.067   7.001
 4707WAT     H114363   9.202   5.109   6.920
 4707WAT     H214364   9.146   4.970   6.984
 4708WAT      O14365   9.044   2.639   8.121
 4708WAT     H114366   9.066   2.736   8.121
 4708WAT     H214367   8.953   2.625   8.082
 4709WAT      O14368   5.448   6.483   3.294
 4709WAT     H114369   5.494   6.555   3.242
 4709WAT     H214370   5.369   6.450   3.243
 4710WAT      O14371   0.705   5.074   9.176
 4710WAT     H114372   0.688   5.171   9.192
 4710WAT     H214373   0.661   5.020   9.249
 4711WAT      O14374   3.685   4.597   2.305
 4711WAT     H114375   3.676   4.592   2.405
 4711WAT     H214376   3.628   4.526   2.263
 4712WAT      O14377   1.018   6.222   9.581
 4712WAT     H114378   1.024   6.128   9.546
 4712WAT     H214379   1.091   6.237   9.648
 4713WAT      O14380   3.996   9.638   6.852
 4713WAT     H114381   3.927   9.566   6.845
 4713WAT     H214382   3.954   9.721   6.889
 4714WAT      O14383   4.203   8.350   8.346
 4714WAT     H114384   4.103   8.356   8.345
 4714WAT     H214385   4.236   8.323   8.256
 4715WAT      O14386   8.543   9.678   0.832
 4715WAT     H114387   8.472   9.719   0.775
 4715WAT     H214388   8.579   9.747   0.895
 4716WAT      O14389   5.336   8.475   7.226
 4716WAT     H114390   5.412   8.480   7.160
 4716WAT     H214391   5.313   8.379   7.243
 4717WAT      O14392   0.507   0.278   5.422
 4717WAT     H114393   0.413   0.288   5.390
 4717WAT     H214394   0.555   0.365   5.412
 4718WAT      O14395   4.127   8.980   5.561
 4718WAT     H114396   4.210   9.031   5.586
 4718WAT     H214397   4.107   8.913   5.632
 4719WAT      O14398   9.342   2.118   4.106
 4719WAT     H114399   9.371   2.083   4.017
 4719WAT     H214400   9.300   2.208   4.094
 4720WAT      O14401   3.627   4.629   1.637
 4720WAT     H114402   3.667   4.716   1.608
 4720WAT     H214403   3.641   4.617   1.735
 4721WAT      O14404   4.439   7.442   5.961
 4721WAT     H114405   4.384   7.429   6.043
 4721WAT     H214406   4.533   7.411   5.977
 4722WAT      O14407   4.471   2.896   4.992
 4722WAT     H114408   4.501   2.812   4.946
 4722WAT     H214409   4.375   2.914   4.970
 4723WAT      O14410   8.590   7.411   0.153
 4723WAT     H114411   8.572   7.507   0.129
 4723WAT     H214412   8.606   7.405   0.252
 4724WAT      O14413   4.438   6.859   3.857
 4724WAT     H114414   4.434   6.766   3.894
 4724WAT     H214415   4.533   6.890   3.854
 4725WAT      O14416   2.033   4.171   4.903
 4725WAT     H114417   1.981   4.097   4.861
 4725WAT     H214418   2.023   4.254   4.849
 4726WAT      O14419   3.245   2.825   7.246
 4726WAT     H114420   3.319   2.780   7.198
 4726WAT     H214421   3.188   2.876   7.181
 4727WAT      O14422   1.184   4.820   5.491
 4727WAT     H114423   1.106   4.766   5.459
 4727WAT     H214424   1.167   4.849   5.586
 4728WAT      O14425   5.189   3.677   8.124
 4728WAT     H114426   5.265   3.697   8.186
 4728WAT     H214427   5.203   3.724   8.037
 4729WAT      O14428   1.382   5.967   6.849
 4729WAT     H114429   1.361   5.910   6.929
 4729WAT     H214430   1.313   6.039   6.840
 4730WAT      O14431   2.693   5.185   6.313
 4730WAT     H114432   2.610   5.214   6.265
 4730WAT     H214433   2.722   5.096   6.277
 4731WAT      O14434   6.410   5.122   4.587
 4731WAT     H114435   6.415   5.023   4.573
 4731WAT     H214436   6.414   5.142   4.685
 4732WAT      O14437   4.363   0.740   1.215
 4732WAT     H114438   4.457   0.764   1.193
 4732WAT     H214439   4.348   0.746   1.314
 4733WAT      O14440   6.024   8.031   7.587
 4733WAT     H114441   6.056   8.123   7.567
 4733WAT     H214442   6.025   8.017   7.686
 4734WAT      O14443   1.262   1.093   7.127
 4734WAT     H114444   1.356   1.128   7.131
 4734WAT     H214445   1.208   1.136   7.199
 4735WAT      O14446   5.393   3.542   5.851
 4735WAT     H114447   5.339   3.599   5.913
 4735WAT     H214448   5.482   3.586   5.835
 4736WAT      O14449   4.615   2.689   4.839
 4736WAT     H114450   4.642   2.613   4.898
 4736WAT     H214451   4.695   2.746   4.820
 4737WAT      O14452   8.480   7.396   7.542
 4737WAT     H114453   8.538   7.405   7.623
 4737WAT     H214454   8.461   7.299   7.525
 4738WAT      O14455   4.101   3.585   6.966
 4738WAT     H114456   4.036   3.535   6.908
 4738WAT     H214457   4.142   3.659   6.913
 4739WAT      O14458   5.986   0.634   6.829
 4739WAT     H114459   5.925   0.554   6.834
 4739WAT     H214460   6.074   0.611   6.871
 4740WAT      O14461   8.815   8.014   4.543
 4740WAT     H114462   8.735   7.980   4.592
 4740WAT     H214463   8.828   7.959   4.460
 4741WAT      O14464   6.510   8.451   7.473
 4741WAT     H114465   6.547   8.398   7.549
 4741WAT     H214466   6.439   8.399   7.426
 4742WAT      O14467   5.491   2.546   8.332
 4742WAT     H114468   5.536   2.464   8.298
 4742WAT     H214469   5.456   2.529   8.424
 4743WAT      O14470   4.727   0.978   0.372
 4743WAT     H114471   4.760   0.930   0.453
 4743WAT     H214472   4.797   1.043   0.341
 4744WAT      O14473   3.666   2.484   1.468
 4744WAT     H114474   3.591   2.425   1.498
 4744WAT     H214475   3.741   2.479   1.534
 4745WAT      O14476   0.358   6.230   7.129
 4745WAT     H114477   0.453   6.204   7.144
 4745WAT     H214478   0.327   6.194   7.041
 4746WAT      O14479   7.207   1.417   8.744
 4746WAT     H114480   7.134   1.442   8.681
 4746WAT     H214481   7.257   1.339   8.707
 4747WAT      O14482   3.694   2.209   2.509
 4747WAT     H114483   3.662   2.289   2.458
 4747WAT     H214484   3.616   2.167   2.557
 4748WAT      O14485   1.985   8.635   1.889
 4748WAT     H114486   1.994   8.718   1.833
 4748WAT     H214487   1.938   8.564   1.836
 4749WAT      O14488   7.823   2.069   2.437
 4749WAT     H114489   7.883   2.129   2.490
 4749WAT     H214490   7.742   2.047   2.490
 4750WAT      O14491   1.746   0.794   0.135
 4750WAT     H114492   1.799   0.713   0.112
 4750WAT     H214493   1.748   0.859   0.059
 4751WAT      O14494   3.914   8.237   0.385
 4751WAT     H114495   3.958   8.147   0.390
 4751WAT     H214496   3.959   8.292   0.314
 4752WAT      O14497   6.685   1.308   9.784
 4752WAT     H114498   6.763   1.350   9.829
 4752WAT     H214499   6.716   1.231   9.728
 4753WAT      O14500   3.550   1.829   3.410
 4753WAT     H114501   3.633   1.878   3.437
 4753WAT     H214502   3.503   1.795   3.491
 4754WAT      O14503   0.273   3.716   1.727
 4754WAT     H114504   0.287   3.627   1.772
 4754WAT     H214505   0.263   3.702   1.629
 4755WAT      O14506   8.526   1.484   1.955
 4755WAT     H114507   8.597   1.502   2.023
 4755WAT     H214508   8.475   1.568   1.937
 4756WAT      O14509   4.179   5.258   2.455
 4756WAT     H114510   4.092   5.303   2.438
 4756WAT     H214511   4.164   5.161   2.471
 4757WAT      O14512   9.140   6.899   8.108
 4757WAT     H114513   9.094   6.988   8.098
 4757WAT     H214514   9.106   6.837   8.037
 4758WAT      O14515   8.896   7.487   0.175
 4758WAT     H114516   8.915   7.411   0.238
 4758WAT     H214517   8.953   7.565   0.200
 4759WAT      O14518   1.105   8.909   3.618
 4759WAT     H114519   1.019   8.872   3.583
 4759WAT     H214520   1.100   9.009   3.618
 4760WAT      O14521   7.201   8.589   1.959
 4760WAT     H114522   7.274   8.630   1.903
 4760WAT     H214523   7.240   8.554   2.044
 4761WAT      O14524   2.915   2.156   2.741
 4761WAT     H114525   2.995   2.124   2.691
 4761WAT     H214526   2.873   2.233   2.693
 4762WAT      O14527   3.670   8.605   3.958
 4762WAT     H114528   3.669   8.594   4.058
 4762WAT     H214529   3.696   8.699   3.936
 4763WAT      O14530   2.979   7.787   3.654
 4763WAT     H114531   2.902   7.829   3.702
 4763WAT     H214532   3.056   7.851   3.653
 4764WAT      O14533   9.631   2.726   1.431
 4764WAT     H114534   9.611   2.631   1.407
 4764WAT     H214535   9.723   2.750   1.398
 4765WAT      O14536   2.615   2.080   7.000
 4765WAT     H114537   2.525   2.121   6.982
 4765WAT     H214538   2.663   2.135   7.068
 4766WAT      O14539   6.529   2.630   7.126
 4766WAT     H114540   6.493   2.664   7.213
 4766WAT     H214541   6.622   2.596   7.140
 4767WAT      O14542   1.797   6.879   7.642
 4767WAT     H114543   1.877   6.828   7.670
 4767WAT     H214544   1.715   6.822   7.652
 4768WAT      O14545   7.175   5.549   3.154
 4768WAT     H114546   7.175   5.507   3.244
 4768WAT     H214547   7.136   5.484   3.088
 4769WAT      O14548   0.049   6.648   5.350
 4769WAT     H114549   0.055   6.549   5.334
 4769WAT     H214550   0.007   6.665   5.439
 4770WAT      O14551   2.766   1.656   3.894
 4770WAT     H114552   2.769   1.722   3.969
 4770WAT     H214553   2.700   1.687   3.825
 4771WAT      O14554   5.564   7.580   9.665
 4771WAT     H114555   5.472   7.549   9.641
 4771WAT     H214556   5.587   7.550   9.757
 4772WAT      O14557   7.773   1.856   6.406
 4772WAT     H114558   7.737   1.764   6.389
 4772WAT     H214559   7.807   1.895   6.320
 4773WAT      O14560   6.552   6.534   5.674
 4773WAT     H114561   6.496   6.544   5.756
 4773WAT     H214562   6.523   6.600   5.605
 4774WAT      O14563   6.316   1.566   8.229
 4774WAT     H114564   6.236   1.529   8.275
 4774WAT     H214565   6.321   1.665   8.244
 4775WAT      O14566   6.681   3.298   4.185
 4775WAT     H114567   6.711   3.353   4.107
 4775WAT     H214568   6.756   3.237   4.213
 4776WAT      O14569   7.002   2.385   4.127
 4776WAT     H114570   7.021   2.308   4.066
 4776WAT     H214571   7.065   2.382   4.205
 4777WAT      O14572   8.256   6.322   3.777
 4777WAT     H114573   8.198   6.254   3.822
 4777WAT     H214574   8.198   6.385   3.724
 4778WAT      O14575   3.021   4.779   9.288
 4778WAT     H114576   3.001   4.682   9.275
 4778WAT     H214577   3.091   4.808   9.223
 4779WAT      O14578   3.824   8.625   6.527
 4779WAT     H114579   3.849   8.553   6.462
 4779WAT     H214580   3.801   8.584   6.615
 4780WAT      O14581   9.537   1.633   3.958
 4780WAT     H114582   9.561   1.630   3.861
 4780WAT     H214583   9.459   1.693   3.971
 4781WAT      O14584   5.155   2.732   0.069
 4781WAT     H114585   5.233   2.695   0.119
 4781WAT     H214586   5.117   2.660   0.010
 4782WAT      O14587   2.261   0.182   8.215
 4782WAT     H114588   2.195   0.188   8.140
 4782WAT     H214589   2.350   0.217   8.184
 4783WAT      O14590   0.161   6.950   8.639
 4783WAT     H114591   0.182   7.047   8.631
 4783WAT     H214592   0.141   6.928   8.735
 4784WAT      O14593   2.389   3.710   3.945
 4784WAT     H114594   2.441   3.648   3.886
 4784WAT     H214595   2.418   3.698   4.040
 4785WAT      O14596   7.554   8.604   3.664
 4785WAT     H114597   7.483   8.625   3.596
 4785WAT     H214598   7.643   8.633   3.630
 4786WAT      O14599   8.145   2.745   7.844
 4786WAT     H114600   8.096   2.738   7.931
 4786WAT     H214601   8.170   2.654   7.812
 4787WAT      O14602   2.057   1.959   0.615
 4787WAT     H114603   1.965   1.926   0.638
 4787WAT     H214604   2.070   2.050   0.655
 4788WAT      O14605   0.444   2.162   7.131
 4788WAT     H114606   0.398   2.251   7.131
 4788WAT     H214607   0.434   2.120   7.221
 4789WAT      O14608   7.310   0.945   6.044
 4789WAT     H114609   7.230   0.949   5.984
 4789WAT     H214610   7.290   0.994   6.129
 4790WAT      O14611   7.294   3.388   8.330
 4790WAT     H114612   7.382   3.356   8.294
 4790WAT     H214613   7.304   3.481   8.365
 4791WAT      O14614   9.676   3.669   3.660
 4791WAT     H114615   9.769   3.633   3.674
 4791WAT     H214616   9.643   3.641   3.570
 4792WAT      O14617   3.729   5.501   1.689
 4792WAT     H114618   3.654   5.488   1.624
 4792WAT     H214619   3.763   5.595   1.683
 4793WAT      O14620   3.318   6.693   1.526
 4793WAT     H114621   3.350   6.600   1.540
 4793WAT     H214622   3.225   6.692   1.490
 4794WAT      O14623   2.180   2.885   7.567
 4794WAT     H114624   2.255   2.931   7.614
 4794WAT     H214625   2.109   2.951   7.545
 4795WAT      O14626   2.128   9.252   2.739
 4795WAT     H114627   2.218   9.217   2.710
 4795WAT     H214628   2.134   9.287   2.832
 4796WAT      O14629   2.497   4.552   7.811
 4796WAT     H114630   2.459   4.596   7.893
 4796WAT     H214631   2.594   4.574   7.803
 4797WAT      O14632   1.275   7.295   5.963
 4797WAT     H114633   1.345   7.225   5.980
 4797WAT     H214634   1.234   7.280   5.873
 4798WAT      O14635   5.423   4.247   3.985
 4798WAT     H114636   5.352   4.284   3.926
 4798WAT     H214637   5.463   4.321   4.040
 4799WAT      O14638   4.715   0.203   2.008
 4799WAT     H114639   4.762   0.286   1.977
 4799WAT     H214640   4.681   0.152   1.928
 4800WAT      O14641   2.918   6.505   0.418
 4800WAT     H114642   2.982   6.460   0.356
 4800WAT     H214643   2.938   6.478   0.512
 4801WAT      O14644   6.923   4.746   6.813
 4801WAT     H114645   6.833   4.780   6.783
 4801WAT     H214646   6.921   4.646   6.814
 4802WAT      O14647   2.617   9.821   0.825
 4802WAT     H114648   2.667   9.791   0.744
 4802WAT     H214649   2.582   9.742   0.875
 4803WAT      O14650   0.272   4.626   9.535
 4803WAT     H114651   0.173   4.609   9.531
 4803WAT     H214652   0.310   4.627   9.443
 4804WAT      O14653   2.963   5.780   2.815
 4804WAT     H114654   2.925   5.871   2.826
 4804WAT     H214655   2.903   5.713   2.858
 4805WAT      O14656   3.734   9.685   2.272
 4805WAT     H114657   3.818   9.639   2.300
 4805WAT     H214658   3.750   9.784   2.265
 4806WAT      O14659   2.603   9.810   3.812
 4806WAT     H114660   2.539   9.832   3.886
 4806WAT     H214661   2.615   9.711   3.806
 4807WAT      O14662   2.391   7.615   0.494
 4807WAT     H114663   2.345   7.672   0.426
 4807WAT     H214664   2.375   7.519   0.472
 4808WAT      O14665   9.113   4.804   7.882
 4808WAT     H114666   9.096   4.897   7.913
 4808WAT     H214667   9.188   4.764   7.935
 4809WAT      O14668   7.751   1.305   5.562
 4809WAT     H114669   7.771   1.246   5.639
 4809WAT     H214670   7.659   1.343   5.572
 4810WAT      O14671   9.337   9.211   1.675
 4810WAT     H114672   9.421   9.165   1.645
 4810WAT     H214673   9.352   9.310   1.677
 4811WAT      O14674   8.493   4.480   0.406
 4811WAT     H114675   8.509   4.569   0.364
 4811WAT     H214676   8.434   4.490   0.486
 4812WAT      O14677   8.816   4.750   6.586
 4812WAT     H114678   8.912   4.742   6.611
 4812WAT     H214679   8.760   4.745   6.668
 4813WAT      O14680   2.720   5.039   6.966
 4813WAT     H114681   2.620   5.033   6.974
 4813WAT     H214682   2.747   5.020   6.872
 4814WAT      O14683   9.455   7.456   0.453
 4814WAT     H114684   9.393   7.507   0.512
 4814WAT     H214685   9.408   7.433   0.367
 4815WAT      O14686   7.150   3.793   7.937
 4815WAT     H114687   7.187   3.763   8.025
 4815WAT     H214688   7.137   3.892   7.939
 4816WAT      O14689   1.620   6.667   2.216
 4816WAT     H114690   1.691   6.698   2.279
 4816WAT     H214691   1.573   6.746   2.177
 4817WAT      O14692   6.324   3.642   7.546
 4817WAT     H114693   6.413   3.687   7.558
 4817WAT     H214694   6.267   3.698   7.486
 4818WAT      O14695   8.927   5.057   7.342
 4818WAT     H114696   9.015   5.073   7.386
 4818WAT     H214697   8.921   4.961   7.313
 4819WAT      O14698   6.725   3.239   2.941
 4819WAT     H114699   6.778   3.287   2.872
 4819WAT     H214700   6.703   3.302   3.016
 4820WAT      O14701   0.843   1.241   7.343
 4820WAT     H114702   0.872   1.146   7.356
 4820WAT     H214703   0.793   1.248   7.256
 4821WAT      O14704   5.934   6.141   5.798
 4821WAT     H114705   5.896   6.110   5.711
 4821WAT     H214706   5.929   6.241   5.803
 4822WAT      O14707   3.885   5.180   4.962
 4822WAT     H114708   3.825   5.212   5.035
 4822WAT     H214709   3.864   5.084   4.941
 4823WAT      O14710   5.914   1.001   8.322
 4823WAT     H114711   5.972   0.926   8.292
 4823WAT     H214712   5.831   0.965   8.363
 4824WAT      O14713   6.063   1.790   4.146
 4824WAT     H114714   5.988   1.851   4.169
 4824WAT     H214715   6.062   1.771   4.047
 4825WAT      O14716   0.153   2.629   6.120
 4825WAT     H114717   0.229   2.694   6.112
 4825WAT     H214718   0.069   2.678   6.143
 4826WAT      O14719   4.761   1.505   1.735
 4826WAT     H114720   4.706   1.426   1.763
 4826WAT     H214721   4.830   1.475   1.669
 4827WAT      O14722   1.548   3.602   0.771
 4827WAT     H114723   1.608   3.530   0.807
 4827WAT     H214724   1.600   3.686   0.758
 4828WAT      O14725   1.078   0.155   6.474
 4828WAT     H114726   1.128   0.166   6.559
 4828WAT     H214727   1.136   0.182   6.397
 4829WAT      O14728   1.479   5.692   0.261
 4829WAT     H114729   1.505   5.653   0.349
 4829WAT     H214730   1.550   5.756   0.231
 4830WAT      O14731   3.237   0.420   5.888
 4830WAT     H114732   3.275   0.420   5.795
 4830WAT     H214733   3.187   0.506   5.904
 4831WAT      O14734   9.458   0.652   4.713
 4831WAT     H114735   9.463   0.723   4.783
 4831WAT     H214736   9.430   0.566   4.755
 4832WAT      O14737   7.861   1.950   1.362
 4832WAT     H114738   7.854   1.851   1.374
 4832WAT     H214739   7.935   1.970   1.297
 4833WAT      O14740   3.745   1.195   3.463
 4833WAT     H114741   3.673   1.209   3.396
 4833WAT     H214742   3.784   1.103   3.452
 4834WAT      O14743   5.549   3.159   8.304
 4834WAT     H114744   5.579   3.183   8.396
 4834WAT     H214745   5.520   3.241   8.255
 4835WAT      O14746   1.316   7.363   4.908
 4835WAT     H114747   1.218   7.344   4.902
 4835WAT     H214748   1.332   7.440   4.970
 4836WAT      O14749   2.569   4.936   0.022
 4836WAT     H114750   2.565   4.863   0.090
 4836WAT     H214751   2.477   4.971   0.004
 4837WAT      O14752   7.979   4.259   4.688
 4837WAT     H114753   7.917   4.337   4.688
 4837WAT     H214754   7.975   4.213   4.600
 4838WAT      O14755   2.635   0.326   6.693
 4838WAT     H114756   2.673   0.412   6.658
 4838WAT     H214757   2.697   0.251   6.670
 4839WAT      O14758   8.688   8.121   2.705
 4839WAT     H114759   8.714   8.054   2.635
 4839WAT     H214760   8.635   8.195   2.663
 4840WAT      O14761   3.101   1.116   5.305
 4840WAT     H114762   3.024   1.139   5.245
 4840WAT     H214763   3.154   1.041   5.264
 4841WAT      O14764   6.330   4.753   4.339
 4841WAT     H114765   6.394   4.770   4.265
 4841WAT     H214766   6.293   4.840   4.372
 4842WAT      O14767   5.827   2.724   2.584
 4842WAT     H114768   5.745   2.722   2.528
 4842WAT     H214769   5.884   2.802   2.557
 4843WAT      O14770   4.862   5.573   8.581
 4843WAT     H114771   4.872   5.669   8.604
 4843WAT     H214772   4.798   5.530   8.645
 4844WAT      O14773   6.922   2.640   4.044
 4844WAT     H114774   6.935   2.545   4.073
 4844WAT     H214775   6.853   2.643   3.971
 4845WAT      O14776   4.062   3.275   0.582
 4845WAT     H114777   4.115   3.354   0.614
 4845WAT     H214778   4.124   3.207   0.542
 4846WAT      O14779   4.509   0.581   4.794
 4846WAT     H114780   4.448   0.626   4.728
 4846WAT     H214781   4.553   0.651   4.852
 4847WAT      O14782   4.040   1.276   2.058
 4847WAT     H114783   4.129   1.278   2.103
 4847WAT     H214784   3.975   1.332   2.110
 4848WAT      O14785   4.362   6.998   1.391
 4848WAT     H114786   4.295   6.924   1.390
 4848WAT     H214787   4.452   6.961   1.367
 4849WAT      O14788   4.004   6.825   2.928
 4849WAT     H114789   3.938   6.889   2.889
 4849WAT     H214790   4.063   6.789   2.856
 4850WAT      O14791   2.874   3.670   2.085
 4850WAT     H114792   2.834   3.762   2.081
 4850WAT     H214793   2.973   3.675   2.074
 4851WAT      O14794   3.674   5.962   9.819
 4851WAT     H114795   3.664   6.023   9.740
 4851WAT     H214796   3.584   5.928   9.846
 4852WAT      O14797   0.503   3.651   8.449
 4852WAT     H114798   0.451   3.585   8.395
 4852WAT     H214799   0.540   3.722   8.389
 4853WAT      O14800   0.498   2.756   7.368
 4853WAT     H114801   0.460   2.791   7.283
 4853WAT     H214802   0.424   2.722   7.426
 4854WAT      O14803   4.928   9.666   9.716
 4854WAT     H114804   4.883   9.668   9.805
 4854WAT     H214805   4.920   9.756   9.672
 4855WAT      O14806   1.389   8.422   6.486
 4855WAT     H114807   1.464   8.361   6.461
 4855WAT     H214808   1.420   8.483   6.559
 4856WAT      O14809   5.768   3.070   0.675
 4856WAT     H114810   5.738   3.012   0.598
 4856WAT     H214811   5.789   3.162   0.641
 4857WAT      O14812   6.759   3.793   0.384
 4857WAT     H114813   6.742   3.843   0.299
 4857WAT     H214814   6.693   3.822   0.454
 4858WAT      O14815   2.089   1.317   7.662
 4858WAT     H114816   2.169   1.326   7.603
 4858WAT     H214817   2.008   1.351   7.614
 4859WAT      O14818   7.031   7.133   3.113
 4859WAT     H114819   6.969   7.128   3.192
 4859WAT     H214820   6.989   7.190   3.042
 4860WAT      O14821   8.434   3.256   3.840
 4860WAT     H114822   8.458   3.323   3.910
 4860WAT     H214823   8.459   3.164   3.871
 4861WAT      O14824   1.328   8.195   6.672
 4861WAT     H114825   1.279   8.257   6.610
 4861WAT     H214826   1.285   8.104   6.668
 4862WAT      O14827   3.457   3.041   5.378
 4862WAT     H114828   3.383   3.037   5.311
 4862WAT     H214829   3.516   2.960   5.366
 4863WAT      O14830   5.197   6.387   0.585
 4863WAT     H114831   5.273   6.414   0.526
 4863WAT     H214832   5.220   6.408   0.680
 4864WAT      O14833   8.355   8.642   7.083
 4864WAT     H114834   8.258   8.620   7.081
 4864WAT     H214835   8.389   8.651   6.990
 4865WAT      O14836   4.886   8.986   5.250
 4865WAT     H114837   4.797   8.951   5.279
 4865WAT     H214838   4.957   8.921   5.278
 4866WAT      O14839   2.359   8.222   5.888
 4866WAT     H114840   2.262   8.243   5.875
 4866WAT     H214841   2.414   8.290   5.840
 4867WAT      O14842   8.685   4.082   1.059
 4867WAT     H114843   8.708   4.085   1.156
 4867WAT     H214844   8.768   4.067   1.006
 4868WAT      O14845   0.427   4.275   9.414
 4868WAT     H114846   0.458   4.196   9.467
 4868WAT     H214847   0.471   4.358   9.449
 4869WAT      O14848   4.000   2.439   1.131
 4869WAT     H114849   3.992   2.477   1.039
 4869WAT     H214850   3.926   2.374   1.146
 4870WAT      O14851   1.993   4.217   7.679
 4870WAT     H114852   1.938   4.276   7.619
 4870WAT     H214853   2.086   4.254   7.685
 4871WAT      O14854   7.855   6.647   2.069
 4871WAT     H114855   7.914   6.693   2.002
 4871WAT     H214856   7.906   6.633   2.154
 4872WAT      O14857   7.978   3.718   6.353
 4872WAT     H114858   7.999   3.676   6.265
 4872WAT     H214859   7.939   3.809   6.338
 4873WAT      O14860   6.896   5.148   9.060
 4873WAT     H114861   6.868   5.064   9.014
 4873WAT     H214862   6.948   5.205   8.996
 4874WAT      O14863   1.805   6.486   6.470
 4874WAT     H114864   1.763   6.405   6.510
 4874WAT     H214865   1.896   6.464   6.436
 4875WAT      O14866   6.356   8.165   8.588
 4875WAT     H114867   6.328   8.069   8.589
 4875WAT     H214868   6.444   8.174   8.541
 4876WAT      O14869   8.207   9.016   5.115
 4876WAT     H114870   8.108   9.024   5.108
 4876WAT     H214871   8.250   9.060   5.037
 4877WAT      O14872   9.217   0.051   0.372
 4877WAT     H114873   9.147   0.027   0.305
 4877WAT     H214874   9.266   0.132   0.342
 4878WAT      O14875   5.578   3.633   8.595
 4878WAT     H114876   5.577   3.712   8.657
 4878WAT     H214877   5.647   3.567   8.627
 4879WAT      O14878   6.798   0.578   3.499
 4879WAT     H114879   6.775   0.496   3.447
 4879WAT     H214880   6.898   0.587   3.504
 4880WAT      O14881   3.305   2.226   0.696
 4880WAT     H114882   3.315   2.145   0.754
 4880WAT     H214883   3.252   2.202   0.615
 4881WAT      O14884   0.903   6.432   4.101
 4881WAT     H114885   0.912   6.434   4.201
 4881WAT     H214886   0.842   6.358   4.075
 4882WAT      O14887   6.527   4.807   1.676
 4882WAT     H114888   6.495   4.802   1.581
 4882WAT     H214889   6.449   4.828   1.735
 4883WAT      O14890   9.881   8.309   1.249
 4883WAT     H114891   9.944   8.381   1.220
 4883WAT     H214892   9.828   8.342   1.328
 4884WAT      O14893   7.073   4.851   3.861
 4884WAT     H114894   7.135   4.930   3.861
 4884WAT     H214895   6.994   4.871   3.920
 4885WAT      O14896   7.133   0.314   5.526
 4885WAT     H114897   7.126   0.254   5.446
 4885WAT     H214898   7.042   0.324   5.567
 4886WAT      O14899   2.265   6.501   7.454
 4886WAT     H114900   2.188   6.553   7.419
 4886WAT     H214901   2.350   6.542   7.421
 4887WAT      O14902   0.169   7.217   6.704
 4887WAT     H114903   0.165   7.274   6.622
 4887WAT     H214904   0.262   7.183   6.717
 4888WAT      O14905   8.586   2.417   6.618
 4888WAT     H114906   8.497   2.412   6.663
 4888WAT     H214907   8.639   2.492   6.658
 4889WAT      O14908   7.115   6.579   6.211
 4889WAT     H114909   7.136   6.548   6.304
 4889WAT     H214910   7.156   6.669   6.196
 4890WAT      O14911   5.986   9.095   3.140
 4890WAT     H114912   5.965   9.067   3.234
 4890WAT     H214913   5.941   9.183   3.122
 4891WAT      O14914   3.402   8.065   9.804
 4891WAT     H114915   3.405   8.081   9.705
 4891WAT     H214916   3.479   8.006   9.830
 4892WAT      O14917   3.621   0.560   6.459
 4892WAT     H114918   3.528   0.528   6.476
 4892WAT     H214919   3.639   0.640   6.516
 4893WAT      O14920   5.871   2.971   6.178
 4893WAT     H114921   5.828   3.057   6.202
 4893WAT     H214922   5.807   2.896   6.195
 4894WAT      O14923   1.695   7.859   0.390
 4894WAT     H114924   1.640   7.894   0.314
 4894WAT     H214925   1.733   7.935   0.442
 4895WAT      O14926   5.931   9.008   9.736
 4895WAT     H114927   5.877   9.084   9.774
 4895WAT     H214928   6.028   9.030   9.741
 4896WAT      O14929   9.523   1.114   0.677
 4896WAT     H114930   9.455   1.120   0.750
 4896WAT     H214931   9.478   1.130   0.589
 4897WAT      O14932   2.658   5.951   3.627
 4897WAT     H114933   2.735   5.890   3.609
 4897WAT     H214934   2.662   6.029   3.563
 4898WAT      O14935   2.601   5.416   0.593
 4898WAT     H114936   2.581   5.504   0.636
 4898WAT     H214937   2.678   5.373   0.640
 4899WAT      O14938   3.489   2.740   4.522
 4899WAT     H114939   3.408   2.722   4.466
 4899WAT     H214940   3.539   2.655   4.536
 4900WAT      O14941   3.137   5.764   4.326
 4900WAT     H114942   3.092   5.801   4.245
 4900WAT     H214943   3.223   5.812   4.340
 4901WAT      O14944   9.607   8.392   4.005
 4901WAT     H114945   9.643   8.337   4.081
 4901WAT     H214946   9.511   8.412   4.021
 4902WAT      O14947   9.662   4.952   6.394
 4902WAT     H114948   9.751   4.905   6.395
 4902WAT     H214949   9.656   5.009   6.312
 4903WAT      O14950   7.538   2.766   8.599
 4903WAT     H114951   7.600   2.779   8.676
 4903WAT     H214952   7.567   2.687   8.545
 4904WAT      O14953   4.980   3.229   8.808
 4904WAT     H114954   4.923   3.271   8.738
 4904WAT     H214955   5.072   3.269   8.805
 4905WAT      O14956   2.481   9.828   2.053
 4905WAT     H114957   2.393   9.826   2.100
 4905WAT     H214958   2.551   9.867   2.113
 4906WAT      O14959   9.566   8.649   7.166
 4906WAT     H114960   9.586   8.663   7.069
 4906WAT     H214961   9.468   8.634   7.178
 4907WAT      O14962   7.119   3.396   2.673
 4907WAT     H114963   7.169   3.424   2.755
 4907WAT     H214964   7.105   3.475   2.614
 4908WAT      O14965   8.606   2.441   4.629
 4908WAT     H114966   8.555   2.393   4.558
 4908WAT     H214967   8.555   2.523   4.656
 4909WAT      O14968   1.061   5.957   9.207
 4909WAT     H114969   1.137   5.987   9.150
 4909WAT     H214970   0.993   6.030   9.212
 4910WAT      O14971   5.890   8.847   0.570
 4910WAT     H114972   5.979   8.804   0.580
 4910WAT     H214973   5.886   8.930   0.626
 4911WAT      O14974   8.954   2.889   2.004
 4911WAT     H114975   9.032   2.848   1.957
 4911WAT     H214976   8.871   2.837   1.983
 4912WAT      O14977   7.391   9.524   3.736
 4912WAT     H114978   7.477   9.545   3.782
 4912WAT     H214979   7.343   9.451   3.785
 4913WAT      O14980   9.874   2.744   6.952
 4913WAT     H114981   9.940   2.743   6.877
 4913WAT     H214982   9.915   2.789   7.031
 4914WAT      O14983   8.285   3.603   0.177
 4914WAT     H114984   8.352   3.654   0.124
 4914WAT     H214985   8.268   3.649   0.264
 4915WAT      O14986   9.671   7.735   8.812
 4915WAT     H114987   9.713   7.739   8.902
 4915WAT     H214988   9.585   7.786   8.813
 4916WAT      O14989   4.837   0.903   1.961
 4916WAT     H114990   4.831   0.938   2.054
 4916WAT     H214991   4.804   0.808   1.959
 4917WAT      O14992   3.119   6.310   1.901
 4917WAT     H114993   3.206   6.307   1.950
 4917WAT     H214994   3.047   6.272   1.959
 4918WAT      O14995   1.076   3.258   0.661
 4918WAT     H114996   1.048   3.305   0.578
 4918WAT     H214997   1.016   3.179   0.676
 4919WAT      O14998   3.370   4.571   3.488
 4919WAT     H114999   3.390   4.559   3.391
 4919WAT     H215000   3.278   4.609   3.499
 4920WAT      O15001   4.501   8.101   8.781
 4920WAT     H115002   4.434   8.143   8.843
 4920WAT     H215003   4.578   8.164   8.768
 4921WAT      O15004   6.156   0.478   8.154
 4921WAT     H115005   6.110   0.391   8.133
 4921WAT     H215006   6.189   0.519   8.070
 4922WAT      O15007   4.888   6.503   6.387
 4922WAT     H115008   4.858   6.432   6.323
 4922WAT     H215009   4.903   6.462   6.477
 4923WAT      O15010   2.578   0.269   1.687
 4923WAT     H115011   2.620   0.188   1.729
 4923WAT     H215012   2.478   0.260   1.691
 4924WAT      O15013   2.805   6.019   7.239
 4924WAT     H115014   2.840   6.009   7.145
 4924WAT     H215015   2.881   6.039   7.300
 4925WAT      O15016   8.818   7.155   1.750
 4925WAT     H115017   8.832   7.127   1.846
 4925WAT     H215018   8.763   7.086   1.703
 4926WAT      O15019   6.682   4.376   7.464
 4926WAT     H115020   6.714   4.318   7.389
 4926WAT     H215021   6.591   4.413   7.441
 4927WAT      O15022   9.251   2.230   5.474
 4927WAT     H115023   9.180   2.179   5.426
 4927WAT     H215024   9.278   2.309   5.419
 4928WAT      O15025   4.682   7.416   9.206
 4928WAT     H115026   4.673   7.485   9.133
 4928WAT     H215027   4.615   7.435   9.278
 4929WAT      O15028   8.290   2.557   0.330
 4929WAT     H115029   8.315   2.584   0.423
 4929WAT     H215030   8.260   2.462   0.331
 4930WAT      O15031   7.791   9.386   8.968
 4930WAT     H115032   7.747   9.297   8.961
 4930WAT     H215033   7.769   9.441   8.888
 4931WAT      O15034   0.961   2.936   3.331
 4931WAT     H115035   0.917   2.890   3.407
 4931WAT     H215036   0.915   3.023   3.312
 4932WAT      O15037   3.353   0.696   3.517
 4932WAT     H115038   3.339   0.723   3.612
 4932WAT     H215039   3.413   0.616   3.514
 4933WAT      O15040   9.590   8.215   8.273
 4933WAT     H115041   9.574   8.273   8.193
 4933WAT     H215042   9.679   8.170   8.264
 4934WAT      O15043   2.265   4.466   4.843
 4934WAT     H115044   2.244   4.522   4.923
 4934WAT     H215045   2.180   4.437   4.799
 4935WAT      O15046   8.404   8.672   4.526
 4935WAT     H115047   8.433   8.609   4.453
 4935WAT     H215048   8.408   8.766   4.492
 4936WAT      O15049   8.431   4.557   9.728
 4936WAT     H115050   8.472   4.645   9.703
 4936WAT     H215051   8.499   4.501   9.775
 4937WAT      O15052   7.145   6.805   3.792
 4937WAT     H115053   7.231   6.803   3.742
 4937WAT     H215054   7.096   6.889   3.771
 4938WAT      O15055   0.807   0.121   5.358
 4938WAT     H115056   0.720   0.120   5.309
 4938WAT     H215057   0.827   0.214   5.389
 4939WAT      O15058   8.450   0.213   9.267
 4939WAT     H115059   8.482   0.308   9.258
 4939WAT     H215060   8.500   0.168   9.341
 4940WAT      O15061   8.882   8.264   4.090
 4940WAT     H115062   8.804   8.237   4.147
 4940WAT     H215063   8.967   8.246   4.139
 4941WAT      O15064   4.328   3.399   4.271
 4941WAT     H115065   4.375   3.359   4.349
 4941WAT     H215066   4.329   3.498   4.278
 4942WAT      O15067   7.163   4.500   1.447
 4942WAT     H115068   7.087   4.565   1.458
 4942WAT     H215069   7.186   4.492   1.350
 4943WAT      O15070   3.517   2.986   2.651
 4943WAT     H115071   3.447   2.927   2.612
 4943WAT     H215072   3.565   2.938   2.724
 4944WAT      O15073   9.474   4.872   7.366
 4944WAT     H115074   9.521   4.916   7.443
 4944WAT     H215075   9.409   4.937   7.326
 4945WAT      O15076   3.481   6.231   3.211
 4945WAT     H115077   3.382   6.237   3.213
 4945WAT     H215078   3.521   6.320   3.234
 4946WAT      O15079   0.547   5.068   7.879
 4946WAT     H115080   0.565   5.101   7.786
 4946WAT     H215081   0.469   5.006   7.878
 4947WAT      O15082   7.588   9.826   7.452
 4947WAT     H115083   7.489   9.820   7.468
 4947WAT     H215084   7.633   9.857   7.536
 4948WAT      O15085   2.379   6.113   9.035
 4948WAT     H115086   2.369   6.212   9.042
 4948WAT     H215087   2.308   6.068   9.090
 4949WAT      O15088   1.071   0.342   1.044
 4949WAT     H115089   1.129   0.273   1.088
 4949WAT     H215090   1.104   0.359   0.951
 4950WAT      O15091   5.059   1.901   9.611
 4950WAT     H115092   5.151   1.939   9.619
 4950WAT     H215093   5.064   1.803   9.594
 4951WAT      O15094   1.305   1.145   8.736
 4951WAT     H115095   1.309   1.046   8.742
 4951WAT     H215096   1.378   1.178   8.677
 4952WAT      O15097   8.137   9.604   4.660
 4952WAT     H115098   8.061   9.547   4.629
 4952WAT     H215099   8.178   9.563   4.742
 4953WAT      O15100   3.452   7.170   2.085
 4953WAT     H115101   3.406   7.168   1.997
 4953WAT     H215102   3.396   7.122   2.153
 4954WAT      O15103   5.917   1.338   3.980
 4954WAT     H115104   5.832   1.375   3.944
 4954WAT     H215105   5.946   1.390   4.061
 4955WAT      O15106   0.501   2.672   0.446
 4955WAT     H115107   0.519   2.730   0.366
 4955WAT     H215108   0.566   2.694   0.518
 4956WAT      O15109   2.486   7.248   1.995
 4956WAT     H115110   2.507   7.161   2.040
 4956WAT     H215111   2.564   7.278   1.941
 4957WAT      O15112   1.479   9.833   6.465
 4957WAT     H115113   1.454   9.867   6.556
 4957WAT     H215114   1.559   9.774   6.472
 4958WAT      O15115   6.229   8.950   0.145
 4958WAT     H115116   6.235   8.967   0.046
 4958WAT     H215117   6.264   9.029   0.195
 4959WAT      O15118   3.246   2.442   8.259
 4959WAT     H115119   3.162   2.495   8.266
 4959WAT     H215120   3.319   2.488   8.309
 4960WAT      O15121   1.705   0.695   0.835
 4960WAT     H115122   1.769   0.704   0.759
 4960WAT     H215123   1.667   0.786   0.857
 4961WAT      O15124   7.302   0.407   7.516
 4961WAT     H115125   7.305   0.432   7.419
 4961WAT     H215126   7.237   0.466   7.564
 4962WAT      O15127   7.272   6.283   4.339
 4962WAT     H115128   7.371   6.273   4.332
 4962WAT     H215129   7.228   6.202   4.299
 4963WAT      O15130   8.832   7.441   4.519
 4963WAT     H115131   8.812   7.375   4.592
 4963WAT     H215132   8.929   7.436   4.496
 4964WAT      O15133   1.873   0.243   7.820
 4964WAT     H115134   1.786   0.195   7.807
 4964WAT     H215135   1.929   0.235   7.738
 4965WAT      O15136   5.144   7.816   3.720
 4965WAT     H115137   5.052   7.832   3.685
 4965WAT     H215138   5.178   7.728   3.686
 4966WAT      O15139   7.260   6.333   3.075
 4966WAT     H115140   7.259   6.432   3.092
 4966WAT     H215141   7.324   6.313   3.001
 4967WAT      O15142   4.705   0.378   5.912
 4967WAT     H115143   4.749   0.389   6.001
 4967WAT     H215144   4.633   0.447   5.901
 4968WAT      O15145   4.625   7.806   7.124
 4968WAT     H115146   4.638   7.867   7.046
 4968WAT     H215147   4.560   7.734   7.100
 4969WAT      O15148   0.908   9.624   0.905
 4969WAT     H115149   0.815   9.661   0.902
 4969WAT     H215150   0.957   9.650   0.821
 4970WAT      O15151   0.810   4.276   5.393
 4970WAT     H115152   0.820   4.284   5.492
 4970WAT     H215153   0.889   4.317   5.348
 4971WAT      O15154   7.216   8.557   6.235
 4971WAT     H115155   7.243   8.537   6.140
 4971WAT     H215156   7.217   8.656   6.250
 4972WAT      O15157   1.712   7.257   8.971
 4972WAT     H115158   1.805   7.250   9.006
 4972WAT     H215159   1.669   7.166   8.972
 4973WAT      O15160   4.969   0.711   0.304
 4973WAT     H115161   5.045   0.648   0.324
 4973WAT     H215162   4.912   0.722   0.386
 4974WAT      O15163   1.877   1.086   4.611
 4974WAT     H115164   1.969   1.113   4.638
 4974WAT     H215165   1.811   1.149   4.651
 4975WAT      O15166   4.878   0.212   9.765
 4975WAT     H115167   4.874   0.171   9.856
 4975WAT     H215168   4.852   0.143   9.697
 4976WAT      O15169   7.059   2.624   4.827
 4976WAT     H115170   7.040   2.706   4.880
 4976WAT     H215171   7.155   2.624   4.799
 4977WAT      O15172   5.071   2.893   7.276
 4977WAT     H115173   5.101   2.946   7.356
 4977WAT     H215174   5.088   2.796   7.292
 4978WAT      O15175   4.580   8.660   7.196
 4978WAT     H115176   4.513   8.592   7.226
 4978WAT     H215177   4.563   8.684   7.101
 4979WAT      O15178   9.872   1.103   7.897
 4979WAT     H115179   9.830   1.013   7.911
 4979WAT     H215180   9.805   1.175   7.917
 4980WAT      O15181   7.698   9.682   0.887
 4980WAT     H115182   7.711   9.685   0.986
 4980WAT     H215183   7.757   9.611   0.848
 4981WAT      O15184   4.443   9.092   4.878
 4981WAT     H115185   4.518   9.088   4.813
 4981WAT     H215186   4.442   9.008   4.933
 4982WAT      O15187   2.643   8.420   7.664
 4982WAT     H115188   2.664   8.369   7.747
 4982WAT     H215189   2.545   8.413   7.645
 4983WAT      O15190   5.559   8.485   1.341
 4983WAT     H115191   5.523   8.406   1.291
 4983WAT     H215192   5.601   8.548   1.276
 4984WAT      O15193   2.083   7.562   0.997
 4984WAT     H115194   2.112   7.515   0.913
 4984WAT     H215195   2.151   7.549   1.068
 4985WAT      O15196   8.854   8.066   7.102
 4985WAT     H115197   8.825   8.058   7.197
 4985WAT     H215198   8.826   8.155   7.066
 4986WAT      O15199   2.782   7.469   8.555
 4986WAT     H115200   2.819   7.535   8.620
 4986WAT     H215201   2.700   7.505   8.512
 4987WAT      O15202   0.173   7.317   0.215
 4987WAT     H115203   0.253   7.262   0.241
 4987WAT     H215204   0.089   7.269   0.240
 4988WAT      O15205   7.190   7.815   4.677
 4988WAT     H115206   7.235   7.897   4.643
 4988WAT     H215207   7.095   7.836   4.703
 4989WAT      O15208   4.508   9.493   1.830
 4989WAT     H115209   4.471   9.585   1.816
 4989WAT     H215210   4.508   9.443   1.743
 4990WAT      O15211   6.987   4.063   2.782
 4990WAT     H115212   6.986   4.163   2.787
 4990WAT     H215213   7.079   4.030   2.801
 4991WAT      O15214   3.442   7.510   6.516
 4991WAT     H115215   3.420   7.436   6.580
 4991WAT     H215216   3.374   7.512   6.442
 4992WAT      O15217   1.109   7.189   8.614
 4992WAT     H115218   1.128   7.104   8.566
 4992WAT     H215219   1.048   7.246   8.559
 4993WAT      O15220   4.382   3.962   8.348
 4993WAT     H115221   4.282   3.968   8.351
 4993WAT     H215222   4.410   3.911   8.267
 4994WAT      O15223   0.477   7.731   4.542
 4994WAT     H115224   0.534   7.797   4.493
 4994WAT     H215225   0.386   7.728   4.502
 4995WAT      O15226   5.099   6.742   5.364
 4995WAT     H115227   5.093   6.643   5.370
 4995WAT     H215228   5.010   6.783   5.387
 4996WAT      O15229   8.085   6.116   5.781
 4996WAT     H115230   8.180   6.094   5.805
 4996WAT     H215231   8.065   6.083   5.689
 4997WAT      O15232   2.233   9.129   0.132
 4997WAT     H115233   2.204   9.056   0.070
 4997WAT     H215234   2.188   9.214   0.107
 4998WAT      O15235   6.632   1.529   9.086
 4998WAT     H115236   6.584   1.493   9.006
 4998WAT     H215237   6.617   1.627   9.093
 4999WAT      O15238   0.906   3.898   1.474
 4999WAT     H115239   0.960   3.951   1.409
 4999WAT     H215240   0.861   3.822   1.426
 5000WAT      O15241   7.708   2.763   7.492
 5000WAT     H115242   7.701   2.780   7.590
 5000WAT     H215243   7.628   2.800   7.446
 5001WAT      O15244   9.055   5.572   0.360
 5001WAT     H115245   9.033   5.609   0.450
 5001WAT     H215246   9.097   5.482   0.371
 5002WAT      O15247   9.311   3.194   4.049
 5002WAT     H115248   9.386   3.250   4.014
 5002WAT     H215249   9.320   3.101   4.015
 5003WAT      O15250   8.124   3.425   3.005
 5003WAT     H115251   8.042   3.399   3.057
 5003WAT     H215252   8.101   3.496   2.939
 5004WAT      O15253   2.452   1.865   7.158
 5004WAT     H115254   2.494   1.939   7.105
 5004WAT     H215255   2.482   1.777   7.122
 5005WAT      O15256   6.977   3.992   0.494
 5005WAT     H115257   6.981   3.956   0.587
 5005WAT     H215258   7.057   4.049   0.476
 5006WAT      O15259   8.113   9.595   1.003
 5006WAT     H115260   8.043   9.529   1.031
 5006WAT     H215261   8.203   9.550   1.002
 5007WAT      O15262   3.206   9.670   8.735
 5007WAT     H115263   3.251   9.756   8.710
 5007WAT     H215264   3.246   9.595   8.683
 5008WAT      O15265   8.267   4.926   7.014
 5008WAT     H115266   8.231   4.953   6.925
 5008WAT     H215267   8.211   4.966   7.087
 5009WAT      O15268   1.755   8.828   9.177
 5009WAT     H115269   1.699   8.885   9.116
 5009WAT     H215270   1.805   8.761   9.123
 5010WAT      O15271   2.228   5.369   0.032
 5010WAT     H115272   2.299   5.403   0.093
 5010WAT     H215273   2.271   5.331  -0.050
 5011WAT      O15274   1.802   0.562   7.164
 5011WAT     H115275   1.892   0.548   7.123
 5011WAT     H215276   1.767   0.652   7.139
 5012WAT      O15277   3.897   0.126   2.895
 5012WAT     H115278   3.896   0.057   2.967
 5012WAT     H215279   3.837   0.202   2.921
 5013WAT      O15280   2.046   2.661   4.652
 5013WAT     H115281   1.984   2.732   4.686
 5013WAT     H215282   2.025   2.640   4.557
 5014WAT      O15283   2.229   3.749   6.037
 5014WAT     H115284   2.230   3.829   6.097
 5014WAT     H215285   2.313   3.747   5.982
 5015WAT      O15286   4.242   7.622   5.565
 5015WAT     H115287   4.256   7.708   5.614
 5015WAT     H215288   4.238   7.639   5.467
 5016WAT      O15289   2.994   8.257   3.510
 5016WAT     H115290   2.962   8.176   3.461
 5016WAT     H215291   2.934   8.334   3.489
 5017WAT      O15292   8.984   0.278   4.293
 5017WAT     H115293   9.005   0.285   4.390
 5017WAT     H215294   8.948   0.365   4.259
 5018WAT      O15295   4.754   7.360   1.325
 5018WAT     H115296   4.827   7.395   1.267
 5018WAT     H215297   4.669   7.356   1.273
 5019WAT      O15298   3.958   2.656   2.780
 5019WAT     H115299   3.871   2.634   2.736
 5019WAT     H215300   3.964   2.609   2.868
 5020WAT      O15301   7.818   1.470   7.176
 5020WAT     H115302   7.828   1.560   7.219
 5020WAT     H215303   7.722   1.454   7.156
 5021WAT      O15304   3.640   6.858   3.172
 5021WAT     H115305   3.578   6.893   3.242
 5021WAT     H215306   3.713   6.924   3.155
 5022WAT      O15307   6.704   1.740   6.447
 5022WAT     H115308   6.605   1.754   6.460
 5022WAT     H215309   6.718   1.665   6.383
 5023WAT      O15310   6.543   9.632   8.307
 5023WAT     H115311   6.608   9.699   8.271
 5023WAT     H215312   6.452   9.673   8.310
 5024WAT      O15313   6.684   4.810   9.383
 5024WAT     H115314   6.696   4.718   9.419
 5024WAT     H215315   6.762   4.867   9.410
 5025WAT      O15316   4.660   0.216   7.182
 5025WAT     H115317   4.705   0.195   7.096
 5025WAT     H215318   4.565   0.183   7.179
 5026WAT      O15319   4.249   7.770   7.668
 5026WAT     H115320   4.330   7.813   7.709
 5026WAT     H215321   4.271   7.739   7.576
 5027WAT      O15322   9.777   7.072   0.774
 5027WAT     H115323   9.725   7.134   0.832
 5027WAT     H215324   9.714   7.016   0.721
 5028WAT      O15325   6.608   7.996   2.323
 5028WAT     H115326   6.700   7.980   2.287
 5028WAT     H215327   6.584   7.922   2.386
 5029WAT      O15328   9.057   0.046   7.219
 5029WAT     H115329   9.108  -0.008   7.152
 5029WAT     H215330   8.960   0.019   7.216
 5030WAT      O15331   3.265   6.115   5.681
 5030WAT     H115332   3.349   6.065   5.701
 5030WAT     H215333   3.190   6.051   5.668
 5031WAT      O15334   1.890   9.797   6.089
 5031WAT     H115335   1.911   9.728   6.158
 5031WAT     H215336   1.933   9.884   6.115
 5032WAT      O15337   6.349   4.270   0.503
 5032WAT     H115338   6.359   4.341   0.433
 5032WAT     H215339   6.256   4.232   0.499
 5033WAT      O15340   5.585   9.531   1.858
 5033WAT     H115341   5.558   9.588   1.781
 5033WAT     H215342   5.505   9.514   1.917
 5034WAT      O15343   2.661   0.163   6.129
 5034WAT     H115344   2.739   0.209   6.172
 5034WAT     H215345   2.667   0.065   6.146
 5035WAT      O15346   2.507   1.744   0.011
 5035WAT     H115347   2.477   1.765   0.104
 5035WAT     H215348   2.564   1.819  -0.023
 5036WAT      O15349   8.945   8.970   3.184
 5036WAT     H115350   8.845   8.970   3.173
 5036WAT     H215351   8.968   8.966   3.281
 5037WAT      O15352   4.415   1.381   4.966
 5037WAT     H115353   4.429   1.472   5.006
 5037WAT     H215354   4.481   1.317   5.004
 5038WAT      O15355   6.749   6.924   5.110
 5038WAT     H115356   6.795   6.839   5.134
 5038WAT     H215357   6.813   7.000   5.114
 5039WAT      O15358   7.184   3.259   3.773
 5039WAT     H115359   7.113   3.241   3.705
 5039WAT     H215360   7.163   3.344   3.822
 5040WAT      O15361   5.504   9.237   2.023
 5040WAT     H115362   5.599   9.226   2.053
 5040WAT     H215363   5.449   9.275   2.098
 5041WAT      O15364   9.579   8.607   1.707
 5041WAT     H115365   9.554   8.697   1.744
 5041WAT     H215366   9.668   8.612   1.663
 5042WAT      O15367   6.991   1.498   6.696
 5042WAT     H115368   7.006   1.465   6.789
 5042WAT     H215369   6.924   1.440   6.650
 5043WAT      O15370   4.096   1.309   0.763
 5043WAT     H115371   4.048   1.392   0.790
 5043WAT     H215372   4.057   1.231   0.811
 5044WAT      O15373   7.169   3.863   1.729
 5044WAT     H115374   7.214   3.942   1.687
 5044WAT     H215375   7.150   3.794   1.659
 5045WAT      O15376   3.993   9.697   2.509
 5045WAT     H115377   4.037   9.705   2.599
 5045WAT     H215378   3.907   9.748   2.510
 5046WAT      O15379   6.100   2.729   7.499
 5046WAT     H115380   6.110   2.766   7.592
 5046WAT     H215381   6.099   2.804   7.433
 5047WAT      O15382   1.775   7.298   2.717
 5047WAT     H115383   1.744   7.279   2.810
 5047WAT     H215384   1.790   7.212   2.668
 5048WAT      O15385   3.955   1.214   6.491
 5048WAT     H115386   3.903   1.128   6.489
 5048WAT     H215387   3.925   1.270   6.568
 5049WAT      O15388   8.585   6.916   4.366
 5049WAT     H115389   8.524   6.856   4.314
 5049WAT     H215390   8.671   6.928   4.317
 5050WAT      O15391   1.237   6.037   7.522
 5050WAT     H115392   1.324   5.989   7.506
 5050WAT     H215393   1.222   6.047   7.620
 5051WAT      O15394   7.808   3.769   7.370
 5051WAT     H115395   7.874   3.694   7.376
 5051WAT     H215396   7.786   3.801   7.462
 5052WAT      O15397   2.273   6.858   9.611
 5052WAT     H115398   2.323   6.798   9.549
 5052WAT     H215399   2.282   6.953   9.581
 5053WAT      O15400   6.598   0.286   5.874
 5053WAT     H115401   6.529   0.228   5.916
 5053WAT     H215402   6.689   0.250   5.897
 5054WAT      O15403   6.793   9.049   8.055
 5054WAT     H115404   6.723   8.987   8.021
 5054WAT     H215405   6.838   9.095   7.978
 5055WAT      O15406   8.810   0.895   9.527
 5055WAT     H115407   8.894   0.842   9.540
 5055WAT     H215408   8.783   0.936   9.614
 5056WAT      O15409   4.787   9.797   6.565
 5056WAT     H115410   4.706   9.856   6.565
 5056WAT     H215411   4.861   9.841   6.617
 5057WAT      O15412   6.544   6.211   0.824
 5057WAT     H115413   6.502   6.258   0.746
 5057WAT     H215414   6.510   6.117   0.829
 5058WAT      O15415   8.194   7.236   6.009
 5058WAT     H115416   8.116   7.175   6.000
 5058WAT     H215417   8.266   7.191   6.061
 5059WAT      O15418   6.925   9.047   1.935
 5059WAT     H115419   6.902   9.011   1.845
 5059WAT     H215420   7.018   9.019   1.959
 5060WAT      O15421   2.865   3.419   2.972
 5060WAT     H115422   2.773   3.387   2.946
 5060WAT     H215423   2.920   3.433   2.890
 5061WAT      O15424   9.460   3.613   0.046
 5061WAT     H115425   9.365   3.635   0.024
 5061WAT     H215426   9.480   3.640   0.141
 5062WAT      O15427   5.119   1.863   3.517
 5062WAT     H115428   5.130   1.865   3.417
 5062WAT     H215429   5.023   1.874   3.540
 5063WAT      O15430   1.662   6.994   9.048
 5063WAT     H115431   1.665   7.001   9.148
 5063WAT     H215432   1.738   6.937   9.016
 5064WAT      O15433   4.811   3.630   8.562
 5064WAT     H115434   4.838   3.695   8.491
 5064WAT     H215435   4.838   3.666   8.651
 5065WAT      O15436   2.365   5.196   2.517
 5065WAT     H115437   2.282   5.234   2.558
 5065WAT     H215438   2.380   5.238   2.428
 5066WAT      O15439   0.285   2.256   2.014
 5066WAT     H115440   0.193   2.231   1.985
 5066WAT     H215441   0.297   2.233   2.111
 5067WAT      O15442   4.171   7.953   1.658
 5067WAT     H115443   4.204   7.907   1.575
 5067WAT     H215444   4.248   7.997   1.704
 5068WAT      O15445   1.070   2.335   6.404
 5068WAT     H115446   1.028   2.251   6.371
 5068WAT     H215447   1.011   2.413   6.381
 5069WAT      O15448   1.371   0.579   5.189
 5069WAT     H115449   1.389   0.674   5.164
 5069WAT     H215450   1.311   0.537   5.122
 5070WAT      O15451   1.544   0.281   8.446
 5070WAT     H115452   1.618   0.217   8.466
 5070WAT     H215453   1.534   0.291   8.347
 5071WAT      O15454   1.240   6.434   7.153
 5071WAT     H115455   1.316   6.408   7.213
 5071WAT     H215456   1.253   6.392   7.063
 5072WAT      O15457   9.162   7.306   0.457
 5072WAT     H115458   9.224   7.236   0.493
 5072WAT     H215459   9.081   7.263   0.419
 5073WAT      O15460   1.941   3.169   6.500
 5073WAT     H115461   1.973   3.264   6.508
 5073WAT     H215462   2.015   3.111   6.466
 5074WAT      O15463   0.902   3.029   1.901
 5074WAT     H115464   0.957   3.106   1.935
 5074WAT     H215465   0.911   2.952   1.964
 5075WAT      O15466   0.615   7.879   6.314
 5075WAT     H115467   0.578   7.934   6.239
 5075WAT     H215468   0.559   7.796   6.325
 5076WAT      O15469   6.118   1.606   6.343
 5076WAT     H115470   6.019   1.617   6.353
 5076WAT     H215471   6.157   1.691   6.305
 5077WAT      O15472   4.969   7.436   1.165
 5077WAT     H115473   4.984   7.374   1.088
 5077WAT     H215474   4.968   7.531   1.132
 5078WAT      O15475   2.605   8.906   5.145
 5078WAT     H115476   2.534   8.968   5.113
 5078WAT     H215477   2.644   8.940   5.230
 5079WAT      O15478   6.354   8.203   8.291
 5079WAT     H115479   6.311   8.258   8.363
 5079WAT     H215480   6.432   8.253   8.253
 5080WAT      O15481   6.035   4.489   2.131
 5080WAT     H115482   6.078   4.451   2.213
 5080WAT     H215483   5.960   4.430   2.102
 5081WAT      O15484   6.418   1.988   2.953
 5081WAT     H115485   6.426   2.013   3.050
 5081WAT     H215486   6.324   2.000   2.923
 5082WAT      O15487   6.373   1.941   8.016
 5082WAT     H115488   6.466   1.904   8.013
 5082WAT     H215489   6.376   2.039   8.032
 5083WAT      O15490   0.834   6.649   2.178
 5083WAT     H115491   0.932   6.627   2.167
 5083WAT     H215492   0.797   6.681   2.091
 5084WAT      O15493   3.633   6.905   6.187
 5084WAT     H115494   3.675   6.816   6.170
 5084WAT     H215495   3.684   6.953   6.258
 5085WAT      O15496   0.118   9.397   4.442
 5085WAT     H115497   0.068   9.443   4.368
 5085WAT     H215498   0.070   9.411   4.528
 5086WAT      O15499   1.118   2.231   4.123
 5086WAT     H115500   1.154   2.139   4.106
 5086WAT     H215501   1.191   2.298   4.109
 5087WAT      O15502   0.056   6.026   8.333
 5087WAT     H115503   0.140   5.989   8.293
 5087WAT     H215504   0.032   5.972   8.414
 5088WAT      O15505   7.786   5.814   3.960
 5088WAT     H115506   7.849   5.794   4.036
 5088WAT     H215507   7.754   5.909   3.967
 5089WAT      O15508   6.316   3.294   1.116
 5089WAT     H115509   6.370   3.247   1.186
 5089WAT     H215510   6.363   3.377   1.088
 5090WAT      O15511   3.521   8.030   1.650
 5090WAT     H115512   3.548   7.953   1.707
 5090WAT     H215513   3.422   8.043   1.656
 5091WAT      O15514   7.600   6.772   5.241
 5091WAT     H115515   7.597   6.862   5.199
 5091WAT     H215516   7.652   6.710   5.182
 5092WAT      O15517   4.198   5.641   9.347
 5092WAT     H115518   4.238   5.568   9.402
 5092WAT     H215519   4.186   5.723   9.404
 5093WAT      O15520   1.361   4.481   4.049
 5093WAT     H115521   1.360   4.493   4.148
 5093WAT     H215522   1.412   4.398   4.026
 5094WAT      O15523   4.897   8.902   7.308
 5094WAT     H115524   4.901   8.969   7.233
 5094WAT     H215525   4.909   8.810   7.271
 5095WAT      O15526   3.418   4.469   2.106
 5095WAT     H115527   3.346   4.407   2.075
 5095WAT     H215528   3.377   4.552   2.142
 5096WAT      O15529   5.739   2.322   4.739
 5096WAT     H115530   5.756   2.394   4.672
 5096WAT     H215531   5.824   2.302   4.789
 5097WAT      O15532   6.894   0.507   2.397
 5097WAT     H115533   6.825   0.509   2.469
 5097WAT     H215534   6.985   0.507   2.439
 5098WAT      O15535   4.657   5.385   8.943
 5098WAT     H115536   4.726   5.365   8.875
 5098WAT     H215537   4.698   5.436   9.019
 5099WAT      O15538   4.583   7.631   7.721
 5099WAT     H115539   4.622   7.558   7.777
 5099WAT     H215540   4.542   7.592   7.639
 5100WAT      O15541   4.089   8.972   2.072
 5100WAT     H115542   4.109   8.883   2.032
 5100WAT     H215543   3.990   8.985   2.075
 5101WAT      O15544   4.968   1.693   5.638
 5101WAT     H115545   4.929   1.784   5.624
 5101WAT     H215546   5.067   1.696   5.620
 5102WAT      O15547   9.250   1.012   8.508
 5102WAT     H115548   9.211   0.944   8.446
 5102WAT     H215549   9.180   1.079   8.532
 5103WAT      O15550   0.058   0.139   2.644
 5103WAT     H115551   0.089   0.058   2.693
 5103WAT     H215552   0.118   0.157   2.567
 5104WAT      O15553   0.872   9.263   7.860
 5104WAT     H115554   0.881   9.347   7.807
 5104WAT     H215555   0.807   9.277   7.934
 5105WAT      O15556   0.507   0.180   9.601
 5105WAT     H115557   0.604   0.200   9.613
 5105WAT     H215558   0.497   0.100   9.542
 5106WAT      O15559   3.234   2.276   2.181
 5106WAT     H115560   3.301   2.207   2.151
 5106WAT     H215561   3.170   2.236   2.246
 5107WAT      O15562   0.267   4.805   5.481
 5107WAT     H115563   0.244   4.889   5.431
 5107WAT     H215564   0.230   4.811   5.573
 5108WAT      O15565   2.915   2.072   7.570
 5108WAT     H115566   2.820   2.045   7.558
 5108WAT     H215567   2.920   2.147   7.636
 5109WAT      O15568   8.270   9.502   4.219
 5109WAT     H115569   8.267   9.582   4.279
 5109WAT     H215570   8.291   9.421   4.273
 5110WAT      O15571   4.845   2.406   3.195
 5110WAT     H115572   4.751   2.424   3.166
 5110WAT     H215573   4.852   2.422   3.294
 5111WAT      O15574   2.969   6.369   3.411
 5111WAT     H115575   2.876   6.404   3.408
 5111WAT     H215576   2.967   6.269   3.418
 5112WAT      O15577   1.237   7.757   5.233
 5112WAT     H115578   1.199   7.849   5.224
 5112WAT     H215579   1.262   7.740   5.328
 5113WAT      O15580   1.040   0.740   6.050
 5113WAT     H115581   1.028   0.648   6.087
 5113WAT     H215582   1.061   0.734   5.952
 5114WAT      O15583   3.732   3.909   4.674
 5114WAT     H115584   3.772   3.842   4.737
 5114WAT     H215585   3.639   3.931   4.702
 5115WAT      O15586   6.887   6.522   2.017
 5115WAT     H115587   6.866   6.468   1.935
 5115WAT     H215588   6.831   6.605   2.017
 5116WAT      O15589   3.461   5.231   6.425
 5116WAT     H115590   3.442   5.177   6.343
 5116WAT     H215591   3.376   5.270   6.460
 5117WAT      O15592   4.806   4.550   0.444
 5117WAT     H115593   4.837   4.544   0.349
 5117WAT     H215594   4.710   4.578   0.446
 5118WAT      O15595   6.996   6.164   2.535
 5118WAT     H115596   6.987   6.066   2.549
 5118WAT     H215597   6.913   6.200   2.492
 5119WAT      O15598   2.372   4.121   3.568
 5119WAT     H115599   2.388   4.028   3.535
 5119WAT     H215600   2.431   4.140   3.646
 5120WAT      O15601   1.983   2.519   1.968
 5120WAT     H115602   2.061   2.475   2.013
 5120WAT     H215603   1.923   2.559   2.037
 5121WAT      O15604   2.987   1.345   2.695
 5121WAT     H115605   2.962   1.407   2.620
 5121WAT     H215606   3.080   1.365   2.725
 5122WAT      O15607   5.242   3.019   4.267
 5122WAT     H115608   5.184   2.976   4.198
 5122WAT     H215609   5.338   3.012   4.240
 5123WAT      O15610   6.155   0.013   4.831
 5123WAT     H115611   6.095  -0.064   4.849
 5123WAT     H215612   6.206   0.037   4.914
 5124WAT      O15613   7.519   2.867   5.494
 5124WAT     H115614   7.470   2.954   5.490
 5124WAT     H215615   7.545   2.839   5.401
 5125WAT      O15616   9.462   7.943   6.958
 5125WAT     H115617   9.549   7.895   6.973
 5125WAT     H215618   9.405   7.891   6.895
 5126WAT      O15619   3.560   1.754   6.311
 5126WAT     H115620   3.476   1.761   6.258
 5126WAT     H215621   3.619   1.684   6.270
 5127WAT      O15622   4.051   5.993   6.485
 5127WAT     H115623   4.068   5.932   6.408
 5127WAT     H215624   3.966   6.044   6.468
 5128WAT      O15625   7.606   4.259   6.970
 5128WAT     H115626   7.522   4.261   7.025
 5128WAT     H215627   7.669   4.330   7.003
 5129WAT      O15628   0.531   8.978   6.835
 5129WAT     H115629   0.574   9.054   6.884
 5129WAT     H215630   0.584   8.958   6.752
 5130WAT      O15631   2.275   9.163   1.543
 5130WAT     H115632   2.328   9.078   1.539
 5130WAT     H215633   2.231   9.171   1.632
 5131WAT      O15634   8.546   0.098   8.116
 5131WAT     H115635   8.635   0.070   8.081
 5131WAT     H215636   8.492   0.016   8.137
 5132WAT      O15637   4.682   1.124   9.747
 5132WAT     H115638   4.628   1.197   9.789
 5132WAT     H215639   4.656   1.036   9.787
 5133WAT      O15640   5.686   8.992   7.545
 5133WAT     H115641   5.711   8.900   7.577
 5133WAT     H215642   5.601   9.021   7.589
 5134WAT      O15643   6.210   2.044   2.270
 5134WAT     H115644   6.140   2.034   2.341
 5134WAT     H215645   6.262   2.128   2.285
 5135WAT      O15646   4.269   5.586   7.298
 5135WAT     H115647   4.289   5.649   7.373
 5135WAT     H215648   4.354   5.557   7.255
 5136WAT      O15649   6.176   7.782   6.257
 5136WAT     H115650   6.264   7.735   6.250
 5136WAT     H215651   6.184   7.857   6.322
 5137WAT      O15652   3.232   3.959   0.488
 5137WAT     H115653   3.204   3.883   0.546
 5137WAT     H215654   3.195   3.946   0.396
 5138WAT      O15655   3.112   4.091   8.575
 5138WAT     H115656   3.124   4.064   8.671
 5138WAT     H215657   3.180   4.161   8.552
 5139WAT      O15658   3.386   6.222   7.334
 5139WAT     H115659   3.360   6.296   7.271
 5139WAT     H215660   3.448   6.159   7.287
 5140WAT      O15661   1.604   1.914   5.468
 5140WAT     H115662   1.684   1.857   5.489
 5140WAT     H215663   1.582   1.906   5.371
 5141WAT      O15664   4.614   1.834   6.444
 5141WAT     H115665   4.525   1.846   6.488
 5141WAT     H215666   4.643   1.738   6.454
 5142WAT      O15667   6.987   3.169   6.001
 5142WAT     H115668   7.071   3.191   6.052
 5142WAT     H215669   6.991   3.212   5.911
 5143WAT      O15670   2.355   6.605   7.180
 5143WAT     H115671   2.277   6.667   7.186
 5143WAT     H215672   2.413   6.616   7.260
 5144WAT      O15673   7.624   2.012   1.673
 5144WAT     H115674   7.660   2.045   1.586
 5144WAT     H215675   7.698   2.005   1.739
 5145WAT      O15676   7.996   5.202   0.498
 5145WAT     H115677   8.003   5.107   0.530
 5145WAT     H215678   8.019   5.264   0.572
 5146WAT      O15679   4.726   7.983   9.034
 5146WAT     H115680   4.682   7.948   8.951
 5146WAT     H215681   4.778   7.910   9.078
 5147WAT      O15682   7.093   8.529   7.294
 5147WAT     H115683   7.033   8.559   7.368
 5147WAT     H215684   7.037   8.506   7.214
 5148WAT      O15685   8.842   6.263   8.099
 5148WAT     H115686   8.939   6.254   8.077
 5148WAT     H215687   8.790   6.190   8.053
 5149WAT      O15688   3.459   3.390   0.859
 5149WAT     H115689   3.549   3.399   0.817
 5149WAT     H215690   3.459   3.309   0.919
 5150WAT      O15691   2.977   4.462   1.476
 5150WAT     H115692   3.005   4.468   1.571
 5150WAT     H215693   2.926   4.377   1.461
 5151WAT      O15694   6.017   4.250   7.918
 5151WAT     H115695   6.026   4.188   7.840
 5151WAT     H215696   6.063   4.337   7.896
 5152WAT      O15697   0.612   8.027   4.814
 5152WAT     H115698   0.516   8.052   4.822
 5152WAT     H215699   0.624   7.964   4.737
 5153WAT      O15700   7.800   0.762   5.154
 5153WAT     H115701   7.784   0.702   5.075
 5153WAT     H215702   7.809   0.856   5.123
 5154WAT      O15703   8.728   7.636   2.498
 5154WAT     H115704   8.709   7.581   2.579
 5154WAT     H215705   8.826   7.651   2.490
 5155WAT      O15706   4.639   4.747   8.095
 5155WAT     H115707   4.563   4.806   8.123
 5155WAT     H215708   4.723   4.778   8.140
 5156WAT      O15709   3.475   3.476   1.919
 5156WAT     H115710   3.557   3.419   1.909
 5156WAT     H215711   3.479   3.526   2.005
 5157WAT      O15712   9.471   3.325   3.008
 5157WAT     H115713   9.453   3.335   2.910
 5157WAT     H215714   9.518   3.238   3.024
 5158WAT      O15715   4.125   6.135   1.270
 5158WAT     H115716   4.095   6.041   1.260
 5158WAT     H215717   4.188   6.142   1.347
 5159WAT      O15718   8.979   8.689   9.252
 5159WAT     H115719   9.001   8.613   9.191
 5159WAT     H215720   9.000   8.663   9.346
 5160WAT      O15721   0.232   6.504   4.867
 5160WAT     H115722   0.150   6.446   4.862
 5160WAT     H215723   0.233   6.553   4.954
 5161WAT      O15724   1.164   1.597   4.438
 5161WAT     H115725   1.201   1.580   4.529
 5161WAT     H215726   1.153   1.510   4.389
 5162WAT      O15727   2.457   7.051   9.063
 5162WAT     H115728   2.420   7.007   8.982
 5162WAT     H215729   2.436   7.149   9.062
 5163WAT      O15730   2.660   6.151   2.664
 5163WAT     H115731   2.583   6.202   2.702
 5163WAT     H215732   2.674   6.178   2.569
 5164WAT      O15733   9.588   8.790   6.267
 5164WAT     H115734   9.636   8.853   6.207
 5164WAT     H215735   9.613   8.696   6.243
 5165WAT      O15736   6.667   2.380   3.471
 5165WAT     H115737   6.690   2.407   3.377
 5165WAT     H215738   6.680   2.281   3.481
 5166WAT      O15739   1.904   1.044   5.223
 5166WAT     H115740   1.806   1.046   5.243
 5166WAT     H215741   1.945   0.961   5.262
 5167WAT      O15742   6.829   7.173   6.802
 5167WAT     H115743   6.889   7.152   6.879
 5167WAT     H215744   6.747   7.115   6.806
 5168WAT      O15745   0.892   8.309   7.551
 5168WAT     H115746   0.848   8.385   7.503
 5168WAT     H215747   0.848   8.223   7.525
 5169WAT      O15748   8.904   3.324   2.956
 5169WAT     H115749   9.004   3.330   2.948
 5169WAT     H215750   8.865   3.317   2.864
 5170WAT      O15751   7.798   3.816   1.174
 5170WAT     H115752   7.764   3.910   1.166
 5170WAT     H215753   7.785   3.784   1.268
 5171WAT      O15754   7.034   2.163   0.696
 5171WAT     H115755   7.093   2.092   0.735
 5171WAT     H215756   7.090   2.240   0.665
 5172WAT      O15757   1.774   5.801   3.560
 5172WAT     H115758   1.689   5.854   3.561
 5172WAT     H215759   1.791   5.767   3.468
 5173WAT      O15760   0.408   8.882   0.195
 5173WAT     H115761   0.418   8.933   0.281
 5173WAT     H215762   0.449   8.791   0.206
 5174WAT      O15763   9.351   1.106   0.870
 5174WAT     H115764   9.409   1.097   0.951
 5174WAT     H215765   9.259   1.073   0.891
 5175WAT      O15766   5.927   0.586   8.244
 5175WAT     H115767   5.922   0.600   8.343
 5175WAT     H215768   6.016   0.547   8.221
 5176WAT      O15769   9.101   6.281   0.814
 5176WAT     H115770   9.160   6.222   0.868
 5176WAT     H215771   9.116   6.377   0.840
 5177WAT      O15772   3.179   6.895   5.182
 5177WAT     H115773   3.163   6.987   5.219
 5177WAT     H215774   3.157   6.827   5.252
 5178WAT      O15775   3.672   0.523   2.185
 5178WAT     H115776   3.575   0.536   2.168
 5178WAT     H215777   3.725   0.593   2.136
 5179WAT      O15778   4.623   6.102   7.814
 5179WAT     H115779   4.532   6.145   7.816
 5179WAT     H215780   4.649   6.084   7.719
 5180WAT      O15781   8.814   1.670   5.961
 5180WAT     H115782   8.897   1.615   5.961
 5180WAT     H215783   8.744   1.623   6.016
 5181WAT      O15784   3.024   6.117   9.533
 5181WAT     H115785   2.977   6.033   9.506
 5181WAT     H215786   2.983   6.195   9.485
 5182WAT      O15787   3.514   9.159   8.163
 5182WAT     H115788   3.593   9.221   8.167
 5182WAT     H215789   3.526   9.087   8.231
 5183WAT      O15790   8.009   3.951   9.777
 5183WAT     H115791   7.954   3.867   9.784
 5183WAT     H215792   7.951   4.030   9.797
 5184WAT      O15793   0.694   3.969   7.524
 5184WAT     H115794   0.759   3.960   7.449
 5184WAT     H215795   0.702   4.059   7.565
 5185WAT      O15796   3.976   8.271   7.500
 5185WAT     H115797   4.050   8.248   7.564
 5185WAT     H215798   3.946   8.189   7.452
 5186WAT      O15799   6.100   4.405   8.544
 5186WAT     H115800   6.006   4.424   8.516
 5186WAT     H215801   6.133   4.322   8.499
 5187WAT      O15802   1.320   8.197   3.329
 5187WAT     H115803   1.355   8.194   3.423
 5187WAT     H215804   1.396   8.211   3.266
 5188WAT      O15805   0.534   1.488   6.953
 5188WAT     H115806   0.461   1.517   6.891
 5188WAT     H215807   0.520   1.392   6.978
 5189WAT      O15808   1.673   5.470   6.679
 5189WAT     H115809   1.716   5.548   6.633
 5189WAT     H215810   1.743   5.411   6.718
 5190WAT      O15811   9.246   6.465   2.001
 5190WAT     H115812   9.249   6.505   2.093
 5190WAT     H215813   9.273   6.368   2.006
 5191WAT      O15814   3.379   4.842   3.026
 5191WAT     H115815   3.427   4.763   2.988
 5191WAT     H215816   3.381   4.838   3.126
 5192WAT      O15817   8.016   9.523   2.664
 5192WAT     H115818   8.027   9.600   2.601
 5192WAT     H215819   7.976   9.555   2.749
 5193WAT      O15820   9.242   2.767   7.718
 5193WAT     H115821   9.251   2.844   7.782
 5193WAT     H215822   9.241   2.681   7.769
 5194WAT      O15823   9.164   6.118   9.671
 5194WAT     H115824   9.150   6.053   9.596
 5194WAT     H215825   9.262   6.136   9.681
 5195WAT      O15826   4.354   1.012   6.087
 5195WAT     H115827   4.393   0.946   6.152
 5195WAT     H215828   4.312   0.963   6.011
 5196WAT      O15829   9.576   4.680   2.990
 5196WAT     H115830   9.480   4.699   3.013
 5196WAT     H215831   9.605   4.739   2.916
 5197WAT      O15832   3.618   6.637   0.065
 5197WAT     H115833   3.557   6.557   0.070
 5197WAT     H215834   3.615   6.686   0.152
 5198WAT      O15835   9.548   6.513   1.709
 5198WAT     H115836   9.500   6.579   1.767
 5198WAT     H215837   9.485   6.441   1.682
 5199WAT      O15838   4.799   6.805   0.046
 5199WAT     H115839   4.714   6.752   0.043
 5199WAT     H215840   4.809   6.857  -0.038
 5200WAT      O15841   0.551   9.528   4.947
 5200WAT     H115842   0.539   9.619   4.907
 5200WAT     H215843   0.649   9.509   4.956
 5201WAT      O15844   1.094   3.497   8.027
 5201WAT     H115845   1.158   3.464   8.096
 5201WAT     H215846   1.001   3.496   8.063
 5202WAT      O15847   6.731   2.933   8.624
 5202WAT     H115848   6.632   2.920   8.626
 5202WAT     H215849   6.775   2.850   8.589
 5203WAT      O15850   0.773   0.707   4.279
 5203WAT     H115851   0.822   0.792   4.302
 5203WAT     H215852   0.769   0.698   4.179
 5204WAT      O15853   1.479   0.047   2.789
 5204WAT     H115854   1.394   0.083   2.827
 5204WAT     H215855   1.494  -0.046   2.822
 5205WAT      O15856   0.029   4.134   8.475
 5205WAT     H115857   0.067   4.145   8.566
 5205WAT     H215858   0.099   4.154   8.406
 5206WAT      O15859   3.886   4.085   3.326
 5206WAT     H115860   3.985   4.085   3.313
 5206WAT     H215861   3.861   4.011   3.389
 5207WAT      O15862   4.539   6.903   7.855
 5207WAT     H115863   4.537   6.812   7.896
 5207WAT     H215864   4.622   6.951   7.883
 5208WAT      O15865   8.008   3.241   8.163
 5208WAT     H115866   8.011   3.144   8.138
 5208WAT     H215867   8.058   3.255   8.248
 5209WAT      O15868   9.083   3.304   6.436
 5209WAT     H115869   9.124   3.287   6.526
 5209WAT     H215870   9.145   3.357   6.380
 5210WAT      O15871   0.830   1.363   9.635
 5210WAT     H115872   0.740   1.386   9.672
 5210WAT     H215873   0.823   1.348   9.536
 5211WAT      O15874   0.976   6.086   0.833
 5211WAT     H115875   0.999   6.040   0.748
 5211WAT     H215876   1.007   6.181   0.830
 5212WAT      O15877   3.525   2.425   5.138
 5212WAT     H115878   3.576   2.390   5.217
 5212WAT     H215879   3.476   2.508   5.165
 5213WAT      O15880   7.257   0.696   1.936
 5213WAT     H115881   7.340   0.700   1.992
 5213WAT     H215882   7.225   0.602   1.930
 5214WAT      O15883   7.493   0.597   8.471
 5214WAT     H115884   7.420   0.656   8.435
 5214WAT     H215885   7.453   0.510   8.501
 5215WAT      O15886   5.620   8.286   7.346
 5215WAT     H115887   5.617   8.346   7.266
 5215WAT     H215888   5.681   8.324   7.415
 5216WAT      O15889   4.451   4.743   8.329
 5216WAT     H115890   4.358   4.775   8.311
 5216WAT     H215891   4.450   4.643   8.340
 5217WAT      O15892   3.478   2.626   0.186
 5217WAT     H115893   3.394   2.587   0.149
 5217WAT     H215894   3.479   2.616   0.285
 5218WAT      O15895   0.378   0.358   6.297
 5218WAT     H115896   0.346   0.316   6.212
 5218WAT     H215897   0.435   0.292   6.347
 5219WAT      O15898   5.906   4.802   9.798
 5219WAT     H115899   6.004   4.807   9.778
 5219WAT     H215900   5.861   4.740   9.734
 5220WAT      O15901   1.829   2.316   4.395
 5220WAT     H115902   1.825   2.247   4.466
 5220WAT     H215903   1.754   2.382   4.408
 5221WAT      O15904   4.969   4.791   1.475
 5221WAT     H115905   5.009   4.775   1.385
 5221WAT     H215906   4.917   4.876   1.474
 5222WAT      O15907   5.631   6.739   7.746
 5222WAT     H115908   5.616   6.800   7.824
 5222WAT     H215909   5.622   6.644   7.775
 5223WAT      O15910   4.629   5.822   4.650
 5223WAT     H115911   4.562   5.749   4.646
 5223WAT     H215912   4.604   5.894   4.585
 5224WAT      O15913   9.424   0.057   7.675
 5224WAT     H115914   9.370  -0.019   7.638
 5224WAT     H215915   9.498   0.080   7.612
 5225WAT      O15916   2.695   2.428   4.691
 5225WAT     H115917   2.634   2.355   4.659
 5225WAT     H215918   2.737   2.401   4.778
 5226WAT      O15919   5.541   7.520   2.450
 5226WAT     H115920   5.531   7.553   2.543
 5226WAT     H215921   5.481   7.573   2.389
 5227WAT      O15922   1.978   1.845   5.673
 5227WAT     H115923   1.983   1.814   5.768
 5227WAT     H215924   1.939   1.937   5.670
 5228WAT      O15925   9.346   1.271   7.380
 5228WAT     H115926   9.419   1.270   7.449
 5228WAT     H215927   9.357   1.191   7.321
 5229WAT      O15928   6.602   0.372   4.967
 5229WAT     H115929   6.674   0.441   4.958
 5229WAT     H215930   6.617   0.320   5.051
 5230WAT      O15931   7.514   0.481   9.525
 5230WAT     H115932   7.549   0.427   9.601
 5230WAT     H215933   7.472   0.565   9.560
 5231WAT      O15934   7.269   2.641   6.946
 5231WAT     H115935   7.358   2.661   6.906
 5231WAT     H215936   7.250   2.706   7.019
 5232WAT      O15937   3.563   4.065   3.294
 5232WAT     H115938   3.541   4.006   3.217
 5232WAT     H215939   3.657   4.050   3.323
 5233WAT      O15940   1.914   6.336   4.385
 5233WAT     H115941   1.996   6.315   4.331
 5233WAT     H215942   1.914   6.433   4.409
 5234WAT      O15943   7.752   3.107   9.596
 5234WAT     H115944   7.678   3.113   9.662
 5234WAT     H215945   7.717   3.077   9.508
 5235WAT      O15946   6.962   5.380   6.816
 5235WAT     H115947   7.041   5.361   6.875
 5235WAT     H215948   6.987   5.364   6.721
 5236WAT      O15949   0.012   1.785   6.081
 5236WAT     H115950   0.005   1.777   5.981
 5236WAT     H215951  -0.041   1.864   6.112
 5237WAT      O15952   3.670   6.158   0.991
 5237WAT     H115953   3.764   6.129   0.978
 5237WAT     H215954   3.629   6.182   0.903
 5238WAT      O15955   1.318   2.306   6.302
 5238WAT     H115956   1.240   2.327   6.361
 5238WAT     H215957   1.291   2.239   6.233
 5239WAT      O15958   0.170   7.686   2.456
 5239WAT     H115959   0.253   7.681   2.400
 5239WAT     H215960   0.097   7.730   2.403
 5240WAT      O15961   7.454   8.696   9.325
 5240WAT     H115962   7.533   8.654   9.371
 5240WAT     H215963   7.375   8.694   9.386
 5241WAT      O15964   3.692   4.550   0.895
 5241WAT     H115965   3.629   4.588   0.827
 5241WAT     H215966   3.755   4.486   0.850
 5242WAT      O15967   4.082   5.996   8.492
 5242WAT     H115968   4.028   5.926   8.539
 5242WAT     H215969   4.180   5.978   8.508
 5243WAT      O15970   9.146   6.705   0.600
 5243WAT     H115971   9.212   6.643   0.642
 5243WAT     H215972   9.139   6.686   0.502
 5244WAT      O15973   2.814   3.724   0.083
 5244WAT     H115974   2.781   3.809   0.125
 5244WAT     H215975   2.861   3.669   0.151
 5245WAT      O15976   6.002   1.058   0.312
 5245WAT     H115977   5.965   1.107   0.233
 5245WAT     H215978   6.093   1.024   0.290
 5246WAT      O15979   0.895   5.084   1.798
 5246WAT     H115980   0.962   5.147   1.757
 5246WAT     H215981   0.833   5.052   1.727
 5247WAT      O15982   3.685   7.201   0.719
 5247WAT     H115983   3.666   7.139   0.795
 5247WAT     H215984   3.610   7.266   0.709
 5248WAT      O15985   0.508   2.716   9.461
 5248WAT     H115986   0.583   2.650   9.450
 5248WAT     H215987   0.477   2.746   9.370
 5249WAT      O15988   1.333   1.209   8.331
 5249WAT     H115989   1.297   1.118   8.311
 5249WAT     H215990   1.428   1.201   8.361
 5250WAT      O15991   3.148   9.092   2.839
 5250WAT     H115992   3.056   9.097   2.799
 5250WAT     H215993   3.154   9.154   2.917
 5251WAT      O15994   0.134   4.132   0.225
 5251WAT     H115995   0.140   4.192   0.304
 5251WAT     H215996   0.226   4.101   0.199
 5252WAT      O15997   5.756   5.794   7.571
 5252WAT     H115998   5.758   5.784   7.670
 5252WAT     H215999   5.716   5.882   7.546
 5253WAT      O16000   3.879   9.806   3.111
 5253WAT     H116001   3.821   9.856   3.175
 5253WAT     H216002   3.941   9.746   3.161
 5254WAT      O16003   5.144   1.204   7.474
 5254WAT     H116004   5.172   1.119   7.429
 5254WAT     H216005   5.084   1.255   7.413
 5255WAT      O16006   4.398   1.647   1.475
 5255WAT     H116007   4.439   1.563   1.439
 5255WAT     H216008   4.301   1.632   1.493
 5256WAT      O16009   7.103   5.125   8.692
 5256WAT     H116010   7.003   5.127   8.695
 5256WAT     H216011   7.139   5.126   8.785
 5257WAT      O16012   3.619   8.947   1.580
 5257WAT     H116013   3.589   9.038   1.610
 5257WAT     H216014   3.703   8.922   1.628
 5258WAT      O16015   9.546   5.445   8.885
 5258WAT     H116016   9.556   5.499   8.801
 5258WAT     H216017   9.449   5.436   8.907
 5259WAT      O16018   6.847   3.013   3.787
 5259WAT     H116019   6.750   3.036   3.786
 5259WAT     H216020   6.897   3.076   3.727
 5260WAT      O16021   0.453   7.353   9.395
 5260WAT     H116022   0.386   7.385   9.463
 5260WAT     H216023   0.498   7.432   9.354
 5261WAT      O16024   3.824   1.684   8.578
 5261WAT     H116025   3.839   1.640   8.490
 5261WAT     H216026   3.726   1.688   8.597
 5262WAT      O16027   8.083   8.708   8.917
 5262WAT     H116028   8.000   8.682   8.966
 5262WAT     H216029   8.162   8.662   8.958
 5263WAT      O16030   7.900   1.582   8.602
 5263WAT     H116031   7.928   1.501   8.653
 5263WAT     H216032   7.917   1.664   8.658
 5264WAT      O16033   8.616   4.746   9.656
 5264WAT     H116034   8.652   4.741   9.563
 5264WAT     H216035   8.551   4.822   9.663
 5265WAT      O16036   1.830   2.022   7.638
 5265WAT     H116037   1.892   2.086   7.593
 5265WAT     H216038   1.751   2.005   7.579
 5266WAT      O16039   1.447   7.885   7.190
 5266WAT     H116040   1.411   7.950   7.256
 5266WAT     H216041   1.385   7.807   7.182
 5267WAT      O16042   8.419   3.137   5.448
 5267WAT     H116043   8.512   3.169   5.464
 5267WAT     H216044   8.413   3.094   5.358
 5268WAT      O16045   8.704   2.763   4.243
 5268WAT     H116046   8.607   2.742   4.253
 5268WAT     H216047   8.756   2.721   4.317
 5269WAT      O16048   2.278   6.405   7.033
 5269WAT     H116049   2.342   6.373   6.964
 5269WAT     H216050   2.313   6.490   7.073
 5270WAT      O16051   0.577   2.232   2.582
 5270WAT     H116052   0.514   2.269   2.650
 5270WAT     H216053   0.606   2.304   2.520
 5271WAT      O16054   2.473   8.307   8.822
 5271WAT     H116055   2.441   8.235   8.760
 5271WAT     H216056   2.488   8.269   8.913
 5272WAT      O16057   8.073   3.519   7.134
 5272WAT     H116058   8.015   3.479   7.063
 5272WAT     H216059   8.159   3.468   7.140
 5273WAT      O16060   5.142   2.997   7.531
 5273WAT     H116061   5.048   3.020   7.556
 5273WAT     H216062   5.203   3.019   7.607
 5274WAT      O16063   1.842   2.009   5.162
 5274WAT     H116064   1.870   2.105   5.154
 5274WAT     H216065   1.898   1.964   5.231
 5275WAT      O16066   1.461   9.626   4.673
 5275WAT     H116067   1.537   9.581   4.626
 5275WAT     H216068   1.378   9.619   4.618
 5276WAT      O16069   4.012   7.497   2.160
 5276WAT     H116070   4.100   7.460   2.130
 5276WAT     H216071   3.953   7.422   2.191
 5277WAT      O16072   2.720   6.475   3.369
 5277WAT     H116073   2.699   6.532   3.289
 5277WAT     H216074   2.638   6.426   3.397
 5278WAT      O16075   9.488   8.823   2.030
 5278WAT     H116076   9.487   8.917   2.065
 5278WAT     H216077   9.430   8.766   2.089
 5279WAT      O16078   1.091   6.206   3.999
 5279WAT     H116079   1.063   6.155   3.917
 5279WAT     H216080   1.061   6.301   3.991
 5280WAT      O16081   1.391   6.681   3.476
 5280WAT     H116082   1.467   6.701   3.414
 5280WAT     H216083   1.427   6.646   3.563
 5281WAT      O16084   6.306   2.973   2.200
 5281WAT     H116085   6.225   2.918   2.178
 5281WAT     H216086   6.362   2.983   2.118
 5282WAT      O16087   2.703   8.321   9.226
 5282WAT     H116088   2.745   8.234   9.253
 5282WAT     H216089   2.773   8.392   9.226
 5283WAT      O16090   8.577   9.019   7.690
 5283WAT     H116091   8.514   9.097   7.693
 5283WAT     H216092   8.542   8.950   7.627
 5284WAT      O16093   6.187   9.353   0.191
 5284WAT     H116094   6.272   9.339   0.140
 5284WAT     H216095   6.180   9.283   0.263
 5285WAT      O16096   3.327   0.931   0.743
 5285WAT     H116097   3.350   0.836   0.763
 5285WAT     H216098   3.402   0.974   0.694
 5286WAT      O16099   7.163   2.243   7.537
 5286WAT     H116100   7.070   2.208   7.523
 5286WAT     H216101   7.222   2.210   7.463
 5287WAT      O16102   8.723   1.520   8.614
 5287WAT     H116103   8.743   1.453   8.685
 5287WAT     H216104   8.685   1.602   8.656
 5288WAT      O16105   0.127   9.733   3.942
 5288WAT     H116106   0.110   9.769   3.850
 5288WAT     H216107   0.132   9.633   3.938
 5289WAT      O16108   8.093   8.215   8.673
 5289WAT     H116109   8.009   8.257   8.641
 5289WAT     H216110   8.144   8.280   8.730
 5290WAT      O16111   4.464   1.953   6.233
 5290WAT     H116112   4.512   2.020   6.177
 5290WAT     H216113   4.525   1.921   6.306
 5291WAT      O16114   6.393   8.534   7.756
 5291WAT     H116115   6.298   8.504   7.748
 5291WAT     H216116   6.444   8.507   7.675
 5292WAT      O16117   6.851   7.511   8.076
 5292WAT     H116118   6.928   7.509   8.139
 5292WAT     H216119   6.884   7.496   7.983
 5293WAT      O16120   2.023   8.763   7.975
 5293WAT     H116121   2.007   8.688   7.911
 5293WAT     H216122   2.060   8.726   8.060
 5294WAT      O16123   5.315   6.639   4.154
 5294WAT     H116124   5.366   6.671   4.233
 5294WAT     H216125   5.373   6.578   4.100
 5295WAT      O16126   4.094   7.934   1.982
 5295WAT     H116127   4.032   7.995   1.931
 5295WAT     H216128   4.041   7.879   2.047
 5296WAT      O16129   6.428   6.597   6.458
 5296WAT     H116130   6.407   6.509   6.501
 5296WAT     H216131   6.500   6.643   6.509
 5297WAT      O16132   3.931   0.449   6.453
 5297WAT     H116133   4.016   0.430   6.403
 5297WAT     H216134   3.861   0.382   6.425
 5298WAT      O16135   6.770   5.177   5.261
 5298WAT     H116136   6.852   5.232   5.248
 5298WAT     H216137   6.793   5.080   5.260
 5299WAT      O16138   8.136   1.116   8.177
 5299WAT     H116139   8.137   1.173   8.259
 5299WAT     H216140   8.045   1.119   8.136
 5300WAT      O16141   3.675   5.827   4.825
 5300WAT     H116142   3.685   5.747   4.767
 5300WAT     H216143   3.716   5.906   4.780
 5301WAT      O16144   3.667   2.382   5.371
 5301WAT     H116145   3.754   2.342   5.399
 5301WAT     H216146   3.665   2.479   5.398
 5302WAT      O16147   9.412   0.224   7.309
 5302WAT     H116148   9.446   0.313   7.276
 5302WAT     H216149   9.478   0.185   7.372
 5303WAT      O16150   8.182   6.279   9.299
 5303WAT     H116151   8.202   6.233   9.213
 5303WAT     H216152   8.224   6.228   9.375
 5304WAT      O16153   6.345   8.294   9.879
 5304WAT     H116154   6.282   8.371   9.869
 5304WAT     H216155   6.415   8.317   9.947
 5305WAT      O16156   6.160   2.708   2.126
 5305WAT     H116157   6.211   2.632   2.165
 5305WAT     H216158   6.098   2.746   2.195
 5306WAT      O16159   1.373   4.697   5.155
 5306WAT     H116160   1.406   4.663   5.066
 5306WAT     H216161   1.284   4.741   5.142
 5307WAT      O16162   1.528   5.903   3.520
 5307WAT     H116163   1.471   5.983   3.538
 5307WAT     H216164   1.469   5.828   3.489
 5308WAT      O16165   9.572   2.450   5.336
 5308WAT     H116166   9.639   2.444   5.262
 5308WAT     H216167   9.618   2.473   5.422
 5309WAT      O16168   3.906   4.509   2.531
 5309WAT     H116169   3.814   4.549   2.522
 5309WAT     H216170   3.936   4.515   2.626
 5310WAT      O16171   1.466   6.345   7.282
 5310WAT     H116172   1.431   6.355   7.375
 5310WAT     H216173   1.470   6.248   7.258
 5311WAT      O16174   4.721   4.422   0.048
 5311WAT     H116175   4.648   4.465   0.101
 5311WAT     H216176   4.712   4.448  -0.048
 5312WAT      O16177   5.042   8.962   1.322
 5312WAT     H116178   5.043   8.942   1.420
 5312WAT     H216179   5.005   8.884   1.272
 5313WAT      O16180   7.568   1.416   3.275
 5313WAT     H116181   7.578   1.342   3.342
 5313WAT     H216182   7.514   1.383   3.198
 5314WAT      O16183   4.990   1.480   0.807
 5314WAT     H116184   5.084   1.462   0.778
 5314WAT     H216185   4.966   1.423   0.885
 5315WAT      O16186   1.068   9.168   7.194
 5315WAT     H116187   1.103   9.259   7.215
 5315WAT     H216188   1.085   9.107   7.271
 5316WAT      O16189   2.167   9.003   4.798
 5316WAT     H116190   2.197   9.082   4.744
 5316WAT     H216191   2.140   8.929   4.736
 5317WAT      O16192   7.119   2.983   4.708
 5317WAT     H116193   7.139   2.924   4.630
 5317WAT     H216194   7.135   2.933   4.793
 5318WAT      O16195   8.982   2.800   7.626
 5318WAT     H116196   8.939   2.713   7.650
 5318WAT     H216197   9.079   2.796   7.647
 5319WAT      O16198   9.140   6.609   5.683
 5319WAT     H116199   9.075   6.677   5.716
 5319WAT     H216200   9.194   6.575   5.759
 5320WAT      O16201   5.428   2.237   6.472
 5320WAT     H116202   5.333   2.261   6.450
 5320WAT     H216203   5.482   2.320   6.482
 5321WAT      O16204   8.466   6.370   4.519
 5321WAT     H116205   8.449   6.391   4.422
 5321WAT     H216206   8.462   6.271   4.532
 5322WAT      O16207   7.199   8.463   5.716
 5322WAT     H116208   7.109   8.490   5.750
 5322WAT     H216209   7.203   8.364   5.707
 5323WAT      O16210   0.758   1.612   6.059
 5323WAT     H116211   0.798   1.538   6.114
 5323WAT     H216212   0.823   1.638   5.988
 5324WAT      O16213   1.343   5.423   5.983
 5324WAT     H116214   1.375   5.343   6.034
 5324WAT     H216215   1.373   5.414   5.887
 5325WAT      O16216   9.269   2.918   4.770
 5325WAT     H116217   9.263   2.878   4.862
 5325WAT     H216218   9.181   2.906   4.724
 5326WAT      O16219   9.645   2.111   9.098
 5326WAT     H116220   9.596   2.025   9.111
 5326WAT     H216221   9.654   2.129   9.000
 5327WAT      O16222   9.690   4.520   2.732
 5327WAT     H116223   9.788   4.513   2.748
 5327WAT     H216224   9.641   4.513   2.818
 5328WAT      O16225   3.352   8.163   6.163
 5328WAT     H116226   3.423   8.219   6.206
 5328WAT     H216227   3.271   8.161   6.223
 5329WAT      O16228   4.504   7.044   3.211
 5329WAT     H116229   4.505   7.118   3.144
 5329WAT     H216230   4.559   6.968   3.178
 5330WAT      O16231   7.059   5.684   8.417
 5330WAT     H116232   6.959   5.677   8.414
 5330WAT     H216233   7.085   5.757   8.481
 5331WAT      O16234   8.779   6.551   7.871
 5331WAT     H116235   8.777   6.493   7.953
 5331WAT     H216236   8.689   6.591   7.856
 5332WAT      O16237   9.066   4.974   5.759
 5332WAT     H116238   8.972   4.984   5.792
 5332WAT     H216239   9.096   4.879   5.769
 5333WAT      O16240   8.991   4.789   1.308
 5333WAT     H116241   9.006   4.830   1.218
 5333WAT     H216242   9.048   4.707   1.316
 5334WAT      O16243   2.163   3.540   7.215
 5334WAT     H116244   2.167   3.603   7.292
 5334WAT     H216245   2.195   3.587   7.132
 5335WAT      O16246   1.984   7.583   5.815
 5335WAT     H116247   1.903   7.604   5.760
 5335WAT     H216248   1.967   7.501   5.870
 5336WAT      O16249   2.373   7.880   0.021
 5336WAT     H116250   2.291   7.833   0.056
 5336WAT     H216251   2.444   7.813   0.000
 5337WAT      O16252   7.088   2.759   6.743
 5337WAT     H116253   7.131   2.838   6.700
 5337WAT     H216254   7.149   2.721   6.813
 5338WAT      O16255   4.104   8.866   6.401
 5338WAT     H116256   4.157   8.938   6.357
 5338WAT     H216257   4.017   8.854   6.353
 5339WAT      O16258   0.456   2.014   9.233
 5339WAT     H116259   0.481   2.053   9.321
 5339WAT     H216260   0.406   1.929   9.247
 5340WAT      O16261   0.118   5.907   5.895
 5340WAT     H116262   0.085   5.884   5.803
 5340WAT     H216263   0.168   5.830   5.933
 5341WAT      O16264   8.958   3.111   6.301
 5341WAT     H116265   8.986   3.037   6.362
 5341WAT     H216266   8.991   3.198   6.338
 5342WAT      O16267   4.971   6.631   9.281
 5342WAT     H116268   4.971   6.731   9.279
 5342WAT     H216269   4.973   6.596   9.187
 5343WAT      O16270   8.891   2.172   8.036
 5343WAT     H116271   8.956   2.102   8.064
 5343WAT     H216272   8.806   2.161   8.087
 5344WAT      O16273   1.426   9.393   3.981
 5344WAT     H116274   1.521   9.417   3.961
 5344WAT     H216275   1.379   9.473   4.019
 5345WAT      O16276   3.837   5.932   7.562
 5345WAT     H116277   3.869   5.957   7.653
 5345WAT     H216278   3.890   5.855   7.527
 5346WAT      O16279   8.448   3.964   8.580
 5346WAT     H116280   8.369   3.983   8.521
 5346WAT     H216281   8.417   3.911   8.659
 5347WAT      O16282   4.069   1.426   8.244
 5347WAT     H116283   4.121   1.448   8.327
 5347WAT     H216284   4.124   1.446   8.163
 5348WAT      O16285   1.989   2.334   0.133
 5348WAT     H116286   2.038   2.252   0.102
 5348WAT     H216287   2.008   2.350   0.230
 5349WAT      O16288   4.447   7.728   4.292
 5349WAT     H116289   4.379   7.655   4.283
 5349WAT     H216290   4.528   7.706   4.239
 5350WAT      O16291   0.303   8.579   9.256
 5350WAT     H116292   0.342   8.631   9.331
 5350WAT     H216293   0.357   8.496   9.241
 5351WAT      O16294   5.081   1.751   4.470
 5351WAT     H116295   5.140   1.825   4.438
 5351WAT     H216296   5.073   1.682   4.398
 5352WAT      O16297   2.945   3.489   1.833
 5352WAT     H116298   2.977   3.532   1.918
 5352WAT     H216299   2.947   3.556   1.759
 5353WAT      O16300   9.139   1.682   5.136
 5353WAT     H116301   9.160   1.584   5.126
 5353WAT     H216302   9.096   1.716   5.053
 5354WAT      O16303   8.566   2.627   5.698
 5354WAT     H116304   8.472   2.609   5.670
 5354WAT     H216305   8.624   2.639   5.618
 5355WAT      O16306   5.764   4.512   7.688
 5355WAT     H116307   5.743   4.486   7.594
 5355WAT     H216308   5.756   4.432   7.747
 5356WAT      O16309   3.413   1.848   0.688
 5356WAT     H116310   3.359   1.878   0.766
 5356WAT     H216311   3.353   1.805   0.620
 5357WAT      O16312   1.861   9.336   8.534
 5357WAT     H116313   1.800   9.412   8.558
 5357WAT     H216314   1.923   9.365   8.461
 5358WAT      O16315   9.406   9.799   1.251
 5358WAT     H116316   9.429   9.766   1.342
 5358WAT     H216317   9.457   9.747   1.182
 5359WAT      O16318   7.383   8.478   3.862
 5359WAT     H116319   7.463   8.508   3.809
 5359WAT     H216320   7.409   8.468   3.958
 5360WAT      O16321   8.605   0.851   4.088
 5360WAT     H116322   8.537   0.845   4.162
 5360WAT     H216323   8.695   0.866   4.127
 5361WAT      O16324   6.075   2.458   3.501
 5361WAT     H116325   6.151   2.454   3.435
 5361WAT     H216326   6.044   2.552   3.511
 5362WAT      O16327   0.890   0.389   2.721
 5362WAT     H116328   0.838   0.465   2.760
 5362WAT     H216329   0.860   0.303   2.761
 5363WAT      O16330   5.805   5.627   8.858
 5363WAT     H116331   5.732   5.640   8.924
 5363WAT     H216332   5.768   5.583   8.776
 5364WAT      O16333   4.577   2.028   9.636
 5364WAT     H116334   4.494   2.032   9.581
 5364WAT     H216335   4.643   2.096   9.603
 5365WAT      O16336   8.239   8.912   8.994
 5365WAT     H116337   8.167   8.855   8.956
 5365WAT     H216338   8.210   8.947   9.084
 5366WAT      O16339   5.106   7.261   8.520
 5366WAT     H116340   5.152   7.253   8.432
 5366WAT     H216341   5.092   7.169   8.558
 5367WAT      O16342   2.542   3.172   1.800
 5367WAT     H116343   2.609   3.186   1.728
 5367WAT     H216344   2.461   3.128   1.762
 5368WAT      O16345   6.606   5.352   9.123
 5368WAT     H116346   6.518   5.370   9.167
 5368WAT     H216347   6.667   5.308   9.188
 5369WAT      O16348   7.236   1.958   4.107
 5369WAT     H116349   7.145   1.983   4.143
 5369WAT     H216350   7.281   2.040   4.071
 5370WAT      O16351   9.130   0.649   3.429
 5370WAT     H116352   9.075   0.696   3.359
 5370WAT     H216353   9.192   0.584   3.384
 5371WAT      O16354   7.125   3.708   6.586
 5371WAT     H116355   7.105   3.725   6.682
 5371WAT     H216356   7.041   3.682   6.539
 5372WAT      O16357   1.973   2.308   9.305
 5372WAT     H116358   1.981   2.406   9.320
 5372WAT     H216359   1.937   2.291   9.213
 5373WAT      O16360   1.285   2.893   7.514
 5373WAT     H116361   1.295   2.983   7.471
 5373WAT     H216362   1.197   2.889   7.561
 5374WAT      O16363   3.127   7.132   5.353
 5374WAT     H116364   3.033   7.117   5.321
 5374WAT     H216365   3.127   7.205   5.421
 5375WAT      O16366   1.783   9.111   3.958
 5375WAT     H116367   1.698   9.123   3.907
 5375WAT     H216368   1.857   9.085   3.895
 5376WAT      O16369   7.284   8.774   3.013
 5376WAT     H116370   7.210   8.793   3.078
 5376WAT     H216371   7.248   8.778   2.920
 5377WAT      O16372   3.295   2.986   5.176
 5377WAT     H116373   3.367   2.984   5.107
 5377WAT     H216374   3.207   2.964   5.133
 5378WAT      O16375   9.807   4.988   4.230
 5378WAT     H116376   9.890   4.977   4.284
 5378WAT     H216377   9.808   5.078   4.186
 5379WAT      O16378   4.668   2.035   0.668
 5379WAT     H116379   4.649   2.115   0.611
 5379WAT     H216380   4.624   2.046   0.757
 5380WAT      O16381   6.655   6.236   4.113
 5380WAT     H116382   6.703   6.295   4.177
 5380WAT     H216383   6.703   6.149   4.105
 5381WAT      O16384   7.899   2.935   5.032
 5381WAT     H116385   7.951   2.913   4.950
 5381WAT     H216386   7.961   2.937   5.111
 5382WAT      O16387   1.067   3.464   5.570
 5382WAT     H116388   1.144   3.494   5.627
 5382WAT     H216389   1.097   3.458   5.475
 5383WAT      O16390   1.688   0.070   1.413
 5383WAT     H116391   1.752   0.004   1.452
 5383WAT     H216392   1.726   0.163   1.423
 5384WAT      O16393   9.040   6.223   5.854
 5384WAT     H116394   9.031   6.124   5.863
 5384WAT     H216395   9.092   6.244   5.771
 5385WAT      O16396   8.489   6.912   8.489
 5385WAT     H116397   8.486   6.960   8.401
 5385WAT     H216398   8.535   6.824   8.477
 5386WAT      O16399   3.807   6.518   5.037
 5386WAT     H116400   3.882   6.453   5.022
 5386WAT     H216401   3.720   6.471   5.027
 5387WAT      O16402   5.983   0.140   2.299
 5387WAT     H116403   6.040   0.061   2.322
 5387WAT     H216404   6.020   0.221   2.344
 5388WAT      O16405   7.437   9.839   0.491
 5388WAT     H116406   7.371   9.765   0.476
 5388WAT     H216407   7.460   9.843   0.588
 5389WAT      O16408   8.751   8.499   9.385
 5389WAT     H116409   8.834   8.446   9.367
 5389WAT     H216410   8.713   8.532   9.299
 5390WAT      O16411   7.103   0.050   9.758
 5390WAT     H116412   7.176  -0.003   9.713
 5390WAT     H216413   7.111   0.146   9.733
 5391WAT      O16414   9.507   7.666   1.788
 5391WAT     H116415   9.587   7.719   1.760
 5391WAT     H216416   9.520   7.570   1.762
 5392WAT      O16417   5.911   3.433   7.936
 5392WAT     H116418   5.866   3.392   7.856
 5392WAT     H216419   5.842   3.458   8.003
 5393WAT      O16420   4.870   7.291   3.783
 5393WAT     H116421   4.847   7.387   3.762
 5393WAT     H216422   4.804   7.255   3.849
 5394WAT      O16423   4.647   7.771   1.164
 5394WAT     H116424   4.573   7.759   1.098
 5394WAT     H216425   4.643   7.699   1.233
 5395WAT      O16426   0.646   4.470   1.516
 5395WAT     H116427   0.721   4.419   1.558
 5395WAT     H216428   0.656   4.468   1.416
 5396WAT      O16429   9.404   6.344   5.717
 5396WAT     H116430   9.331   6.326   5.652
 5396WAT     H216431   9.374   6.414   5.783
 5397WAT      O16432   9.067   3.991   7.554
 5397WAT     H116433   8.982   3.949   7.585
 5397WAT     H216434   9.138   3.979   7.624
 5398WAT      O16435   8.057   7.886   0.392
 5398WAT     H116436   8.064   7.953   0.465
 5398WAT     H216437   7.968   7.840   0.398
 5399WAT      O16438   1.234   2.323   6.771
 5399WAT     H116439   1.189   2.395   6.717
 5399WAT     H216440   1.170   2.289   6.840
 5400WAT      O16441   2.026   6.761   1.725
 5400WAT     H116442   2.035   6.852   1.766
 5400WAT     H216443   1.932   6.747   1.694
 5401WAT      O16444   1.843   9.180   0.623
 5401WAT     H116445   1.898   9.209   0.545
 5401WAT     H216446   1.813   9.261   0.674
 5402WAT      O16447   7.279   8.380   7.432
 5402WAT     H116448   7.374   8.410   7.433
 5402WAT     H216449   7.224   8.447   7.382
 5403WAT      O16450   4.998   1.624   6.603
 5403WAT     H116451   5.059   1.695   6.569
 5403WAT     H216452   5.047   1.564   6.665
 5404WAT      O16453   9.231   5.458   9.727
 5404WAT     H116454   9.298   5.391   9.694
 5404WAT     H216455   9.231   5.459   9.827
 5405WAT      O16456   1.591   6.184   8.632
 5405WAT     H116457   1.602   6.092   8.671
 5405WAT     H216458   1.524   6.181   8.558
 5406WAT      O16459   7.905   7.121   8.499
 5406WAT     H116460   7.979   7.082   8.444
 5406WAT     H216461   7.840   7.049   8.522
 5407WAT      O16462   5.267   6.512   4.738
 5407WAT     H116463   5.337   6.467   4.683
 5407WAT     H216464   5.260   6.608   4.712
 5408WAT      O16465   5.908   7.809   3.726
 5408WAT     H116466   5.946   7.747   3.794
 5408WAT     H216467   5.965   7.808   3.644
 5409WAT      O16468   7.928   0.766   7.680
 5409WAT     H116469   7.911   0.711   7.599
 5409WAT     H216470   7.997   0.836   7.660
 5410WAT      O16471   0.128   5.978   1.349
 5410WAT     H116472   0.209   5.971   1.291
 5410WAT     H216473   0.073   6.056   1.320
 5411WAT      O16474   8.572   7.148   0.221
 5411WAT     H116475   8.618   7.167   0.307
 5411WAT     H216476   8.569   7.232   0.165
 5412WAT      O16477   0.882   1.584   2.584
 5412WAT     H116478   0.981   1.588   2.596
 5412WAT     H216479   0.838   1.573   2.674
 5413WAT      O16480   6.229   8.596   5.396
 5413WAT     H116481   6.294   8.632   5.463
 5413WAT     H216482   6.138   8.633   5.414
 5414WAT      O16483   2.934   4.854   1.225
 5414WAT     H116484   2.890   4.880   1.310
 5414WAT     H216485   3.009   4.790   1.244
 5415WAT      O16486   7.125   2.529   9.718
 5415WAT     H116487   7.164   2.469   9.788
 5415WAT     H216488   7.154   2.497   9.628
 5416WAT      O16489   1.858   5.728   2.838
 5416WAT     H116490   1.876   5.742   2.936
 5416WAT     H216491   1.776   5.672   2.827
 5417WAT      O16492   4.734   6.865   2.395
 5417WAT     H116493   4.807   6.928   2.368
 5417WAT     H216494   4.712   6.880   2.492
 5418WAT      O16495   0.949   8.160   4.560
 5418WAT     H116496   0.923   8.199   4.471
 5418WAT     H216497   1.015   8.220   4.605
 5419WAT      O16498   6.254   2.499   8.433
 5419WAT     H116499   6.207   2.410   8.439
 5419WAT     H216500   6.330   2.501   8.497
 5420WAT      O16501   7.535   9.590   0.167
 5420WAT     H116502   7.581   9.568   0.253
 5420WAT     H216503   7.484   9.676   0.177
 5421WAT      O16504   8.213   4.712   7.205
 5421WAT     H116505   8.277   4.742   7.275
 5421WAT     H216506   8.189   4.789   7.146
 5422WAT      O16507   5.434   8.039   7.683
 5422WAT     H116508   5.427   8.058   7.585
 5422WAT     H216509   5.441   8.126   7.733
 5423WAT      O16510   5.607   0.023   2.490
 5423WAT     H116511   5.668   0.022   2.411
 5423WAT     H216512   5.549   0.104   2.486
 5424WAT      O16513   8.679   8.245   9.478
 5424WAT     H116514   8.698   8.334   9.436
 5424WAT     H216515   8.740   8.176   9.438
 5425WAT      O16516   1.671   2.761   5.804
 5425WAT     H116517   1.722   2.832   5.756
 5425WAT     H216518   1.603   2.721   5.743
 5426WAT      O16519   7.062   2.677   1.310
 5426WAT     H116520   6.971   2.649   1.277
 5426WAT     H216521   7.083   2.626   1.394
 5427WAT      O16522   7.533   5.842   0.816
 5427WAT     H116523   7.519   5.772   0.885
 5427WAT     H216524   7.572   5.801   0.734
 5428WAT      O16525   2.495   3.386   6.909
 5428WAT     H116526   2.575   3.438   6.938
 5428WAT     H216527   2.485   3.304   6.966
 5429WAT      O16528   5.489   6.675   4.597
 5429WAT     H116529   5.582   6.705   4.576
 5429WAT     H216530   5.490   6.578   4.621
 5430WAT      O16531   2.608   2.619   1.320
 5430WAT     H116532   2.543   2.694   1.331
 5430WAT     H216533   2.655   2.627   1.232
 5431WAT      O16534   7.030   1.630   0.122
 5431WAT     H116535   7.078   1.647   0.036
 5431WAT     H216536   6.972   1.708   0.144
 5432WAT      O16537   1.983   1.507   3.386
 5432WAT     H116538   1.925   1.473   3.313
 5432WAT     H216539   2.054   1.566   3.348
 5433WAT      O16540   3.007   9.122   9.883
 5433WAT     H116541   3.031   9.027   9.862
 5433WAT     H216542   2.908   9.132   9.882
 5434WAT      O16543   2.962   0.970   1.702
 5434WAT     H116544   2.884   0.978   1.764
 5434WAT     H216545   3.012   0.886   1.722
 5435WAT      O16546   2.334   8.742   7.720
 5435WAT     H116547   2.391   8.725   7.800
 5435WAT     H216548   2.312   8.655   7.676
 5436WAT      O16549   3.884   9.471   7.515
 5436WAT     H116550   3.932   9.410   7.451
 5436WAT     H216551   3.804   9.510   7.469
 5437WAT      O16552   5.515   4.162   7.432
 5437WAT     H116553   5.519   4.068   7.467
 5437WAT     H216554   5.424   4.180   7.397
 5438WAT      O16555   1.243   7.410   8.344
 5438WAT     H116556   1.261   7.500   8.305
 5438WAT     H216557   1.214   7.420   8.439
 5439WAT      O16558   1.323   5.618   7.715
 5439WAT     H116559   1.348   5.562   7.636
 5439WAT     H216560   1.391   5.691   7.727
 5440WAT      O16561   3.170   5.979   6.890
 5440WAT     H116562   3.203   5.885   6.898
 5440WAT     H216563   3.172   6.008   6.794
 5441WAT      O16564   9.662   5.055   9.598
 5441WAT     H116565   9.608   4.971   9.606
 5441WAT     H216566   9.739   5.051   9.662
 5442WAT      O16567   1.320   9.079   1.431
 5442WAT     H116568   1.292   9.118   1.344
 5442WAT     H216569   1.254   9.010   1.461
 5443WAT      O16570   6.501   0.170   0.140
 5443WAT     H116571   6.571   0.242   0.138
 5443WAT     H216572   6.544   0.081   0.151
 5444WAT      O16573   6.946   9.688   3.439
 5444WAT     H116574   6.923   9.640   3.354
 5444WAT     H216575   7.001   9.627   3.497
 5445WAT      O16576   4.321   6.271   5.855
 5445WAT     H116577   4.371   6.301   5.937
 5445WAT     H216578   4.374   6.295   5.774
 5446WAT      O16579   4.879   0.933   0.725
 5446WAT     H116580   4.928   1.021   0.718
 5446WAT     H216581   4.831   0.929   0.813
 5447WAT      O16582   9.060   3.965   1.419
 5447WAT     H116583   8.984   3.999   1.475
 5447WAT     H216584   9.146   3.991   1.462
 5448WAT      O16585   2.526   5.953   7.369
 5448WAT     H116586   2.590   5.881   7.396
 5448WAT     H216587   2.554   5.992   7.282
 5449WAT      O16588   0.379   4.454   2.560
 5449WAT     H116589   0.342   4.402   2.484
 5449WAT     H216590   0.304   4.483   2.620
 5450WAT      O16591   1.080   6.375   9.287
 5450WAT     H116592   1.106   6.461   9.331
 5450WAT     H216593   1.159   6.314   9.286
 5451WAT      O16594   2.878   2.023   0.736
 5451WAT     H116595   2.830   2.075   0.666
 5451WAT     H216596   2.838   1.931   0.744
 5452WAT      O16597   3.318   8.083   3.237
 5452WAT     H116598   3.343   8.124   3.149
 5452WAT     H216599   3.228   8.041   3.230
 5453WAT      O16600   3.911   4.468   9.620
 5453WAT     H116601   3.929   4.563   9.595
 5453WAT     H216602   3.882   4.463   9.715
 5454WAT      O16603   5.185   3.996   1.832
 5454WAT     H116604   5.092   3.961   1.825
 5454WAT     H216605   5.245   3.943   1.771
 5455WAT      O16606   9.746   0.855   9.353
 5455WAT     H116607   9.716   0.809   9.436
 5455WAT     H216608   9.666   0.893   9.306
 5456WAT      O16609   6.660   1.685   5.407
 5456WAT     H116610   6.697   1.752   5.343
 5456WAT     H216611   6.563   1.670   5.388
 5457WAT      O16612   1.086   0.821   9.030
 5457WAT     H116613   1.176   0.794   8.993
 5457WAT     H216614   1.083   0.920   9.039
 5458WAT      O16615   6.922   6.589   7.946
 5458WAT     H116616   7.000   6.652   7.941
 5458WAT     H216617   6.915   6.552   8.039
 5459WAT      O16618   5.061   7.421   1.428
 5459WAT     H116619   5.016   7.436   1.340
 5459WAT     H216620   4.993   7.424   1.501
 5460WAT      O16621   5.762   2.244   6.003
 5460WAT     H116622   5.834   2.308   5.978
 5460WAT     H216623   5.743   2.184   5.925
 5461WAT      O16624   5.356   3.079   5.699
 5461WAT     H116625   5.277   3.121   5.655
 5461WAT     H216626   5.427   3.148   5.713
 5462WAT      O16627   4.740   3.829   7.195
 5462WAT     H116628   4.828   3.791   7.224
 5462WAT     H216629   4.669   3.800   7.259
 5463WAT      O16630   1.121   9.160   6.506
 5463WAT     H116631   1.191   9.230   6.490
 5463WAT     H216632   1.089   9.125   6.418
 5464WAT      O16633   3.864   4.964   5.432
 5464WAT     H116634   3.885   4.950   5.335
 5464WAT     H216635   3.949   4.974   5.484
 5465WAT      O16636   7.665   4.503   7.994
 5465WAT     H116637   7.616   4.532   7.913
 5465WAT     H216638   7.764   4.515   7.979
 5466WAT      O16639   4.640   6.678   1.743
 5466WAT     H116640   4.549   6.636   1.737
 5466WAT     H216641   4.630   6.776   1.765
 5467WAT      O16642   5.253   9.439   7.518
 5467WAT     H116643   5.177   9.501   7.540
 5467WAT     H216644   5.325   9.490   7.472
 5468WAT      O16645   8.875   1.985   4.068
 5468WAT     H116646   8.919   1.897   4.087
 5468WAT     H216647   8.797   1.971   4.007
 5469WAT      O16648   7.391   8.087   2.409
 5469WAT     H116649   7.426   8.045   2.492
 5469WAT     H216650   7.413   8.028   2.330
 5470WAT      O16651   6.400   5.264   5.913
 5470WAT     H116652   6.382   5.323   5.991
 5470WAT     H216653   6.345   5.181   5.922
 5471WAT      O16654   9.010   0.944   7.940
 5471WAT     H116655   9.087   0.981   7.991
 5471WAT     H216656   9.020   0.967   7.843
 5472WAT      O16657   1.241   8.827   6.144
 5472WAT     H116658   1.214   8.754   6.082
 5472WAT     H216659   1.341   8.830   6.152
 5473WAT      O16660   6.637   2.328   7.307
 5473WAT     H116661   6.699   2.291   7.238
 5473WAT     H216662   6.682   2.327   7.396
 5474WAT      O16663   4.166   9.634   1.791
 5474WAT     H116664   4.250   9.687   1.802
 5474WAT     H216665   4.131   9.647   1.698
 5475WAT      O16666   5.356   0.180   5.426
 5475WAT     H116667   5.370   0.089   5.388
 5475WAT     H216668   5.427   0.199   5.494
 5476WAT      O16669   1.216   7.695   1.391
 5476WAT     H116670   1.255   7.757   1.323
 5476WAT     H216671   1.250   7.719   1.482
 5477WAT      O16672   0.003   0.630   2.877
 5477WAT     H116673   0.068   0.669   2.944
 5477WAT     H216674  -0.074   0.589   2.926
 5478WAT      O16675   9.190   5.687   2.541
 5478WAT     H116676   9.227   5.715   2.452
 5478WAT     H216677   9.091   5.672   2.532
 5479WAT      O16678   5.007   4.322   5.298
 5479WAT     H116679   5.048   4.411   5.318
 5479WAT     H216680   4.942   4.298   5.370
 5480WAT      O16681   7.509   6.923   7.858
 5480WAT     H116682   7.516   6.824   7.842
 5480WAT     H216683   7.418   6.954   7.833
 5481WAT      O16684   9.062   3.716   3.090
 5481WAT     H116685   8.970   3.736   3.055
 5481WAT     H216686   9.073   3.617   3.099
 5482WAT      O16687   1.803   2.007   1.038
 5482WAT     H116688   1.779   1.954   0.957
 5482WAT     H216689   1.719   2.034   1.086
 5483WAT      O16690   6.638   8.783   3.025
 5483WAT     H116691   6.602   8.771   3.118
 5483WAT     H216692   6.646   8.880   3.005
 5484WAT      O16693   0.364   6.415   1.185
 5484WAT     H116694   0.398   6.461   1.103
 5484WAT     H216695   0.387   6.318   1.181
 5485WAT      O16696   6.714   8.960   2.072
 5485WAT     H116697   6.712   8.860   2.074
 5485WAT     H216698   6.793   8.990   2.018
 5486WAT      O16699   5.148   8.429   2.987
 5486WAT     H116700   5.071   8.365   2.985
 5486WAT     H216701   5.194   8.423   3.075
 5487WAT      O16702   8.263   8.690   3.040
 5487WAT     H116703   8.264   8.780   2.997
 5487WAT     H216704   8.332   8.687   3.112
 5488WAT      O16705   8.552   2.138   2.476
 5488WAT     H116706   8.556   2.153   2.575
 5488WAT     H216707   8.566   2.225   2.429
 5489WAT      O16708   0.962   1.468   5.398
 5489WAT     H116709   0.979   1.397   5.467
 5489WAT     H216710   1.026   1.457   5.322
 5490WAT      O16711   2.666   4.557   8.823
 5490WAT     H116712   2.716   4.471   8.823
 5490WAT     H216713   2.577   4.544   8.865
 5491WAT      O16714   2.209   2.144   4.437
 5491WAT     H116715   2.143   2.074   4.461
 5491WAT     H216716   2.269   2.110   4.364
 5492WAT      O16717   3.784   4.402   2.127
 5492WAT     H116718   3.883   4.389   2.113
 5492WAT     H216719   3.769   4.453   2.211
 5493WAT      O16720   0.958   9.677   1.163
 5493WAT     H116721   0.940   9.630   1.076
 5493WAT     H216722   0.968   9.775   1.146
 5494WAT      O16723   3.142   1.334   0.329
 5494WAT     H116724   3.117   1.301   0.238
 5494WAT     H216725   3.063   1.326   0.390
 5495WAT      O16726   8.302   7.148   2.837
 5495WAT     H116727   8.287   7.147   2.738
 5495WAT     H216728   8.235   7.207   2.881
 5496WAT      O16729   7.117   2.218   6.118
 5496WAT     H116730   7.164   2.198   6.033
 5496WAT     H216731   7.085   2.133   6.159
 5497WAT      O16732   2.151   1.481   6.524
 5497WAT     H116733   2.095   1.564   6.524
 5497WAT     H216734   2.156   1.445   6.431
 5498WAT      O16735   0.165   6.569   1.500
 5498WAT     H116736   0.165   6.646   1.436
 5498WAT     H216737   0.076   6.561   1.544
 5499WAT      O16738   5.981   1.599   9.212
 5499WAT     H116739   5.967   1.694   9.242
 5499WAT     H216740   5.986   1.540   9.292
 5500WAT      O16741   7.793   0.908   1.120
 5500WAT     H116742   7.874   0.933   1.174
 5500WAT     H216743   7.768   0.813   1.140
 5501WAT      O16744   3.156   2.863   2.145
 5501WAT     H116745   3.209   2.935   2.189
 5501WAT     H216746   3.059   2.889   2.142
 5502WAT      O16747   2.609   7.800   4.915
 5502WAT     H116748   2.556   7.761   4.990
 5502WAT     H216749   2.631   7.895   4.936
 5503WAT      O16750   5.875   7.144   0.573
 5503WAT     H116751   5.786   7.135   0.617
 5503WAT     H216752   5.929   7.214   0.620
 5504WAT      O16753   7.725   1.670   5.704
 5504WAT     H116754   7.757   1.605   5.772
 5504WAT     H216755   7.798   1.736   5.685
 5505WAT      O16756   9.622   5.750   4.795
 5505WAT     H116757   9.675   5.739   4.879
 5505WAT     H216758   9.680   5.786   4.723
 5506WAT      O16759   6.864   1.822   9.664
 5506WAT     H116760   6.896   1.908   9.625
 5506WAT     H216761   6.859   1.830   9.764
 5507WAT      O16762   5.680   9.565   5.584
 5507WAT     H116763   5.686   9.465   5.585
 5507WAT     H216764   5.680   9.598   5.490
 5508WAT      O16765   4.462   2.608   3.537
 5508WAT     H116766   4.423   2.681   3.593
 5508WAT     H216767   4.405   2.595   3.456
 5509WAT      O16768   9.777   4.671   6.164
 5509WAT     H116769   9.680   4.678   6.138
 5509WAT     H216770   9.833   4.665   6.081
 5510WAT      O16771   6.401   9.831   7.463
 5510WAT     H116772   6.439   9.910   7.510
 5510WAT     H216773   6.471   9.789   7.405
 5511WAT      O16774   5.592   1.657   2.952
 5511WAT     H116775   5.575   1.563   2.980
 5511WAT     H216776   5.638   1.658   2.863
 5512WAT      O16777   4.392   7.846   5.256
 5512WAT     H116778   4.454   7.809   5.325
 5512WAT     H216779   4.405   7.800   5.169
 5513WAT      O16780   4.422   3.464   7.487
 5513WAT     H116781   4.487   3.424   7.422
 5513WAT     H216782   4.470   3.530   7.545
 5514WAT      O16783   2.691   5.926   3.931
 5514WAT     H116784   2.696   5.932   3.831
 5514WAT     H216785   2.629   5.996   3.966
 5515WAT      O16786   1.767   3.563   2.132
 5515WAT     H116787   1.862   3.536   2.115
 5515WAT     H216788   1.735   3.621   2.057
 5516WAT      O16789   1.507   2.496   8.946
 5516WAT     H116790   1.573   2.462   8.880
 5516WAT     H216791   1.457   2.418   8.986
 5517WAT      O16792   8.138   0.906   6.616
 5517WAT     H116793   8.165   0.828   6.560
 5517WAT     H216794   8.104   0.979   6.556
 5518WAT      O16795   1.395   3.004   9.766
 5518WAT     H116796   1.385   2.929   9.701
 5518WAT     H216797   1.340   2.985   9.848
 5519WAT      O16798   8.808   0.342   0.900
 5519WAT     H116799   8.861   0.305   0.977
 5519WAT     H216800   8.736   0.277   0.875
 5520WAT      O16801   9.879   3.728   6.373
 5520WAT     H116802   9.881   3.765   6.466
 5520WAT     H216803   9.808   3.775   6.320
 5521WAT      O16804   7.961   4.825   2.282
 5521WAT     H116805   7.929   4.919   2.298
 5521WAT     H216806   8.048   4.827   2.233
 5522WAT      O16807   7.168   6.589   1.967
 5522WAT     H116808   7.188   6.651   1.891
 5522WAT     H216809   7.069   6.581   1.977
 5523WAT      O16810   1.331   5.509   5.465
 5523WAT     H116811   1.292   5.422   5.437
 5523WAT     H216812   1.277   5.584   5.427
 5524WAT      O16813   2.035   4.653   5.549
 5524WAT     H116814   2.130   4.653   5.582
 5524WAT     H216815   2.035   4.646   5.449
 5525WAT      O16816   2.353   2.103   2.879
 5525WAT     H116817   2.441   2.084   2.835
 5525WAT     H216818   2.305   2.017   2.895
 5526WAT      O16819   5.096   2.744   3.467
 5526WAT     H116820   5.097   2.831   3.516
 5526WAT     H216821   5.182   2.696   3.484
 5527WAT      O16822   3.987   4.174   6.103
 5527WAT     H116823   4.019   4.266   6.122
 5527WAT     H216824   3.983   4.122   6.188
 5528WAT      O16825   8.424   9.513   1.711
 5528WAT     H116826   8.460   9.511   1.805
 5528WAT     H216827   8.345   9.453   1.704
 5529WAT      O16828   6.589   9.762   0.771
 5529WAT     H116829   6.644   9.707   0.709
 5529WAT     H216830   6.545   9.703   0.839
 5530WAT      O16831   7.983   1.392   9.768
 5530WAT     H116832   8.062   1.449   9.791
 5530WAT     H216833   7.899   1.437   9.799
 5531WAT      O16834   5.502   0.186   6.390
 5531WAT     H116835   5.532   0.180   6.295
 5531WAT     H216836   5.413   0.233   6.394
 5532WAT      O16837   9.430   3.384   0.323
 5532WAT     H116838   9.419   3.299   0.374
 5532WAT     H216839   9.419   3.366   0.226
 5533WAT      O16840   3.804   0.767   3.245
 5533WAT     H116841   3.883   0.823   3.271
 5533WAT     H216842   3.795   0.766   3.145
 5534WAT      O16843   5.581   3.956   6.189
 5534WAT     H116844   5.595   4.052   6.214
 5534WAT     H216845   5.658   3.902   6.224
 5535WAT      O16846   1.442   0.346   4.097
 5535WAT     H116847   1.345   0.354   4.073
 5535WAT     H216848   1.463   0.411   4.170
 5536WAT      O16849   6.191   8.100   8.108
 5536WAT     H116850   6.249   8.134   8.182
 5536WAT     H216851   6.238   8.115   8.020
 5537WAT      O16852   1.276   8.299   7.876
 5537WAT     H116853   1.304   8.239   7.951
 5537WAT     H216854   1.182   8.278   7.851
 5538WAT      O16855   2.097   3.102   3.416
 5538WAT     H116856   2.149   3.050   3.348
 5538WAT     H216857   2.140   3.093   3.505
 5539WAT      O16858   3.941   9.579   3.920
 5539WAT     H116859   3.901   9.543   3.836
 5539WAT     H216860   3.886   9.655   3.954
 5540WAT      O16861   7.597   4.515   1.981
 5540WAT     H116862   7.656   4.455   1.927
 5540WAT     H216863   7.528   4.557   1.922
 5541WAT      O16864   7.185   3.140   2.581
 5541WAT     H116865   7.268   3.163   2.529
 5541WAT     H216866   7.143   3.224   2.614
 5542WAT      O16867   3.363   2.239   6.194
 5542WAT     H116868   3.462   2.250   6.195
 5542WAT     H216869   3.319   2.329   6.204
 5543WAT      O16870   5.332   1.282   7.969
 5543WAT     H116871   5.272   1.203   7.980
 5543WAT     H216872   5.330   1.337   8.052
 5544WAT      O16873   5.420   6.110   4.296
 5544WAT     H116874   5.429   6.094   4.198
 5544WAT     H216875   5.344   6.055   4.331
 5545WAT      O16876   5.636   5.370   7.566
 5545WAT     H116877   5.701   5.431   7.520
 5545WAT     H216878   5.635   5.282   7.520
 5546WAT      O16879   3.052   0.680   5.359
 5546WAT     H116880   3.001   0.758   5.394
 5546WAT     H216881   3.048   0.679   5.259
 5547WAT      O16882   7.562   0.536   1.232
 5547WAT     H116883   7.560   0.446   1.188
 5547WAT     H216884   7.558   0.524   1.331
 5548WAT      O16885   1.215   4.137   2.272
 5548WAT     H116886   1.132   4.085   2.251
 5548WAT     H216887   1.263   4.094   2.349
 5549WAT      O16888   3.391   5.096   7.982
 5549WAT     H116889   3.428   5.167   8.042
 5549WAT     H216890   3.332   5.036   8.035
 5550WAT      O16891   8.581   1.395   6.555
 5550WAT     H116892   8.559   1.469   6.618
 5550WAT     H216893   8.620   1.433   6.471
 5551WAT      O16894   6.084   8.654   0.653
 5551WAT     H116895   6.049   8.574   0.604
 5551WAT     H216896   6.024   8.674   0.731
 5552WAT      O16897   1.801   4.534   2.805
 5552WAT     H116898   1.841   4.543   2.896
 5552WAT     H216899   1.842   4.457   2.756
 5553WAT      O16900   9.837   3.666   8.673
 5553WAT     H116901   9.785   3.730   8.730
 5553WAT     H216902   9.874   3.593   8.731
 5554WAT      O16903   7.801   4.485   0.162
 5554WAT     H116904   7.776   4.388   0.154
 5554WAT     H216905   7.743   4.529   0.230
 5555WAT      O16906   0.633   1.547   7.477
 5555WAT     H116907   0.564   1.480   7.502
 5555WAT     H216908   0.716   1.501   7.447
 5556WAT      O16909   8.327   4.676   3.284
 5556WAT     H116910   8.246   4.729   3.256
 5556WAT     H216911   8.399   4.686   3.215
 5557WAT      O16912   3.496   8.155   3.570
 5557WAT     H116913   3.497   8.227   3.501
 5557WAT     H216914   3.437   8.184   3.646
 5558WAT      O16915   7.348   5.995   5.628
 5558WAT     H116916   7.369   6.066   5.695
 5558WAT     H216917   7.355   5.905   5.672
 5559WAT      O16918   2.066   3.068   2.218
 5559WAT     H116919   2.165   3.073   2.224
 5559WAT     H216920   2.034   3.121   2.139
 5560WAT      O16921   7.681   6.344   1.001
 5560WAT     H116922   7.654   6.379   0.911
 5560WAT     H216923   7.779   6.358   1.014
 5561WAT      O16924   1.976   7.193   2.218
 5561WAT     H116925   2.025   7.144   2.146
 5561WAT     H216926   2.041   7.232   2.282
 5562WAT      O16927   5.617   1.899   1.145
 5562WAT     H116928   5.577   1.810   1.163
 5562WAT     H216929   5.561   1.948   1.078
 5563WAT      O16930   1.003   7.621   4.806
 5563WAT     H116931   0.978   7.685   4.878
 5563WAT     H216932   1.000   7.527   4.842
 5564WAT      O16933   9.598   6.005   0.188
 5564WAT     H116934   9.516   6.045   0.146
 5564WAT     H216935   9.619   6.054   0.273
 5565WAT      O16936   4.613   2.989   9.351
 5565WAT     H116937   4.582   3.084   9.342
 5565WAT     H216938   4.553   2.929   9.299
 5566WAT      O16939   8.818   1.134   5.127
 5566WAT     H116940   8.908   1.114   5.164
 5566WAT     H216941   8.799   1.072   5.051
 5567WAT      O16942   1.536   7.930   5.812
 5567WAT     H116943   1.588   7.880   5.742
 5567WAT     H216944   1.562   7.896   5.902
 5568WAT      O16945   0.088   5.548   5.163
 5568WAT     H116946   0.149   5.619   5.129
 5568WAT     H216947   0.141   5.477   5.209
 5569WAT      O16948   5.781   8.188   2.940
 5569WAT     H116949   5.704   8.124   2.951
 5569WAT     H216950   5.753   8.279   2.970
 5570WAT      O16951   0.444   8.748   8.502
 5570WAT     H116952   0.376   8.706   8.562
 5570WAT     H216953   0.483   8.677   8.443
 5571WAT      O16954   1.454   4.233   0.552
 5571WAT     H116955   1.391   4.230   0.474
 5571WAT     H216956   1.475   4.329   0.573
 5572WAT      O16957   6.837   8.783   9.610
 5572WAT     H116958   6.786   8.776   9.524
 5572WAT     H216959   6.933   8.804   9.591
 5573WAT      O16960   0.973   5.282   8.888
 5573WAT     H116961   0.919   5.358   8.926
 5573WAT     H216962   0.984   5.211   8.958
 5574WAT      O16963   6.334   7.669   4.580
 5574WAT     H116964   6.397   7.744   4.602
 5574WAT     H216965   6.356   7.632   4.490
 5575WAT      O16966   8.063   1.313   9.507
 5575WAT     H116967   8.159   1.339   9.497
 5575WAT     H216968   8.033   1.336   9.600
 5576WAT      O16969   6.181   0.820   7.117
 5576WAT     H116970   6.186   0.802   7.019
 5576WAT     H216971   6.094   0.784   7.153
 5577WAT      O16972   6.752   0.295   2.986
 5577WAT     H116973   6.697   0.244   3.052
 5577WAT     H216974   6.833   0.242   2.962
 5578WAT      O16975   2.842   2.321   1.592
 5578WAT     H116976   2.937   2.306   1.563
 5578WAT     H216977   2.814   2.414   1.568
 5579WAT      O16978   7.807   6.540   8.483
 5579WAT     H116979   7.772   6.627   8.447
 5579WAT     H216980   7.732   6.491   8.528
 5580WAT      O16981   7.946   1.727   0.629
 5580WAT     H116982   7.847   1.716   0.622
 5580WAT     H216983   7.970   1.760   0.720
 5581WAT      O16984   5.151   6.313   4.346
 5581WAT     H116985   5.147   6.413   4.348
 5581WAT     H216986   5.147   6.282   4.251
 5582WAT      O16987   7.082   2.474   8.948
 5582WAT     H116988   7.086   2.569   8.977
 5582WAT     H216989   7.109   2.467   8.852
 5583WAT      O16990   3.898   7.808   5.157
 5583WAT     H116991   3.805   7.814   5.194
 5583WAT     H216992   3.964   7.829   5.229
 5584WAT      O16993   3.029   9.160   8.354
 5584WAT     H116994   3.010   9.180   8.258
 5584WAT     H216995   3.049   9.245   8.402
 5585WAT      O16996   8.589   2.336   5.606
 5585WAT     H116997   8.626   2.381   5.687
 5585WAT     H216998   8.664   2.304   5.548
 5586WAT      O16999   9.248   7.697   7.647
 5586WAT     H117000   9.164   7.706   7.594
 5586WAT     H217001   9.281   7.788   7.673
 5587WAT      O17002   5.436   6.928   7.345
 5587WAT     H117003   5.534   6.936   7.326
 5587WAT     H217004   5.386   6.993   7.289
 5588WAT      O17005   7.060   0.995   5.346
 5588WAT     H117006   7.043   1.036   5.256
 5588WAT     H217007   7.110   1.061   5.403
 5589WAT      O17008   6.299   6.427   7.101
 5589WAT     H117009   6.347   6.345   7.133
 5589WAT     H217010   6.339   6.508   7.144
 5590WAT      O17011   8.024   0.713   2.118
 5590WAT     H117012   8.102   0.772   2.094
 5590WAT     H217013   7.987   0.741   2.206
 5591WAT      O17014   7.426   5.993   2.826
 5591WAT     H117015   7.341   5.964   2.781
 5591WAT     H217016   7.428   6.092   2.834
 5592WAT      O17017   2.712   5.022   0.656
 5592WAT     H117018   2.764   5.037   0.740
 5592WAT     H217019   2.680   4.927   0.652
 5593WAT      O17020   4.195   1.526   6.928
 5593WAT     H117021   4.148   1.538   6.841
 5593WAT     H217022   4.145   1.575   7.000
 5594WAT      O17023   4.416   6.564   9.637
 5594WAT     H117024   4.505   6.530   9.605
 5594WAT     H217025   4.354   6.487   9.651
 5595WAT      O17026   9.845   3.324   1.289
 5595WAT     H117027   9.934   3.368   1.292
 5595WAT     H217028   9.840   3.253   1.360
 5596WAT      O17029   7.401   0.186   1.028
 5596WAT     H117030   7.373   0.110   1.087
 5596WAT     H217031   7.325   0.213   0.970
 5597WAT      O17032   2.394   1.000   7.184
 5597WAT     H117033   2.478   1.033   7.142
 5597WAT     H217034   2.403   0.902   7.205
 5598WAT      O17035   7.853   2.238   6.330
 5598WAT     H117036   7.782   2.253   6.398
 5598WAT     H217037   7.812   2.240   6.239
 5599WAT      O17038   5.371   7.683   0.658
 5599WAT     H117039   5.437   7.726   0.720
 5599WAT     H217040   5.285   7.668   0.706
 5600WAT      O17041   2.695   0.061   6.600
 5600WAT     H117042   2.658   0.060   6.507
 5600WAT     H217043   2.647  -0.007   6.655
 5601WAT      O17044   0.878   0.670   7.671
 5601WAT     H117045   0.866   0.572   7.681
 5601WAT     H217046   0.890   0.693   7.574
 5602WAT      O17047   3.427   0.904   3.380
 5602WAT     H117048   3.399   0.821   3.429
 5602WAT     H217049   3.346   0.959   3.359
 5603WAT      O17050   8.514   1.947   8.820
 5603WAT     H117051   8.429   1.932   8.870
 5603WAT     H217052   8.533   2.045   8.814
 5604WAT      O17053   2.832   5.590   4.744
 5604WAT     H117054   2.769   5.660   4.776
 5604WAT     H217055   2.883   5.625   4.664
 5605WAT      O17056   9.052   2.496   0.056
 5605WAT     H117057   9.049   2.416   0.117
 5605WAT     H217058   9.138   2.495   0.005
 5606WAT      O17059   9.810   0.731   7.191
 5606WAT     H117060   9.886   0.793   7.170
 5606WAT     H217061   9.738   0.781   7.240
 5607WAT      O17062   7.884   2.337   4.948
 5607WAT     H117063   7.919   2.427   4.921
 5607WAT     H217064   7.785   2.334   4.935
 5608WAT      O17065   2.588   4.489   1.870
 5608WAT     H117066   2.493   4.477   1.896
 5608WAT     H217067   2.597   4.476   1.771
 5609WAT      O17068   9.679   7.569   9.280
 5609WAT     H117069   9.759   7.534   9.329
 5609WAT     H217070   9.609   7.498   9.275
 5610WAT      O17071   3.957   7.022   6.676
 5610WAT     H117072   4.014   7.034   6.595
 5610WAT     H217073   3.878   7.084   6.671
 5611WAT      O17074   2.197   2.037   5.401
 5611WAT     H117075   2.278   1.982   5.416
 5611WAT     H217076   2.121   1.979   5.372
 5612WAT      O17077   5.564   3.149   7.947
 5612WAT     H117078   5.623   3.158   8.027
 5612WAT     H217079   5.528   3.055   7.943
 5613WAT      O17080   4.051   4.307   2.405
 5613WAT     H117081   4.002   4.311   2.318
 5613WAT     H217082   4.013   4.374   2.468
 5614WAT      O17083   6.687   8.640   2.373
 5614WAT     H117084   6.635   8.560   2.342
 5614WAT     H217085   6.730   8.619   2.460
 5615WAT      O17086   3.420   1.041   6.746
 5615WAT     H117087   3.367   0.993   6.815
 5615WAT     H217088   3.372   1.038   6.658
 5616WAT      O17089   3.415   9.231   0.564
 5616WAT     H117090   3.501   9.247   0.516
 5616WAT     H217091   3.338   9.260   0.506
 5617WAT      O17092   4.180   0.619   8.971
 5617WAT     H117093   4.225   0.622   9.060
 5617WAT     H217094   4.086   0.587   8.982
 5618WAT      O17095   1.471   9.045   2.110
 5618WAT     H117096   1.400   9.100   2.153
 5618WAT     H217097   1.470   8.953   2.151
 5619WAT      O17098   0.999   2.211   8.362
 5619WAT     H117099   0.965   2.262   8.282
 5619WAT     H217100   0.984   2.113   8.348
 5620WAT      O17101   5.239   0.405   7.735
 5620WAT     H117102   5.210   0.441   7.646
 5620WAT     H217103   5.319   0.456   7.767
 5621WAT      O17104   7.655   5.787   1.111
 5621WAT     H117105   7.650   5.698   1.065
 5621WAT     H217106   7.681   5.857   1.045
 5622WAT      O17107   2.085   7.914   5.755
 5622WAT     H117108   2.104   7.999   5.705
 5622WAT     H217109   2.008   7.927   5.816
 5623WAT      O17110   4.736   1.187   9.118
 5623WAT     H117111   4.835   1.174   9.118
 5623WAT     H217112   4.691   1.104   9.085
 5624WAT      O17113   0.243   0.350   0.671
 5624WAT     H117114   0.167   0.303   0.717
 5624WAT     H217115   0.276   0.424   0.729
 5625WAT      O17116   3.681   1.909   7.470
 5625WAT     H117117   3.749   1.853   7.517
 5625WAT     H217118   3.712   2.004   7.468
 5626WAT      O17119   8.592   6.288   3.250
 5626WAT     H117120   8.647   6.295   3.167
 5626WAT     H217121   8.639   6.332   3.326
 5627WAT      O17122   3.780   2.705   4.768
 5627WAT     H117123   3.812   2.644   4.841
 5627WAT     H217124   3.683   2.688   4.752
 5628WAT      O17125   9.753   3.970   9.740
 5628WAT     H117126   9.738   4.002   9.647
 5628WAT     H217127   9.772   4.048   9.800
 5629WAT      O17128   9.537   7.113   7.882
 5629WAT     H117129   9.481   7.032   7.863
 5629WAT     H217130   9.634   7.089   7.874
 5630WAT      O17131   9.578   5.355   5.226
 5630WAT     H117132   9.633   5.354   5.142
 5630WAT     H217133   9.524   5.439   5.228
 5631WAT      O17134   7.028   0.047   4.842
 5631WAT     H117135   7.076   0.134   4.850
 5631WAT     H217136   7.074  -0.021   4.900
 5632WAT      O17137   9.668   5.567   0.971
 5632WAT     H117138   9.586   5.592   1.022
 5632WAT     H217139   9.666   5.470   0.950
 5633WAT      O17140   2.778   0.860   0.972
 5633WAT     H117141   2.796   0.939   0.913
 5633WAT     H217142   2.685   0.827   0.957
 5634WAT      O17143   8.543   2.511   9.779
 5634WAT     H117144   8.449   2.542   9.796
 5634WAT     H217145   8.607   2.581   9.811
 5635WAT      O17146   7.474   6.185   8.179
 5635WAT     H117147   7.396   6.230   8.135
 5635WAT     H217148   7.482   6.217   8.273
 5636WAT      O17149   6.364   9.371   7.514
 5636WAT     H117150   6.441   9.434   7.519
 5636WAT     H217151   6.370   9.317   7.430
 5637WAT      O17152   4.251   7.765   2.314
 5637WAT     H117153   4.155   7.780   2.290
 5637WAT     H217154   4.310   7.789   2.237
 5638WAT      O17155   7.962   0.425   4.029
 5638WAT     H117156   8.002   0.342   3.992
 5638WAT     H217157   8.016   0.457   4.107
 5639WAT      O17158   5.430   8.093   7.407
 5639WAT     H117159   5.355   8.117   7.345
 5639WAT     H217160   5.490   8.172   7.418
 5640WAT      O17161   3.544   9.510   4.621
 5640WAT     H117162   3.513   9.583   4.560
 5640WAT     H217163   3.579   9.433   4.567
 5641WAT      O17164   9.535   0.353   7.783
 5641WAT     H117165   9.449   0.344   7.833
 5641WAT     H217166   9.577   0.262   7.773
 5642WAT      O17167   9.578   3.691   0.551
 5642WAT     H117168   9.523   3.615   0.586
 5642WAT     H217169   9.531   3.777   0.570
 5643WAT      O17170   9.245   1.528   7.279
 5643WAT     H117171   9.207   1.589   7.349
 5643WAT     H217172   9.276   1.443   7.322
 5644WAT      O17173   8.654   2.141   6.187
 5644WAT     H117174   8.616   2.121   6.278
 5644WAT     H217175   8.590   2.110   6.117
 5645WAT      O17176   7.951   0.726   5.720
 5645WAT     H117177   8.000   0.752   5.637
 5645WAT     H217178   7.944   0.627   5.725
 5646WAT      O17179   2.653   7.090   6.484
 5646WAT     H117180   2.677   7.120   6.576
 5646WAT     H217181   2.635   7.170   6.427
 5647WAT      O17182   5.986   7.161   4.772
 5647WAT     H117183   6.010   7.100   4.696
 5647WAT     H217184   5.928   7.113   4.837
 5648WAT      O17185   8.833   1.093   2.633
 5648WAT     H117186   8.738   1.122   2.633
 5648WAT     H217187   8.839   0.999   2.598
 5649WAT      O17188   6.221   8.407   0.363
 5649WAT     H117189   6.140   8.416   0.422
 5649WAT     H217190   6.217   8.476   0.291
 5650WAT      O17191   2.900   2.011   9.456
 5650WAT     H117192   2.813   1.962   9.461
 5650WAT     H217193   2.948   1.985   9.372
 5651WAT      O17194   0.293   0.194   2.508
 5651WAT     H117195   0.301   0.278   2.561
 5651WAT     H217196   0.291   0.217   2.410
 5652WAT      O17197   3.684   4.470   6.173
 5652WAT     H117198   3.661   4.374   6.189
 5652WAT     H217199   3.666   4.524   6.255
 5653WAT      O17200   9.643   2.690   9.319
 5653WAT     H117201   9.637   2.708   9.417
 5653WAT     H217202   9.566   2.634   9.290
 5654WAT      O17203   4.059   7.191   7.001
 5654WAT     H117204   4.050   7.290   7.006
 5654WAT     H217205   4.146   7.167   6.958
 5655WAT      O17206   3.320   9.283   9.513
 5655WAT     H117207   3.223   9.272   9.536
 5655WAT     H217208   3.376   9.238   9.582
 5656WAT      O17209   5.143   0.468   3.828
 5656WAT     H117210   5.156   0.418   3.742
 5656WAT     H217211   5.053   0.446   3.865
 5657WAT      O17212   3.042   3.454   4.018
 5657WAT     H117213   3.088   3.379   4.065
 5657WAT     H217214   3.110   3.517   3.980
 5658WAT      O17215   4.092   2.837   5.120
 5658WAT     H117216   4.096   2.738   5.130
 5658WAT     H217217   4.127   2.864   5.031
 5659WAT      O17218   2.009   6.491   6.837
 5659WAT     H117219   1.997   6.403   6.791
 5659WAT     H217220   2.106   6.512   6.843
 5660WAT      O17221   7.824   2.059   5.217
 5660WAT     H117222   7.903   2.072   5.157
 5660WAT     H217223   7.818   2.135   5.282
 5661WAT      O17224   9.711   1.035   7.027
 5661WAT     H117225   9.618   1.064   7.006
 5661WAT     H217226   9.742   0.970   6.956
 5662WAT      O17227   3.989   0.230   0.155
 5662WAT     H117228   3.962   0.326   0.155
 5662WAT     H217229   4.065   0.217   0.219
 5663WAT      O17230   9.623   2.596   3.519
 5663WAT     H117231   9.719   2.570   3.517
 5663WAT     H217232   9.615   2.693   3.495
 5664WAT      O17233   7.619   2.707   3.940
 5664WAT     H117234   7.563   2.710   3.857
 5664WAT     H217235   7.621   2.798   3.983
 5665WAT      O17236   3.752   9.375   5.986
 5665WAT     H117237   3.727   9.446   5.920
 5665WAT     H217238   3.764   9.287   5.938
 5666WAT      O17239   6.420   2.897   1.560
 5666WAT     H117240   6.385   2.828   1.624
 5666WAT     H217241   6.377   2.985   1.581
 5667WAT      O17242   4.639   8.929   7.320
 5667WAT     H117243   4.738   8.942   7.332
 5667WAT     H217244   4.623   8.843   7.272
 5668WAT      O17245   5.144   9.504   9.705
 5668WAT     H117246   5.167   9.468   9.795
 5668WAT     H217247   5.055   9.548   9.708
 5669WAT      O17248   4.153   2.686   2.599
 5669WAT     H117249   4.087   2.666   2.671
 5669WAT     H217250   4.136   2.626   2.520
 5670WAT      O17251   3.656   3.115   0.666
 5670WAT     H117252   3.583   3.174   0.632
 5670WAT     H217253   3.668   3.038   0.604
 5671WAT      O17254   2.054   9.071   7.371
 5671WAT     H117255   2.002   9.140   7.322
 5671WAT     H217256   2.047   9.087   7.469
 5672WAT      O17257   2.181   4.996   5.570
 5672WAT     H117258   2.278   5.017   5.556
 5672WAT     H217259   2.131   5.007   5.484
 5673WAT      O17260   8.034   0.696   0.255
 5673WAT     H117261   7.954   0.744   0.289
 5673WAT     H217262   8.007   0.633   0.183
 5674WAT      O17263   3.623   4.583   1.904
 5674WAT     H117264   3.615   4.682   1.918
 5674WAT     H217265   3.563   4.535   1.968
 5675WAT      O17266   3.786   9.083   7.330
 5675WAT     H117267   3.811   9.012   7.264
 5675WAT     H217268   3.688   9.076   7.350
 5676WAT      O17269   4.381   2.938   3.365
 5676WAT     H117270   4.425   2.986   3.442
 5676WAT     H217271   4.297   2.985   3.341
 5677WAT      O17272   8.566   1.368   5.789
 5677WAT     H117273   8.509   1.450   5.803
 5677WAT     H217274   8.629   1.384   5.712
 5678WAT      O17275   9.100   7.614   5.072
 5678WAT     H117276   9.066   7.522   5.095
 5678WAT     H217277   9.056   7.681   5.133
 5679WAT      O17278   7.825   5.288   3.713
 5679WAT     H117279   7.846   5.195   3.746
 5679WAT     H217280   7.768   5.281   3.631
 5680WAT      O17281   7.395   0.551   7.939
 5680WAT     H117282   7.456   0.471   7.943
 5680WAT     H217283   7.312   0.527   7.888
 5681WAT      O17284   6.265   6.720   1.070
 5681WAT     H117285   6.182   6.707   1.015
 5681WAT     H217286   6.325   6.640   1.058
 5682WAT      O17287   9.209   6.764   9.623
 5682WAT     H117288   9.114   6.734   9.635
 5682WAT     H217289   9.253   6.708   9.553
 5683WAT      O17290   3.043   0.997   0.181
 5683WAT     H117291   3.093   1.057   0.119
 5683WAT     H217292   2.963   1.045   0.216
 5684WAT      O17293   8.136   4.525   0.928
 5684WAT     H117294   8.140   4.437   0.881
 5684WAT     H217295   8.200   4.589   0.886
 5685WAT      O17296   9.290   1.343   1.327
 5685WAT     H117297   9.230   1.417   1.296
 5685WAT     H217298   9.258   1.256   1.291
 5686WAT      O17299   8.428   1.395   9.740
 5686WAT     H117300   8.472   1.383   9.829
 5686WAT     H217301   8.392   1.308   9.708
 5687WAT      O17302   8.530   1.679   5.503
 5687WAT     H117303   8.570   1.593   5.537
 5687WAT     H217304   8.466   1.659   5.429
 5688WAT      O17305   2.629   4.737   3.692
 5688WAT     H117306   2.683   4.702   3.769
 5688WAT     H217307   2.641   4.676   3.614
 5689WAT      O17308   9.155   2.389   8.165
 5689WAT     H117309   9.081   2.323   8.181
 5689WAT     H217310   9.115   2.479   8.151
 5690WAT      O17311   2.314   4.296   8.341
 5690WAT     H117312   2.298   4.371   8.406
 5690WAT     H217313   2.226   4.265   8.304
 5691WAT      O17314   9.502   9.525   4.746
 5691WAT     H117315   9.450   9.521   4.832
 5691WAT     H217316   9.564   9.603   4.747
 5692WAT      O17317   3.420   0.056   0.479
 5692WAT     H117318   3.414   0.099   0.389
 5692WAT     H217319   3.508   0.079   0.521
 5693WAT      O17320   0.489   7.623   8.872
 5693WAT     H117321   0.516   7.571   8.953
 5693WAT     H217322   0.401   7.667   8.887
 5694WAT      O17323   5.408   2.145   5.793
 5694WAT     H117324   5.461   2.116   5.713
 5694WAT     H217325   5.460   2.213   5.845
 5695WAT      O17326   0.910   8.270   4.316
 5695WAT     H117327   0.914   8.318   4.228
 5695WAT     H217328   0.815   8.264   4.346
 5696WAT      O17329   7.277   4.511   1.137
 5696WAT     H117330   7.293   4.554   1.048
 5696WAT     H217331   7.311   4.417   1.135
 5697WAT      O17332   9.304   0.296   8.411
 5697WAT     H117333   9.248   0.213   8.404
 5697WAT     H217334   9.289   0.338   8.501
 5698WAT      O17335   4.804   9.195   5.773
 5698WAT     H117336   4.849   9.121   5.723
 5698WAT     H217337   4.862   9.223   5.849
 5699WAT      O17338   2.056   0.398   9.294
 5699WAT     H117339   2.002   0.321   9.328
 5699WAT     H217340   2.083   0.381   9.199
 5700WAT      O17341   8.875   8.328   8.676
 5700WAT     H117342   8.816   8.363   8.749
 5700WAT     H217343   8.935   8.402   8.644
 5701WAT      O17344   3.172   6.159   2.795
 5701WAT     H117345   3.251   6.133   2.739
 5701WAT     H217346   3.134   6.077   2.839
 5702WAT      O17347   8.071   1.131   4.440
 5702WAT     H117348   8.137   1.151   4.367
 5702WAT     H217349   7.996   1.076   4.403
 5703WAT      O17350   5.088   3.065   2.013
 5703WAT     H117351   5.107   3.063   2.111
 5703WAT     H217352   4.995   3.099   1.997
 5704WAT      O17353   0.732   2.596   4.778
 5704WAT     H117354   0.681   2.530   4.723
 5704WAT     H217355   0.829   2.572   4.778
 5705WAT      O17356   6.444   5.895   5.734
 5705WAT     H117357   6.357   5.941   5.746
 5705WAT     H217358   6.449   5.856   5.642
 5706WAT      O17359   1.899   1.823   7.796
 5706WAT     H117360   1.991   1.792   7.773
 5706WAT     H217361   1.876   1.903   7.741
 5707WAT      O17362   3.128   4.062   2.939
 5707WAT     H117363   3.161   4.017   3.022
 5707WAT     H217364   3.203   4.071   2.873
 5708WAT      O17365   9.660   1.887   4.025
 5708WAT     H117366   9.573   1.909   3.981
 5708WAT     H217367   9.735   1.926   3.972
 5709WAT      O17368   3.625   7.990   3.213
 5709WAT     H117369   3.685   7.943   3.277
 5709WAT     H217370   3.551   8.036   3.262
 5710WAT      O17371   1.587   7.850   4.889
 5710WAT     H117372   1.511   7.906   4.922
 5710WAT     H217373   1.554   7.791   4.815
 5711WAT      O17374   8.168   5.341   1.887
 5711WAT     H117375   8.109   5.401   1.941
 5711WAT     H217376   8.263   5.352   1.915
 5712WAT      O17377   3.143   5.736   6.070
 5712WAT     H117378   3.241   5.720   6.060
 5712WAT     H217379   3.126   5.781   6.158
 5713WAT      O17380   8.457   4.595   9.302
 5713WAT     H117381   8.460   4.497   9.324
 5713WAT     H217382   8.417   4.607   9.211
 5714WAT      O17383   1.132   0.756   2.686
 5714WAT     H117384   1.046   0.733   2.732
 5714WAT     H217385   1.116   0.766   2.588
 5715WAT      O17386   0.358   4.915   2.191
 5715WAT     H117387   0.371   4.870   2.102
 5715WAT     H217388   0.357   4.847   2.264
 5716WAT      O17389   5.580   7.193   6.199
 5716WAT     H117390   5.562   7.225   6.106
 5716WAT     H217391   5.496   7.157   6.239
 5717WAT      O17392   4.633   3.867   0.152
 5717WAT     H117393   4.612   3.879   0.249
 5717WAT     H217394   4.658   3.955   0.112
 5718WAT      O17395   5.686   4.292   8.821
 5718WAT     H117396   5.744   4.211   8.832
 5718WAT     H217397   5.743   4.370   8.794
 5719WAT      O17398   4.227   2.071   5.809
 5719WAT     H117399   4.289   1.996   5.835
 5719WAT     H217400   4.140   2.033   5.778
 5720WAT      O17401   6.229   5.040   3.043
 5720WAT     H117402   6.272   5.122   3.004
 5720WAT     H217403   6.288   5.003   3.115
 5721WAT      O17404   3.146   3.410   7.121
 5721WAT     H117405   3.151   3.365   7.211
 5721WAT     H217406   3.097   3.496   7.130
 5722WAT      O17407   7.152   4.842   6.953
 5722WAT     H117408   7.076   4.819   6.893
 5722WAT     H217409   7.171   4.765   7.014
 5723WAT      O17410   1.525   0.542   2.694
 5723WAT     H117411   1.471   0.458   2.691
 5723WAT     H217412   1.475   0.612   2.745
 5724WAT      O17413   9.316   1.867   3.125
 5724WAT     H117414   9.235   1.841   3.179
 5724WAT     H217415   9.391   1.890   3.187
 5725WAT      O17416   2.973   5.991   3.963
 5725WAT     H117417   2.886   5.944   3.972
 5725WAT     H217418   3.019   5.961   3.879
 5726WAT      O17419   5.195   2.026   5.105
 5726WAT     H117420   5.177   1.972   5.187
 5726WAT     H217421   5.293   2.021   5.084
 5727WAT      O17422   6.199   6.001   5.844
 5727WAT     H117423   6.163   6.087   5.877
 5727WAT     H217424   6.188   5.930   5.914
 5728WAT      O17425   3.226   7.007   7.918
 5728WAT     H117426   3.181   6.918   7.929
 5728WAT     H217427   3.163   7.071   7.873
 5729WAT      O17428   2.193   3.239   2.850
 5729WAT     H117429   2.179   3.291   2.765
 5729WAT     H217430   2.129   3.271   2.920
 5730WAT      O17431   3.398   3.850   8.674
 5730WAT     H117432   3.490   3.828   8.706
 5730WAT     H217433   3.349   3.901   8.746
 5731WAT      O17434   0.559   6.521   6.102
 5731WAT     H117435   0.565   6.438   6.159
 5731WAT     H217436   0.628   6.517   6.030
 5732WAT      O17437   2.330   6.465   1.064
 5732WAT     H117438   2.389   6.502   0.992
 5732WAT     H217439   2.235   6.481   1.040
 5733WAT      O17440   7.993   3.280   0.750
 5733WAT     H117441   7.897   3.265   0.770
 5733WAT     H217442   8.047   3.204   0.787
 5734WAT      O17443   9.490   6.209   3.440
 5734WAT     H117444   9.410   6.179   3.389
 5734WAT     H217445   9.507   6.147   3.516
 5735WAT      O17446   4.014   5.472   5.584
 5735WAT     H117447   3.998   5.415   5.504
 5735WAT     H217448   4.072   5.423   5.650
 5736WAT      O17449   4.999   8.582   0.596
 5736WAT     H117450   5.038   8.494   0.569
 5736WAT     H217451   4.915   8.567   0.648
 5737WAT      O17452   0.607   1.121   1.113
 5737WAT     H117453   0.522   1.069   1.109
 5737WAT     H217454   0.591   1.209   1.158
 5738WAT      O17455   1.684   8.700   5.070
 5738WAT     H117456   1.771   8.704   5.119
 5738WAT     H217457   1.617   8.650   5.125
 5739WAT      O17458   1.154   3.782   6.834
 5739WAT     H117459   1.073   3.733   6.868
 5739WAT     H217460   1.215   3.719   6.787
 5740WAT      O17461   0.692   1.613   9.092
 5740WAT     H117462   0.607   1.619   9.144
 5740WAT     H217463   0.733   1.522   9.106
 5741WAT      O17464   9.174   3.251   7.327
 5741WAT     H117465   9.206   3.346   7.337
 5741WAT     H217466   9.082   3.243   7.367
 5742WAT      O17467   8.633   3.527   8.992
 5742WAT     H117468   8.576   3.447   9.011
 5742WAT     H217469   8.724   3.513   9.031
 5743WAT      O17470   5.149   9.033   9.316
 5743WAT     H117471   5.117   9.047   9.409
 5743WAT     H217472   5.083   9.074   9.252
 5744WAT      O17473   8.438   9.064   5.600
 5744WAT     H117474   8.518   9.125   5.597
 5744WAT     H217475   8.355   9.118   5.585
 5745WAT      O17476   4.690   1.382   2.568
 5745WAT     H117477   4.618   1.322   2.602
 5745WAT     H217478   4.764   1.327   2.528
 5746WAT      O17479   5.691   8.403   3.141
 5746WAT     H117480   5.715   8.417   3.237
 5746WAT     H217481   5.737   8.473   3.085
 5747WAT      O17482   5.141   8.518   1.135
 5747WAT     H117483   5.141   8.439   1.196
 5747WAT     H217484   5.208   8.504   1.062
 5748WAT      O17485   2.915   4.193   4.830
 5748WAT     H117486   2.926   4.268   4.766
 5748WAT     H217487   2.989   4.127   4.817
 5749WAT      O17488   3.780   8.282   9.299
 5749WAT     H117489   3.837   8.348   9.251
 5749WAT     H217490   3.800   8.189   9.266
 5750WAT      O17491   5.369   3.608   9.767
 5750WAT     H117492   5.449   3.556   9.738
 5750WAT     H217493   5.364   3.607   9.867
 5751WAT      O17494   9.813   2.804   8.759
 5751WAT     H117495   9.773   2.890   8.787
 5751WAT     H217496   9.791   2.733   8.826
 5752WAT      O17497   2.802   8.301   4.937
 5752WAT     H117498   2.898   8.276   4.923
 5752WAT     H217499   2.790   8.398   4.916
 5753WAT      O17500   0.069   5.557   7.335
 5753WAT     H117501   0.158   5.599   7.323
 5753WAT     H217502   0.033   5.528   7.246
 5754WAT      O17503   9.607   1.516   7.343
 5754WAT     H117504   9.610   1.616   7.347
 5754WAT     H217505   9.555   1.481   7.421
 5755WAT      O17506   7.777   0.716   8.693
 5755WAT     H117507   7.778   0.706   8.793
 5755WAT     H217508   7.826   0.639   8.652
 5756WAT      O17509   1.889   3.183   1.066
 5756WAT     H117510   1.872   3.279   1.086
 5756WAT     H217511   1.815   3.127   1.104
 5757WAT      O17512   7.338   6.872   2.163
 5757WAT     H117513   7.324   6.777   2.137
 5757WAT     H217514   7.322   6.882   2.261
 5758WAT      O17515   9.832   3.460   0.241
 5758WAT     H117516   9.837   3.472   0.340
 5758WAT     H217517   9.777   3.379   0.220
 5759WAT      O17518   2.798   9.606   6.324
 5759WAT     H117519   2.882   9.625   6.374
 5759WAT     H217520   2.747   9.533   6.370
 5760WAT      O17521   0.390   4.001   3.433
 5760WAT     H117522   0.478   3.987   3.479
 5760WAT     H217523   0.343   4.078   3.475
 5761WAT      O17524   2.857   0.509   7.060
 5761WAT     H117525   2.880   0.481   6.966
 5761WAT     H217526   2.760   0.534   7.064
 5762WAT      O17527   7.098   2.791   3.288
 5762WAT     H117528   7.086   2.845   3.205
 5762WAT     H217529   7.079   2.848   3.368
 5763WAT      O17530   0.180   3.017   7.664
 5763WAT     H117531   0.118   3.081   7.618
 5763WAT     H217532   0.145   2.995   7.755
 5764WAT      O17533   1.728   8.994   2.211
 5764WAT     H117534   1.634   9.021   2.194
 5764WAT     H217535   1.740   8.897   2.186
 5765WAT      O17536   7.928   9.383   4.672
 5765WAT     H117537   7.945   9.322   4.595
 5765WAT     H217538   7.894   9.330   4.750
 5766WAT      O17539   5.824   6.849   8.578
 5766WAT     H117540   5.751   6.876   8.516
 5766WAT     H217541   5.849   6.754   8.561
 5767WAT      O17542   2.792   8.930   4.031
 5767WAT     H117543   2.752   8.994   3.966
 5767WAT     H217544   2.771   8.837   4.003
 5768WAT      O17545   1.706   7.148   7.588
 5768WAT     H117546   1.778   7.214   7.569
 5768WAT     H217547   1.735   7.087   7.662
 5769WAT      O17548   5.474   1.089   1.281
 5769WAT     H117549   5.486   1.094   1.380
 5769WAT     H217550   5.564   1.094   1.236
 5770WAT      O17551   8.507   1.023   1.931
 5770WAT     H117552   8.493   0.927   1.909
 5770WAT     H217553   8.498   1.036   2.030
 5771WAT      O17554   4.078   9.833   6.362
 5771WAT     H117555   4.167   9.827   6.316
 5771WAT     H217556   4.021   9.900   6.315
 5772WAT      O17557   5.367   5.380   3.681
 5772WAT     H117558   5.429   5.408   3.754
 5772WAT     H217559   5.340   5.285   3.695
 5773WAT      O17560   1.649   7.766   7.358
 5773WAT     H117561   1.580   7.821   7.312
 5773WAT     H217562   1.646   7.672   7.323
 5774WAT      O17563   9.664   6.063   1.108
 5774WAT     H117564   9.668   6.082   1.010
 5774WAT     H217565   9.708   5.976   1.127
 5775WAT      O17566   9.392   9.711   9.377
 5775WAT     H117567   9.480   9.717   9.423
 5775WAT     H217568   9.328   9.659   9.433
 5776WAT      O17569   0.500   2.087   5.376
 5776WAT     H117570   0.400   2.095   5.382
 5776WAT     H217571   0.534   2.035   5.454
 5777WAT      O17572   7.743   1.205   4.874
 5777WAT     H117573   7.658   1.229   4.921
 5777WAT     H217574   7.816   1.268   4.901
 5778WAT      O17575   8.592   4.758   6.198
 5778WAT     H117576   8.539   4.786   6.278
 5778WAT     H217577   8.530   4.722   6.128
 5779WAT      O17578   9.371   3.426   9.540
 5779WAT     H117579   9.282   3.380   9.536
 5779WAT     H217580   9.418   3.400   9.624
 5780WAT      O17581   0.317   7.953   8.225
 5780WAT     H117582   0.303   7.899   8.142
 5780WAT     H217583   0.246   7.930   8.292
 5781WAT      O17584   7.201   0.695   2.222
 5781WAT     H117585   7.167   0.789   2.219
 5781WAT     H217586   7.146   0.636   2.163
 5782WAT      O17587   0.635   3.016   8.675
 5782WAT     H117588   0.730   3.022   8.703
 5782WAT     H217589   0.624   3.054   8.583
 5783WAT      O17590   8.043   3.463   1.286
 5783WAT     H117591   8.063   3.514   1.370
 5783WAT     H217592   8.004   3.526   1.218
 5784WAT      O17593   9.500   9.380   0.600
 5784WAT     H117594   9.522   9.468   0.642
 5784WAT     H217595   9.440   9.395   0.520
 5785WAT      O17596   2.391   2.122   9.101
 5785WAT     H117597   2.468   2.059   9.098
 5785WAT     H217598   2.331   2.098   9.178
 5786WAT      O17599   9.533   6.695   9.312
 5786WAT     H117600   9.611   6.648   9.354
 5786WAT     H217601   9.529   6.789   9.344
 5787WAT      O17602   7.345   4.544   5.700
 5787WAT     H117603   7.329   4.450   5.671
 5787WAT     H217604   7.432   4.576   5.663
 5788WAT      O17605   3.707   7.887   6.307
 5788WAT     H117606   3.705   7.962   6.374
 5788WAT     H217607   3.795   7.840   6.312
 5789WAT      O17608   8.403   7.249   9.344
 5789WAT     H117609   8.377   7.208   9.431
 5789WAT     H217610   8.435   7.178   9.282
 5790WAT      O17611   0.351   1.527   1.575
 5790WAT     H117612   0.293   1.584   1.634
 5790WAT     H217613   0.373   1.578   1.492
 5791WAT      O17614   1.383   1.620   6.225
 5791WAT     H117615   1.347   1.531   6.196
 5791WAT     H217616   1.377   1.684   6.148
 5792WAT      O17617   0.383   0.421   0.419
 5792WAT     H117618   0.468   0.371   0.399
 5792WAT     H217619   0.342   0.384   0.503
 5793WAT      O17620   6.328   0.712   7.984
 5793WAT     H117621   6.397   0.647   8.018
 5793WAT     H217622   6.373   0.795   7.952
 5794WAT      O17623   0.676   9.288   8.059
 5794WAT     H117624   0.590   9.237   8.068
 5794WAT     H217625   0.692   9.342   8.142
 5795WAT      O17626   2.643   7.801   4.270
 5795WAT     H117627   2.721   7.861   4.290
 5795WAT     H217628   2.677   7.718   4.227
 5796WAT      O17629   0.189   6.922   6.799
 5796WAT     H117630   0.195   6.828   6.766
 5796WAT     H217631   0.278   6.966   6.790
 5797WAT      O17632   0.134   7.707   3.543
 5797WAT     H117633   0.190   7.626   3.563
 5797WAT     H217634   0.044   7.696   3.584
 5798WAT      O17635   7.797   1.198   8.525
 5798WAT     H117636   7.721   1.141   8.557
 5798WAT     H217637   7.836   1.249   8.602
 5799WAT      O17638   5.316   5.451   7.395
 5799WAT     H117639   5.326   5.354   7.418
 5799WAT     H217640   5.277   5.500   7.473
 5800WAT      O17641   7.104   3.064   3.956
 5800WAT     H117642   7.008   3.038   3.944
 5800WAT     H217643   7.129   3.132   3.887
 5801WAT      O17644   0.048   8.069   7.550
 5801WAT     H117645   0.080   8.163   7.559
 5801WAT     H217646   0.042   8.046   7.453
 5802WAT      O17647   9.419   2.401   3.240
 5802WAT     H117648   9.345   2.458   3.276
 5802WAT     H217649   9.469   2.360   3.316
 5803WAT      O17650   0.456   3.841   7.606
 5803WAT     H117651   0.544   3.886   7.589
 5803WAT     H217652   0.383   3.909   7.608
 5804WAT      O17653   9.703   6.500   8.874
 5804WAT     H117654   9.646   6.419   8.861
 5804WAT     H217655   9.782   6.477   8.931
 5805WAT      O17656   8.901   7.436   5.133
 5805WAT     H117657   8.958   7.383   5.196
 5805WAT     H217658   8.885   7.384   5.050
 5806WAT      O17659   9.475   9.598   9.734
 5806WAT     H117660   9.476   9.562   9.827
 5806WAT     H217661   9.426   9.686   9.733
 5807WAT      O17662   0.328   3.709   6.823
 5807WAT     H117663   0.374   3.708   6.912
 5807WAT     H217664   0.367   3.781   6.766
 5808WAT      O17665   2.840   1.747   1.465
 5808WAT     H117666   2.863   1.650   1.454
 5808WAT     H217667   2.888   1.800   1.396
 5809WAT      O17668   8.094   1.381   7.581
 5809WAT     H117669   8.133   1.320   7.511
 5809WAT     H217670   8.131   1.356   7.671
 5810WAT      O17671   6.312   9.490   8.063
 5810WAT     H117672   6.280   9.467   7.971
 5810WAT     H217673   6.380   9.424   8.092
 5811WAT      O17674   0.656   5.092   1.963
 5811WAT     H117675   0.586   5.078   1.893
 5811WAT     H217676   0.747   5.089   1.922
 5812WAT      O17677   9.868   7.413   6.512
 5812WAT     H117678   9.811   7.456   6.442
 5812WAT     H217679   9.961   7.403   6.478
 5813WAT      O17680   7.569   7.741   0.260
 5813WAT     H117681   7.620   7.741   0.174
 5813WAT     H217682   7.510   7.822   0.263
 5814WAT      O17683   1.687   6.485   4.739
 5814WAT     H117684   1.706   6.554   4.669
 5814WAT     H217685   1.666   6.398   4.695
 5815WAT      O17686   1.369   2.641   8.500
 5815WAT     H117687   1.413   2.584   8.429
 5815WAT     H217688   1.278   2.667   8.469
 5816WAT      O17689   4.966   2.218   2.981
 5816WAT     H117690   4.901   2.153   2.942
 5816WAT     H217691   4.920   2.272   3.051
 5817WAT      O17692   0.182   0.796   7.293
 5817WAT     H117693   0.165   0.814   7.390
 5817WAT     H217694   0.281   0.799   7.275
 5818WAT      O17695   0.047   5.045   7.849
 5818WAT     H117696   0.121   5.005   7.796
 5818WAT     H217697  -0.033   5.058   7.791
 5819WAT      O17698   3.084   0.923   0.950
 5819WAT     H117699   3.041   0.844   0.995
 5819WAT     H217700   3.021   0.961   0.882
 5820WAT      O17701   1.472   2.864   5.489
 5820WAT     H117702   1.470   2.780   5.543
 5820WAT     H217703   1.434   2.939   5.543
 5821WAT      O17704   0.750   7.022   6.302
 5821WAT     H117705   0.733   6.948   6.237
 5821WAT     H217706   0.677   7.024   6.370
 5822WAT      O17707   1.062   5.662   2.804
 5822WAT     H117708   1.037   5.571   2.838
 5822WAT     H217709   0.984   5.701   2.755
 5823WAT      O17710   2.974   3.979   6.899
 5823WAT     H117711   2.930   4.052   6.952
 5823WAT     H217712   3.073   3.991   6.904
 5824WAT      O17713   7.960   8.405   8.379
 5824WAT     H117714   7.899   8.362   8.446
 5824WAT     H217715   8.014   8.476   8.425
 5825WAT      O17716   8.425   3.041   1.894
 5825WAT     H117717   8.362   3.054   1.818
 5825WAT     H217718   8.495   2.974   1.869
 5826WAT      O17719   3.568   1.340   6.195
 5826WAT     H117720   3.586   1.263   6.134
 5826WAT     H217721   3.473   1.336   6.227
 5827WAT      O17722   9.444   4.312   6.107
 5827WAT     H117723   9.356   4.266   6.094
 5827WAT     H217724   9.503   4.255   6.164
 5828WAT      O17725   0.558   7.349   0.875
 5828WAT     H117726   0.655   7.361   0.854
 5828WAT     H217727   0.503   7.383   0.799
 5829WAT      O17728   3.667   8.192   4.803
 5829WAT     H117729   3.686   8.141   4.888
 5829WAT     H217730   3.571   8.178   4.778
 5830WAT      O17731   5.853   1.129   5.978
 5830WAT     H117732   5.895   1.211   5.939
 5830WAT     H217733   5.924   1.075   6.024
 5831WAT      O17734   1.088   5.128   2.196
 5831WAT     H117735   1.062   5.063   2.125
 5831WAT     H217736   1.178   5.105   2.232
 5832WAT      O17737   7.280   1.120   1.635
 5832WAT     H117738   7.295   1.043   1.697
 5832WAT     H217739   7.294   1.091   1.541
 5833WAT      O17740   5.569   7.263   9.694
 5833WAT     H117741   5.598   7.270   9.790
 5833WAT     H217742   5.576   7.353   9.651
 5834WAT      O17743   3.202   5.641   3.242
 5834WAT     H117744   3.178   5.555   3.196
 5834WAT     H217745   3.223   5.711   3.174
 5835WAT      O17746   9.370   6.648   5.539
 5835WAT     H117747   9.283   6.631   5.585
 5835WAT     H217748   9.358   6.721   5.472
 5836WAT      O17749   3.538   7.143   3.882
 5836WAT     H117750   3.448   7.128   3.924
 5836WAT     H217751   3.605   7.165   3.953
 5837WAT      O17752   0.558   2.442   0.316
 5837WAT     H117753   0.619   2.387   0.373
 5837WAT     H217754   0.541   2.530   0.361
 5838WAT      O17755   6.790   6.044   6.482
 5838WAT     H117756   6.746   6.105   6.415
 5838WAT     H217757   6.814   5.957   6.437
 5839WAT      O17758   7.738   2.997   5.645
 5839WAT     H117759   7.686   3.045   5.714
 5839WAT     H217760   7.685   2.919   5.612
 5840WAT      O17761   9.819   6.384   8.604
 5840WAT     H117762   9.820   6.484   8.607
 5840WAT     H217763   9.726   6.351   8.589
 5841WAT      O17764   2.595   2.744   2.472
 5841WAT     H117765   2.676   2.799   2.454
 5841WAT     H217766   2.561   2.764   2.564
 5842WAT      O17767   8.252   0.271   5.584
 5842WAT     H117768   8.296   0.338   5.643
 5842WAT     H217769   8.209   0.318   5.506
 5843WAT      O17770   7.431   8.088   6.217
 5843WAT     H117771   7.484   8.065   6.299
 5843WAT     H217772   7.334   8.090   6.239
 5844WAT      O17773   1.915   8.525   9.407
 5844WAT     H117774   1.911   8.507   9.505
 5844WAT     H217775   1.823   8.515   9.367
 5845WAT      O17776   7.627   3.116   8.765
 5845WAT     H117777   7.702   3.075   8.817
 5845WAT     H217778   7.650   3.116   8.667
 5846WAT      O17779   0.845   9.562   4.966
 5846WAT     H117780   0.882   9.632   5.027
 5846WAT     H217781   0.907   9.550   4.888
 5847WAT      O17782   0.193   3.755   9.179
 5847WAT     H117783   0.226   3.846   9.206
 5847WAT     H217784   0.209   3.741   9.081
 5848WAT      O17785   0.407   5.645   3.278
 5848WAT     H117786   0.503   5.641   3.306
 5848WAT     H217787   0.396   5.712   3.205
 5849WAT      O17788   7.442   7.089   7.229
 5849WAT     H117789   7.516   7.048   7.175
 5849WAT     H217790   7.393   7.016   7.277
 5850WAT      O17791   5.060   1.796   2.739
 5850WAT     H117792   4.986   1.736   2.709
 5850WAT     H217793   5.145   1.744   2.743
 5851WAT      O17794   6.717   5.038   1.901
 5851WAT     H117795   6.747   4.945   1.921
 5851WAT     H217796   6.696   5.045   1.803
 5852WAT      O17797   7.538   0.680   6.670
 5852WAT     H117798   7.637   0.666   6.663
 5852WAT     H217799   7.491   0.606   6.621
 5853WAT      O17800   4.730   1.421   7.825
 5853WAT     H117801   4.820   1.393   7.859
 5853WAT     H217802   4.706   1.510   7.864
 5854WAT      O17803   6.544   7.132   4.578
 5854WAT     H117804   6.454   7.093   4.560
 5854WAT     H217805   6.590   7.078   4.649
 5855WAT      O17806   3.944   3.491   9.461
 5855WAT     H117807   4.024   3.530   9.416
 5855WAT     H217808   3.973   3.435   9.539
 5856WAT      O17809   3.674   0.757   6.627
 5856WAT     H117810   3.760   0.713   6.652
 5856WAT     H217811   3.669   0.848   6.668
 5857WAT      O17812   6.193   3.438   9.873
 5857WAT     H117813   6.178   3.484   9.961
 5857WAT     H217814   6.255   3.492   9.817
 5858WAT      O17815   3.648   0.002   1.113
 5858WAT     H117816   3.582   0.049   1.171
 5858WAT     H217817   3.599  -0.057   1.048
 5859WAT      O17818   8.684   7.488   1.166
 5859WAT     H117819   8.734   7.570   1.193
 5859WAT     H217820   8.588   7.511   1.150
 5860WAT      O17821   7.485   9.344   9.018
 5860WAT     H117822   7.471   9.246   9.012
 5860WAT     H217823   7.556   9.364   9.085
 5861WAT      O17824   0.226   8.874   2.610
 5861WAT     H117825   0.227   8.782   2.650
 5861WAT     H217826   0.319   8.911   2.609
 5862WAT      O17827   2.759   2.193   3.807
 5862WAT     H117828   2.697   2.119   3.782
 5862WAT     H217829   2.784   2.243   3.724
 5863WAT      O17830   8.938   6.118   6.554
 5863WAT     H117831   8.938   6.146   6.458
 5863WAT     H217832   9.031   6.092   6.581
 5864WAT      O17833   0.327   4.995   3.195
 5864WAT     H117834   0.370   5.080   3.228
 5864WAT     H217835   0.228   5.008   3.190
 5865WAT      O17836   9.744   7.275   6.078
 5865WAT     H117837   9.711   7.276   5.984
 5865WAT     H217838   9.696   7.205   6.130
 5866WAT      O17839   8.183   5.299   6.252
 5866WAT     H117840   8.265   5.265   6.297
 5866WAT     H217841   8.107   5.298   6.317
 5867WAT      O17842   6.322   8.973   3.698
 5867WAT     H117843   6.400   9.014   3.746
 5867WAT     H217844   6.314   8.876   3.724
 5868WAT      O17845   7.571   5.717   5.503
 5868WAT     H117846   7.664   5.689   5.525
 5868WAT     H217847   7.553   5.808   5.541
 5869WAT      O17848   1.733   0.372   0.164
 5869WAT     H117849   1.709   0.467   0.145
 5869WAT     H217850   1.809   0.345   0.104
 5870WAT      O17851   7.091   8.355   5.101
 5870WAT     H117852   7.025   8.395   5.037
 5870WAT     H217853   7.073   8.389   5.193
 5871WAT      O17854   4.033   7.937   6.190
 5871WAT     H117855   4.010   7.890   6.275
 5871WAT     H217856   3.976   8.018   6.179
 5872WAT      O17857   1.176   4.265   1.372
 5872WAT     H117858   1.127   4.347   1.402
 5872WAT     H217859   1.227   4.227   1.449
 5873WAT      O17860   6.736   6.702   2.332
 5873WAT     H117861   6.663   6.706   2.264
 5873WAT     H217862   6.710   6.641   2.406
 5874WAT      O17863   9.717   3.515   6.370
 5874WAT     H117864   9.661   3.509   6.453
 5874WAT     H217865   9.796   3.574   6.388
 5875WAT      O17866   2.199   7.091   5.835
 5875WAT     H117867   2.228   7.058   5.745
 5875WAT     H217868   2.226   7.187   5.846
 5876WAT      O17869   5.448   7.599   2.691
 5876WAT     H117870   5.383   7.670   2.664
 5876WAT     H217871   5.414   7.550   2.771
 5877WAT      O17872   3.095   4.325   8.903
 5877WAT     H117873   3.099   4.404   8.965
 5877WAT     H217874   3.183   4.278   8.904
 5878WAT      O17875   7.875   0.571   0.579
 5878WAT     H117876   7.838   0.591   0.489
 5878WAT     H217877   7.809   0.597   0.649
 5879WAT      O17878   6.120   5.835   6.038
 5879WAT     H117879   6.160   5.851   6.128
 5879WAT     H217880   6.035   5.783   6.047
 5880WAT      O17881   8.650   7.318   9.449
 5880WAT     H117882   8.561   7.307   9.405
 5880WAT     H217883   8.696   7.230   9.454
 5881WAT      O17884   3.137   9.293   4.824
 5881WAT     H117885   3.090   9.257   4.904
 5881WAT     H217886   3.089   9.264   4.741
 5882WAT      O17887   1.597   6.375   0.638
 5882WAT     H117888   1.652   6.354   0.718
 5882WAT     H217889   1.578   6.291   0.587
 5883WAT      O17890   4.030   6.278   0.599
 5883WAT     H117891   4.095   6.354   0.601
 5883WAT     H217892   3.955   6.296   0.663
 5884WAT      O17893   0.956   0.926   7.859
 5884WAT     H117894   1.007   0.943   7.774
 5884WAT     H217895   0.970   0.832   7.888
 5885WAT      O17896   4.208   5.379   9.027
 5885WAT     H117897   4.233   5.365   9.123
 5885WAT     H217898   4.162   5.297   8.993
 5886WAT      O17899   0.123   2.847   7.165
 5886WAT     H117900   0.118   2.947   7.163
 5886WAT     H217901   0.210   2.817   7.127
 5887WAT      O17902   0.634   9.623   9.081
 5887WAT     H117903   0.710   9.686   9.071
 5887WAT     H217904   0.550   9.667   9.050
 5888WAT      O17905   5.867   0.202   9.199
 5888WAT     H117906   5.841   0.124   9.257
 5888WAT     H217907   5.895   0.169   9.109
 5889WAT      O17908   2.235   1.946   1.089
 5889WAT     H117909   2.289   1.999   1.155
 5889WAT     H217910   2.264   1.968   0.996
 5890WAT      O17911   2.161   8.581   5.907
 5890WAT     H117912   2.257   8.563   5.932
 5890WAT     H217913   2.155   8.667   5.858
 5891WAT      O17914   5.457   2.207   3.684
 5891WAT     H117915   5.425   2.112   3.679
 5891WAT     H217916   5.433   2.255   3.600
 5892WAT      O17917   7.030   7.498   4.120
 5892WAT     H117918   7.075   7.489   4.031
 5892WAT     H217919   6.936   7.463   4.113
 5893WAT      O17920   3.019   2.481   9.478
 5893WAT     H117921   3.101   2.449   9.431
 5893WAT     H217922   2.952   2.515   9.411
 5894WAT      O17923   4.887   0.802   1.580
 5894WAT     H117924   4.823   0.742   1.531
 5894WAT     H217925   4.849   0.894   1.585
 5895WAT      O17926   3.444   7.470   9.826
 5895WAT     H117927   3.494   7.475   9.740
 5895WAT     H217928   3.378   7.395   9.822
 5896WAT      O17929   6.440   0.108   5.658
 5896WAT     H117930   6.513   0.173   5.637
 5896WAT     H217931   6.373   0.108   5.584
 5897WAT      O17932   0.000   4.508   2.959
 5897WAT     H117933   0.017   4.409   2.962
 5897WAT     H217934   0.047   4.547   2.880
 5898WAT      O17935   0.434   1.434   1.032
 5898WAT     H117936   0.504   1.399   1.096
 5898WAT     H217937   0.429   1.374   0.952
 5899WAT      O17938   9.676   6.142   7.844
 5899WAT     H117939   9.669   6.198   7.761
 5899WAT     H217940   9.649   6.048   7.823
 5900WAT      O17941   8.473   1.157   8.504
 5900WAT     H117942   8.463   1.103   8.421
 5900WAT     H217943   8.487   1.253   8.480
 5901WAT      O17944   2.096   4.008   1.344
 5901WAT     H117945   2.164   4.057   1.400
 5901WAT     H217946   2.129   4.002   1.250
 5902WAT      O17947   0.046   6.249   6.888
 5902WAT     H117948  -0.038   6.197   6.872
 5902WAT     H217949   0.123   6.185   6.895
 5903WAT      O17950   7.193   5.106   0.065
 5903WAT     H117951   7.177   5.007   0.073
 5903WAT     H217952   7.267   5.132   0.127
 5904WAT      O17953   4.641   1.839   7.622
 5904WAT     H117954   4.733   1.876   7.611
 5904WAT     H217955   4.627   1.764   7.558
 5905WAT      O17956   4.000   1.638   3.403
 5905WAT     H117957   4.005   1.712   3.336
 5905WAT     H217958   3.911   1.593   3.396
 5906WAT      O17959   0.916   7.082   9.798
 5906WAT     H117960   0.870   7.016   9.739
 5906WAT     H217961   0.974   7.033   9.864
 5907WAT      O17962   0.708   7.602   4.112
 5907WAT     H117963   0.648   7.651   4.048
 5907WAT     H217964   0.653   7.570   4.189
 5908WAT      O17965   9.257   0.376   3.643
 5908WAT     H117966   9.204   0.346   3.722
 5908WAT     H217967   9.269   0.300   3.579
 5909WAT      O17968   8.450   8.724   0.499
 5909WAT     H117969   8.543   8.735   0.465
 5909WAT     H217970   8.431   8.626   0.514
 5910WAT      O17971   9.174   9.575   8.477
 5910WAT     H117972   9.205   9.563   8.572
 5910WAT     H217973   9.243   9.627   8.427
 5911WAT      O17974   6.310   0.686   5.856
 5911WAT     H117975   6.249   0.617   5.894
 5911WAT     H217976   6.404   0.652   5.857
 5912WAT      O17977   5.552   3.879   7.435
 5912WAT     H117978   5.472   3.819   7.435
 5912WAT     H217979   5.600   3.871   7.348
 5913WAT      O17980   0.599   4.612   8.453
 5913WAT     H117981   0.697   4.596   8.447
 5913WAT     H217982   0.581   4.710   8.447
 5914WAT      O17983   9.725   7.831   6.501
 5914WAT     H117984   9.699   7.741   6.466
 5914WAT     H217985   9.752   7.823   6.597
 5915WAT      O17986   6.556   5.193   3.973
 5915WAT     H117987   6.496   5.121   3.940
 5915WAT     H217988   6.608   5.160   4.052
 5916WAT      O17989   6.882   4.196   8.832
 5916WAT     H117990   6.816   4.126   8.857
 5916WAT     H217991   6.965   4.184   8.886
 5917WAT      O17992   8.718   7.473   5.733
 5917WAT     H117993   8.809   7.511   5.743
 5917WAT     H217994   8.722   7.374   5.738
 5918WAT      O17995   6.568   3.890   5.698
 5918WAT     H117996   6.532   3.956   5.632
 5918WAT     H217997   6.494   3.861   5.759
 5919WAT      O17998   8.027   6.561   8.298
 5919WAT     H117999   8.040   6.658   8.278
 5919WAT     H218000   7.956   6.550   8.367
 5920WAT      O18001   9.019   0.312   6.970
 5920WAT     H118002   8.935   0.305   7.023
 5920WAT     H218003   9.012   0.254   6.888
 5921WAT      O18004   6.481   4.948   2.220
 5921WAT     H118005   6.546   4.916   2.289
 5921WAT     H218006   6.388   4.938   2.254
 5922WAT      O18007   5.012   8.410   3.402
 5922WAT     H118008   4.997   8.321   3.359
 5922WAT     H218009   4.925   8.448   3.433
 5923WAT      O18010   6.620   0.471   9.760
 5923WAT     H118011   6.686   0.489   9.687
 5923WAT     H218012   6.560   0.551   9.771
 5924WAT      O18013   8.369   7.290   7.015
 5924WAT     H118014   8.346   7.263   6.922
 5924WAT     H218015   8.287   7.288   7.072
 5925WAT      O18016   1.385   3.247   1.474
 5925WAT     H118017   1.336   3.170   1.515
 5925WAT     H218018   1.458   3.212   1.414
 5926WAT      O18019   2.028   9.604   9.640
 5926WAT     H118020   1.971   9.612   9.722
 5926WAT     H218021   1.975   9.561   9.566
 5927WAT      O18022   7.097   6.361   7.621
 5927WAT     H118023   7.087   6.324   7.529
 5927WAT     H218024   7.031   6.434   7.636
 5928WAT      O18025   2.777   1.116   5.583
 5928WAT     H118026   2.843   1.095   5.655
 5928WAT     H218027   2.692   1.148   5.625
 5929WAT      O18028   2.678   2.637   7.997
 5929WAT     H118029   2.769   2.673   8.017
 5929WAT     H218030   2.609   2.691   8.045
 5930WAT      O18031   6.859   9.547   3.200
 5930WAT     H118032   6.759   9.550   3.206
 5930WAT     H218033   6.891   9.455   3.219
 5931WAT      O18034   9.525   4.126   6.719
 5931WAT     H118035   9.558   4.221   6.712
 5931WAT     H218036   9.454   4.120   6.789
 5932WAT      O18037   4.185   2.799   0.888
 5932WAT     H118038   4.216   2.887   0.924
 5932WAT     H218039   4.088   2.804   0.866
 5933WAT      O18040   4.690   1.686   7.892
 5933WAT     H118041   4.731   1.744   7.962
 5933WAT     H218042   4.688   1.734   7.804
 5934WAT      O18043   0.481   1.708   6.361
 5934WAT     H118044   0.403   1.737   6.305
 5934WAT     H218045   0.566   1.720   6.310
 5935WAT      O18046   3.275   7.350   8.907
 5935WAT     H118047   3.355   7.291   8.897
 5935WAT     H218048   3.223   7.321   8.988
 5936WAT      O18049   7.412   4.336   9.424
 5936WAT     H118050   7.485   4.375   9.481
 5936WAT     H218051   7.416   4.236   9.430
 5937WAT      O18052   3.797   9.436   6.850
 5937WAT     H118053   3.751   9.383   6.779
 5937WAT     H218054   3.730   9.488   6.902
 5938WAT      O18055   9.069   3.693   4.855
 5938WAT     H118056   9.148   3.706   4.916
 5938WAT     H218057   9.019   3.779   4.848
 5939WAT      O18058   4.323   2.878   5.497
 5939WAT     H118059   4.408   2.912   5.538
 5939WAT     H218060   4.278   2.815   5.560
 5940WAT      O18061   9.217   7.194   8.658
 5940WAT     H118062   9.200   7.133   8.736
 5940WAT     H218063   9.158   7.274   8.665
 5941WAT      O18064   2.459   6.898   1.671
 5941WAT     H118065   2.517   6.844   1.732
 5941WAT     H218066   2.378   6.844   1.646
 5942WAT      O18067   9.617   0.669   0.873
 5942WAT     H118068   9.609   0.745   0.809
 5942WAT     H218069   9.573   0.693   0.960
 5943WAT      O18070   7.329   9.786   4.678
 5943WAT     H118071   7.410   9.838   4.706
 5943WAT     H218072   7.355   9.720   4.608
 5944WAT      O18073   0.712   3.553   0.989
 5944WAT     H118074   0.742   3.459   1.003
 5944WAT     H218075   0.764   3.594   0.914
 5945WAT      O18076   5.806   6.041   9.399
 5945WAT     H118077   5.895   6.086   9.400
 5945WAT     H218078   5.753   6.070   9.479
 5946WAT      O18079   0.597   2.135   7.924
 5946WAT     H118080   0.585   2.106   7.830
 5946WAT     H218081   0.693   2.128   7.950
 5947WAT      O18082   8.128   8.955   8.096
 5947WAT     H118083   8.117   8.865   8.138
 5947WAT     H218084   8.159   9.020   8.165
 5948WAT      O18085   3.272   1.119   2.813
 5948WAT     H118086   3.225   1.174   2.882
 5948WAT     H218087   3.206   1.086   2.745
 5949WAT      O18088   4.610   7.980   9.275
 5949WAT     H118089   4.666   7.969   9.193
 5949WAT     H218090   4.669   7.997   9.354
 5950WAT      O18091   2.450   8.020   5.762
 5950WAT     H118092   2.408   7.940   5.804
 5950WAT     H218093   2.414   8.104   5.804
 5951WAT      O18094   8.350   6.453   0.466
 5951WAT     H118095   8.368   6.551   0.453
 5951WAT     H218096   8.430   6.400   0.436
 5952WAT      O18097   8.342   8.138   3.940
 5952WAT     H118098   8.244   8.157   3.930
 5952WAT     H218099   8.393   8.181   3.865
 5953WAT      O18100   1.822   1.038   0.952
 5953WAT     H118101   1.907   1.035   0.900
 5953WAT     H218102   1.789   1.132   0.957
 5954WAT      O18103   1.737   7.012   5.630
 5954WAT     H118104   1.777   7.004   5.721
 5954WAT     H218105   1.797   6.968   5.563
 5955WAT      O18106   4.462   3.583   1.586
 5955WAT     H118107   4.549   3.549   1.623
 5955WAT     H218108   4.457   3.682   1.597
 5956WAT      O18109   9.099   1.020   0.959
 5956WAT     H118110   9.030   0.948   0.962
 5956WAT     H218111   9.065   1.096   0.904
 5957WAT      O18112   5.947   0.120   0.230
 5957WAT     H118113   5.980   0.213   0.219
 5957WAT     H218114   5.946   0.074   0.141
 5958WAT      O18115   1.311   2.128   8.048
 5958WAT     H118116   1.388   2.068   8.071
 5958WAT     H218117   1.241   2.075   7.999
 5959WAT      O18118   7.828   2.295   3.688
 5959WAT     H118119   7.767   2.361   3.731
 5959WAT     H218120   7.815   2.205   3.729
 5960WAT      O18121   1.385   1.960   1.418
 5960WAT     H118122   1.482   1.948   1.396
 5960WAT     H218123   1.370   1.936   1.514
 5961WAT      O18124   3.472   8.767   9.026
 5961WAT     H118125   3.557   8.797   8.984
 5961WAT     H218126   3.400   8.762   8.957
 5962WAT      O18127   0.677   9.239   4.168
 5962WAT     H118128   0.591   9.265   4.211
 5962WAT     H218129   0.746   9.222   4.238
 5963WAT      O18130   5.724   9.282   5.427
 5963WAT     H118131   5.793   9.340   5.386
 5963WAT     H218132   5.642   9.280   5.369
 5964WAT      O18133   3.684   0.021   7.265
 5964WAT     H118134   3.680   0.072   7.351
 5964WAT     H218135   3.664   0.083   7.189
 5965WAT      O18136   0.245   3.120   8.186
 5965WAT     H118137   0.305   3.048   8.152
 5965WAT     H218138   0.267   3.139   8.282
 5966WAT      O18139   3.922   6.408   6.064
 5966WAT     H118140   3.856   6.344   6.027
 5966WAT     H218141   3.951   6.377   6.155
 5967WAT      O18142   8.945   7.554   1.753
 5967WAT     H118143   9.037   7.551   1.715
 5967WAT     H218144   8.888   7.486   1.706
 5968WAT      O18145   8.726   1.102   7.818
 5968WAT     H118146   8.690   1.121   7.909
 5968WAT     H218147   8.800   1.034   7.824
 5969WAT      O18148   3.424   9.561   8.198
 5969WAT     H118149   3.362   9.483   8.191
 5969WAT     H218150   3.491   9.558   8.124
 5970WAT      O18151   5.699   9.316   4.479
 5970WAT     H118152   5.758   9.392   4.507
 5970WAT     H218153   5.686   9.253   4.556
 5971WAT      O18154   7.150   8.817   2.788
 5971WAT     H118155   7.135   8.750   2.716
 5971WAT     H218156   7.115   8.906   2.758
 5972WAT      O18157   0.752   1.068   9.362
 5972WAT     H118158   0.750   1.004   9.439
 5972WAT     H218159   0.659   1.086   9.331
 5973WAT      O18160   1.897   4.473   1.362
 5973WAT     H118161   1.877   4.499   1.457
 5973WAT     H218162   1.913   4.375   1.358
 5974WAT      O18163   7.943   3.586   1.055
 5974WAT     H118164   7.897   3.673   1.075
 5974WAT     H218165   8.035   3.605   1.021
 5975WAT      O18166   5.802   4.381   5.462
 5975WAT     H118167   5.787   4.475   5.429
 5975WAT     H218168   5.894   4.352   5.435
 5976WAT      O18169   7.534   1.082   2.382
 5976WAT     H118170   7.540   1.179   2.361
 5976WAT     H218171   7.605   1.033   2.331
 5977WAT      O18172   5.335   9.150   2.330
 5977WAT     H118173   5.298   9.237   2.361
 5977WAT     H218174   5.435   9.152   2.337
 5978WAT      O18175   3.960   0.109   6.744
 5978WAT     H118176   3.890   0.062   6.797
 5978WAT     H218177   3.961   0.206   6.769
 5979WAT      O18178   1.786   1.481   7.048
 5979WAT     H118179   1.693   1.512   7.070
 5979WAT     H218180   1.813   1.410   7.114
 5980WAT      O18181   5.236   1.239   2.422
 5980WAT     H118182   5.259   1.144   2.402
 5980WAT     H218183   5.251   1.295   2.341
 5981WAT      O18184   3.838   7.533   9.673
 5981WAT     H118185   3.924   7.484   9.661
 5981WAT     H218186   3.850   7.606   9.741
 5982WAT      O18187   3.071   3.959   1.665
 5982WAT     H118188   3.063   3.952   1.765
 5982WAT     H218189   3.166   3.941   1.639
 5983WAT      O18190   0.166   0.025   5.301
 5983WAT     H118191   0.167   0.119   5.266
 5983WAT     H218192   0.254   0.005   5.344
 5984WAT      O18193   9.814   9.152   4.671
 5984WAT     H118194   9.869   9.198   4.741
 5984WAT     H218195   9.752   9.218   4.630
 5985WAT      O18196   6.001   5.852   3.821
 5985WAT     H118197   6.097   5.854   3.848
 5985WAT     H218198   5.944   5.880   3.899
 5986WAT      O18199   0.411   9.140   9.374
 5986WAT     H118200   0.424   9.220   9.316
 5986WAT     H218201   0.314   9.129   9.395
 5987WAT      O18202   0.692   3.149   6.417
 5987WAT     H118203   0.790   3.167   6.422
 5987WAT     H218204   0.650   3.210   6.351
 5988WAT      O18205   5.236   6.028   8.556
 5988WAT     H118206   5.216   5.954   8.491
 5988WAT     H218207   5.322   6.008   8.603
 5989WAT      O18208   3.689   0.253   2.217
 5989WAT     H118209   3.607   0.219   2.263
 5989WAT     H218210   3.681   0.351   2.201
 5990WAT      O18211   6.351   0.481   2.506
 5990WAT     H118212   6.380   0.423   2.581
 5990WAT     H218213   6.430   0.530   2.469
 5991WAT      O18214   6.982   8.962   4.560
 5991WAT     H118215   7.073   8.950   4.520
 5991WAT     H218216   6.914   8.971   4.486
 5992WAT      O18217   8.017   4.474   8.572
 5992WAT     H118218   7.923   4.507   8.563
 5992WAT     H218219   8.080   4.542   8.536
 5993WAT      O18220   0.883   0.844   8.144
 5993WAT     H118221   0.844   0.927   8.184
 5993WAT     H218222   0.977   0.862   8.116
 5994WAT      O18223   5.555   0.798   1.301
 5994WAT     H118224   5.537   0.859   1.379
 5994WAT     H218225   5.473   0.745   1.280
 5995WAT      O18226   7.007   8.663   4.558
 5995WAT     H118227   7.008   8.762   4.572
 5995WAT     H218228   7.096   8.626   4.583
 5996WAT      O18229   5.304   2.919   9.000
 5996WAT     H118230   5.259   2.999   9.041
 5996WAT     H218231   5.396   2.944   8.971
 5997WAT      O18232   5.703   1.731   3.927
 5997WAT     H118233   5.799   1.739   3.900
 5997WAT     H218234   5.646   1.784   3.865
 5998WAT      O18235   5.708   5.177   6.554
 5998WAT     H118236   5.787   5.116   6.549
 5998WAT     H218237   5.624   5.122   6.555
 5999WAT      O18238   0.687   6.641   4.169
 5999WAT     H118239   0.692   6.635   4.069
 5999WAT     H218240   0.594   6.666   4.196
 6000WAT      O18241   3.044   2.399   1.285
 6000WAT     H118242   3.052   2.339   1.364
 6000WAT     H218243   3.044   2.495   1.315
 6001WAT      O18244   5.861   0.261   8.556
 6001WAT     H118245   5.909   0.181   8.522
 6001WAT     H218246   5.880   0.273   8.654
 6002WAT      O18247   1.806   8.774   0.027
 6002WAT     H118248   1.719   8.816   0.051
 6002WAT     H218249   1.869   8.782   0.104
 6003WAT      O18250   2.980   3.434   2.723
 6003WAT     H118251   2.923   3.490   2.663
 6003WAT     H218252   2.969   3.338   2.698
 6004WAT      O18253   7.262   6.572   2.633
 6004WAT     H118254   7.279   6.479   2.664
 6004WAT     H218255   7.203   6.619   2.699
 6005WAT      O18256   3.521   2.662   7.515
 6005WAT     H118257   3.590   2.673   7.587
 6005WAT     H218258   3.466   2.581   7.533
 6006WAT      O18259   6.893   5.349   5.780
 6006WAT     H118260   6.992   5.350   5.797
 6006WAT     H218261   6.876   5.314   5.688
 6007WAT      O18262   3.339   6.813   4.183
 6007WAT     H118263   3.416   6.840   4.240
 6007WAT     H218264   3.360   6.726   4.138
 6008WAT      O18265   7.920   8.029   5.298
 6008WAT     H118266   7.867   7.952   5.336
 6008WAT     H218267   7.940   8.095   5.369
 6009WAT      O18268   9.599   5.221   0.072
 6009WAT     H118269   9.611   5.183  -0.020
 6009WAT     H218270   9.660   5.299   0.084
 6010WAT      O18271   4.563   5.830   0.029
 6010WAT     H118272   4.544   5.880  -0.055
 6010WAT     H218273   4.501   5.752   0.037
 6011WAT      O18274   5.608   8.480   7.115
 6011WAT     H118275   5.589   8.569   7.073
 6011WAT     H218276   5.693   8.443   7.076
 6012WAT      O18277   7.772   2.625   4.124
 6012WAT     H118278   7.849   2.689   4.122
 6012WAT     H218279   7.708   2.647   4.051
 6013WAT      O18280   1.122   0.195   9.284
 6013WAT     H118281   1.173   0.227   9.363
 6013WAT     H218282   1.141   0.099   9.268
 6014WAT      O18283   5.670   9.562   0.557
 6014WAT     H118284   5.581   9.594   0.524
 6014WAT     H218285   5.722   9.639   0.592
 6015WAT      O18286   0.168   2.053   1.670
 6015WAT     H118287   0.212   2.115   1.605
 6015WAT     H218288   0.236   1.990   1.707
 6016WAT      O18289   5.346   1.524   0.167
 6016WAT     H118290   5.285   1.537   0.245
 6016WAT     H218291   5.325   1.438   0.121
 6017WAT      O18292   2.523   9.381   3.763
 6017WAT     H118293   2.616   9.366   3.796
 6017WAT     H218294   2.525   9.412   3.668
 6018WAT      O18295   8.964   7.422   7.978
 6018WAT     H118296   9.010   7.407   8.065
 6018WAT     H218297   9.032   7.429   7.905
 6019WAT      O18298   9.280   8.684   3.293
 6019WAT     H118299   9.251   8.677   3.197
 6019WAT     H218300   9.376   8.713   3.296
 6020WAT      O18301   8.421   6.032   7.734
 6020WAT     H118302   8.340   6.014   7.789
 6020WAT     H218303   8.499   5.981   7.772
 6021WAT      O18304   3.958   3.598   3.295
 6021WAT     H118305   3.930   3.661   3.367
 6021WAT     H218306   3.961   3.505   3.331
 6022WAT      O18307   6.364   1.684   0.463
 6022WAT     H118308   6.380   1.695   0.365
 6022WAT     H218309   6.414   1.754   0.514
 6023WAT      O18310   9.348   5.479   7.140
 6023WAT     H118311   9.336   5.489   7.041
 6023WAT     H218312   9.379   5.566   7.178
 6024WAT      O18313   8.797   8.602   9.638
 6024WAT     H118314   8.759   8.578   9.548
 6024WAT     H218315   8.896   8.595   9.635
 6025WAT      O18316   2.678   1.316   2.497
 6025WAT     H118317   2.593   1.345   2.453
 6025WAT     H218318   2.659   1.240   2.560
 6026WAT      O18319   9.091   2.939   8.099
 6026WAT     H118320   9.123   2.967   8.009
 6026WAT     H218321   8.999   2.976   8.115
 6027WAT      O18322   6.045   5.043   7.995
 6027WAT     H118323   5.958   5.089   8.010
 6027WAT     H218324   6.031   4.964   7.934
 6028WAT      O18325   3.120   4.909   2.847
 6028WAT     H118326   3.073   4.968   2.780
 6028WAT     H218327   3.218   4.927   2.844
 6029WAT      O18328   1.840   8.187   3.837
 6029WAT     H118329   1.763   8.160   3.895
 6029WAT     H218330   1.901   8.247   3.888
 6030WAT      O18331   7.123   3.638   2.984
 6030WAT     H118332   7.066   3.570   3.030
 6030WAT     H218333   7.065   3.705   2.937
 6031WAT      O18334   4.101   0.213   2.354
 6031WAT     H118335   4.087   0.277   2.279
 6031WAT     H218336   4.198   0.188   2.359
 6032WAT      O18337   9.349   0.489   2.699
 6032WAT     H118338   9.390   0.571   2.738
 6032WAT     H218339   9.288   0.516   2.624
 6033WAT      O18340   9.217   6.006   3.066
 6033WAT     H118341   9.164   5.950   3.130
 6033WAT     H218342   9.155   6.052   3.003
 6034WAT      O18343   8.044   1.715   1.221
 6034WAT     H118344   7.992   1.695   1.304
 6034WAT     H218345   8.053   1.814   1.210
 6035WAT      O18346   7.189   3.466   4.948
 6035WAT     H118347   7.190   3.450   4.849
 6035WAT     H218348   7.261   3.532   4.972
 6036WAT      O18349   9.646   6.370   3.569
 6036WAT     H118350   9.586   6.449   3.581
 6036WAT     H218351   9.601   6.301   3.514
 6037WAT      O18352   7.147   5.734   2.201
 6037WAT     H118353   7.202   5.658   2.235
 6037WAT     H218354   7.177   5.759   2.108
 6038WAT      O18355   2.659   6.224   2.386
 6038WAT     H118356   2.725   6.299   2.398
 6038WAT     H218357   2.636   6.216   2.289
 6039WAT      O18358   3.570   1.422   0.575
 6039WAT     H118359   3.502   1.478   0.622
 6039WAT     H218360   3.523   1.351   0.522
 6040WAT      O18361   6.284   2.533   3.099
 6040WAT     H118362   6.314   2.583   3.018
 6040WAT     H218363   6.194   2.492   3.082
 6041WAT      O18364   5.432   1.970   9.284
 6041WAT     H118365   5.449   2.061   9.246
 6041WAT     H218366   5.506   1.945   9.347
 6042WAT      O18367   9.300   3.047   6.853
 6042WAT     H118368   9.265   2.954   6.843
 6042WAT     H218369   9.400   3.046   6.843
 6043WAT      O18370   8.113   0.120   9.866
 6043WAT     H118371   8.030   0.175   9.855
 6043WAT     H218372   8.193   0.181   9.870
 6044WAT      O18373   6.906   9.432   1.499
 6044WAT     H118374   6.871   9.482   1.578
 6044WAT     H218375   6.843   9.358   1.476
 6045WAT      O18376   5.751   1.907   5.610
 6045WAT     H118377   5.732   1.838   5.680
 6045WAT     H218378   5.688   1.896   5.534
 6046WAT      O18379   5.309   7.998   9.228
 6046WAT     H118380   5.285   7.902   9.214
 6046WAT     H218381   5.408   8.010   9.220
 6047WAT      O18382   2.528   8.373   5.756
 6047WAT     H118383   2.552   8.463   5.791
 6047WAT     H218384   2.611   8.324   5.729
 6048WAT      O18385   1.084   1.274   5.601
 6048WAT     H118386   1.169   1.318   5.571
 6048WAT     H218387   1.085   1.178   5.573
 6049WAT      O18388   1.188   9.050   0.295
 6049WAT     H118389   1.097   9.009   0.303
 6049WAT     H218390   1.246   9.017   0.369
 6050WAT      O18391   9.760   4.639   7.237
 6050WAT     H118392   9.688   4.681   7.182
 6050WAT     H218393   9.833   4.607   7.177
 6051WAT      O18394   4.170   2.327   9.540
 6051WAT     H118395   4.176   2.390   9.462
 6051WAT     H218396   4.074   2.316   9.566
 6052WAT      O18397   9.170   2.343   0.648
 6052WAT     H118398   9.161   2.414   0.578
 6052WAT     H218399   9.106   2.362   0.723
 6053WAT      O18400   6.879   4.708   7.150
 6053WAT     H118401   6.917   4.761   7.074
 6053WAT     H218402   6.913   4.743   7.237
 6054WAT      O18403   5.189   7.199   5.404
 6054WAT     H118404   5.172   7.118   5.348
 6054WAT     H218405   5.245   7.263   5.352
 6055WAT      O18406   8.690   4.627   7.053
 6055WAT     H118407   8.742   4.681   6.987
 6055WAT     H218408   8.646   4.551   7.006
 6056WAT      O18409   1.776   0.779   2.488
 6056WAT     H118410   1.747   0.684   2.475
 6056WAT     H218411   1.866   0.793   2.446
 6057WAT      O18412   5.058   3.973   8.229
 6057WAT     H118413   5.130   4.040   8.211
 6057WAT     H218414   5.016   3.946   8.143
 6058WAT      O18415   4.203   2.912   8.228
 6058WAT     H118416   4.250   3.000   8.226
 6058WAT     H218417   4.266   2.840   8.201
 6059WAT      O18418   4.364   2.799   2.947
 6059WAT     H118419   4.373   2.709   2.905
 6059WAT     H218420   4.439   2.858   2.918
 6060WAT      O18421   9.108   7.837   3.655
 6060WAT     H118422   9.198   7.840   3.699
 6060WAT     H218423   9.107   7.899   3.576
 6061WAT      O18424   2.628   4.193   9.557
 6061WAT     H118425   2.609   4.192   9.655
 6061WAT     H218426   2.640   4.100   9.524
 6062WAT      O18427   9.761   3.853   1.797
 6062WAT     H118428   9.833   3.851   1.866
 6062WAT     H218429   9.794   3.808   1.713
 6063WAT      O18430   2.180   4.267   3.722
 6063WAT     H118431   2.254   4.213   3.681
 6063WAT     H218432   2.114   4.207   3.766
 6064WAT      O18433   1.008   9.061   0.974
 6064WAT     H118434   1.032   9.027   1.064
 6064WAT     H218435   0.958   9.148   0.983
 6065WAT      O18436   2.733   0.150   3.660
 6065WAT     H118437   2.733   0.113   3.567
 6065WAT     H218438   2.696   0.083   3.723
 6066WAT      O18439   7.787   1.581   2.288
 6066WAT     H118440   7.879   1.548   2.311
 6066WAT     H218441   7.721   1.506   2.295
 6067WAT      O18442   6.503   3.965   2.957
 6067WAT     H118443   6.475   3.873   2.931
 6067WAT     H218444   6.539   3.965   3.050
 6068WAT      O18445   7.873   8.977   8.770
 6068WAT     H118446   7.966   8.945   8.754
 6068WAT     H218447   7.809   8.923   8.715
 6069WAT      O18448   4.445   1.018   6.443
 6069WAT     H118449   4.519   1.070   6.485
 6069WAT     H218450   4.483   0.947   6.383
 6070WAT      O18451   6.070   3.246   4.092
 6070WAT     H118452   6.034   3.196   4.171
 6070WAT     H218453   6.068   3.344   4.110
 6071WAT      O18454   4.928   0.618   5.023
 6071WAT     H118455   4.922   0.681   5.100
 6071WAT     H218456   4.867   0.541   5.038
 6072WAT      O18457   4.464   2.601   5.201
 6072WAT     H118458   4.437   2.602   5.298
 6072WAT     H218459   4.554   2.643   5.191
 6073WAT      O18460   9.597   8.387   4.663
 6073WAT     H118461   9.539   8.397   4.744
 6073WAT     H218462   9.552   8.429   4.584
 6074WAT      O18463   7.248   1.395   2.593
 6074WAT     H118464   7.226   1.304   2.558
 6074WAT     H218465   7.192   1.415   2.673
 6075WAT      O18466   3.630   1.835   7.777
 6075WAT     H118467   3.722   1.807   7.749
 6075WAT     H218468   3.582   1.875   7.698
 6076WAT      O18469   8.503   2.408   2.716
 6076WAT     H118470   8.539   2.483   2.772
 6076WAT     H218471   8.539   2.321   2.750
 6077WAT      O18472   3.219   1.584   6.105
 6077WAT     H118473   3.216   1.494   6.063
 6077WAT     H218474   3.163   1.584   6.188
 6078WAT      O18475   1.997   3.808   0.456
 6078WAT     H118476   2.048   3.761   0.385
 6078WAT     H218477   1.922   3.860   0.415
 6079WAT      O18478   2.590   8.551   3.020
 6079WAT     H118479   2.602   8.464   2.973
 6079WAT     H218480   2.562   8.621   2.954
 6080WAT      O18481   5.018   8.951   3.606
 6080WAT     H118482   5.025   8.863   3.558
 6080WAT     H218483   5.028   8.936   3.704
 6081WAT      O18484   8.447   8.340   6.038
 6081WAT     H118485   8.380   8.395   6.089
 6081WAT     H218486   8.518   8.400   6.003
 6082WAT      O18487   5.995   8.334   5.734
 6082WAT     H118488   6.005   8.429   5.707
 6082WAT     H218489   5.904   8.300   5.708
 6083WAT      O18490   1.150   2.910   6.489
 6083WAT     H118491   1.211   2.831   6.501
 6083WAT     H218492   1.055   2.880   6.493
 6084WAT      O18493   2.648   5.867   4.563
 6084WAT     H118494   2.699   5.851   4.647
 6084WAT     H218495   2.647   5.965   4.543
 6085WAT      O18496   0.611   4.623   2.066
 6085WAT     H118497   0.611   4.535   2.017
 6085WAT     H218498   0.602   4.606   2.164
 6086WAT      O18499   5.303   5.317   2.722
 6086WAT     H118500   5.290   5.412   2.692
 6086WAT     H218501   5.215   5.272   2.729
 6087WAT      O18502   2.846   4.477   0.259
 6087WAT     H118503   2.879   4.570   0.245
 6087WAT     H218504   2.899   4.432   0.331
 6088WAT      O18505   2.746   6.649   3.796
 6088WAT     H118506   2.749   6.634   3.697
 6088WAT     H218507   2.837   6.632   3.834
 6089WAT      O18508   9.680   6.884   7.003
 6089WAT     H118509   9.727   6.822   7.065
 6089WAT     H218510   9.729   6.886   6.915
 6090WAT      O18511   0.522   5.361   3.158
 6090WAT     H118512   0.586   5.393   3.088
 6090WAT     H218513   0.542   5.407   3.245
 6091WAT      O18514   9.880   2.646   5.108
 6091WAT     H118515   9.953   2.664   5.042
 6091WAT     H218516   9.916   2.651   5.201
 6092WAT      O18517   7.101   3.963   8.533
 6092WAT     H118518   7.127   4.001   8.622
 6092WAT     H218519   7.002   3.969   8.522
 6093WAT      O18520   7.187   1.822   5.180
 6093WAT     H118521   7.115   1.892   5.182
 6093WAT     H218522   7.148   1.734   5.204
 6094WAT      O18523   0.727   3.715   9.126
 6094WAT     H118524   0.747   3.694   9.031
 6094WAT     H218525   0.680   3.803   9.132
 6095WAT      O18526   0.674   5.410   5.137
 6095WAT     H118527   0.693   5.475   5.211
 6095WAT     H218528   0.759   5.364   5.111
 6096WAT      O18529   2.899   5.030   2.029
 6096WAT     H118530   2.955   5.107   1.998
 6096WAT     H218531   2.918   5.011   2.125
 6097WAT      O18532   6.691   4.222   8.182
 6097WAT     H118533   6.671   4.310   8.140
 6097WAT     H218534   6.675   4.149   8.115
 6098WAT      O18535   8.036   0.899   3.077
 6098WAT     H118536   8.076   0.833   3.141
 6098WAT     H218537   8.032   0.989   3.121
 6099WAT      O18538   9.134   0.176   2.280
 6099WAT     H118539   9.075   0.243   2.325
 6099WAT     H218540   9.086   0.137   2.201
 6100WAT      O18541   5.946   6.283   7.376
 6100WAT     H118542   5.965   6.235   7.462
 6100WAT     H218543   5.955   6.219   7.300
 6101WAT      O18544   9.515   2.454   7.946
 6101WAT     H118545   9.499   2.362   7.982
 6101WAT     H218546   9.428   2.493   7.914
 6102WAT      O18547   1.855   2.533   8.191
 6102WAT     H118548   1.774   2.577   8.153
 6102WAT     H218549   1.834   2.495   8.281
 6103WAT      O18550   4.109   8.718   7.427
 6103WAT     H118551   4.040   8.650   7.402
 6103WAT     H218552   4.171   8.732   7.350
 6104WAT      O18553   3.190   0.066   7.286
 6104WAT     H118554   3.124   0.008   7.238
 6104WAT     H218555   3.206   0.031   7.378
 6105WAT      O18556   6.472   3.935   4.163
 6105WAT     H118557   6.516   3.846   4.155
 6105WAT     H218558   6.447   3.952   4.258
 6106WAT      O18559   5.877   0.750   1.821
 6106WAT     H118560   5.906   0.657   1.801
 6106WAT     H218561   5.861   0.799   1.735
 6107WAT      O18562   9.169   7.894   5.963
 6107WAT     H118563   9.212   7.873   6.051
 6107WAT     H218564   9.093   7.832   5.948
 6108WAT      O18565   8.090   9.741   7.910
 6108WAT     H118566   8.098   9.704   8.002
 6108WAT     H218567   8.021   9.689   7.859
 6109WAT      O18568   4.175   6.014   4.826
 6109WAT     H118569   4.118   5.946   4.873
 6109WAT     H218570   4.134   6.037   4.738
 6110WAT      O18571   3.401   7.751   0.750
 6110WAT     H118572   3.451   7.700   0.680
 6110WAT     H218573   3.323   7.798   0.707
 6111WAT      O18574   3.193   7.991   6.603
 6111WAT     H118575   3.221   7.910   6.654
 6111WAT     H218576   3.186   8.069   6.666
 6112WAT      O18577   7.172   3.850   3.613
 6112WAT     H118578   7.226   3.790   3.554
 6112WAT     H218579   7.100   3.894   3.560
 6113WAT      O18580   0.163   2.314   8.886
 6113WAT     H118581   0.111   2.306   8.971
 6113WAT     H218582   0.210   2.228   8.867
 6114WAT      O18583   5.914   8.790   7.617
 6114WAT     H118584   5.994   8.846   7.595
 6114WAT     H218585   5.925   8.750   7.708
 6115WAT      O18586   5.010   5.552   0.744
 6115WAT     H118587   4.962   5.631   0.781
 6115WAT     H218588   4.944   5.480   0.722
 6116WAT      O18589   6.075   2.273   2.632
 6116WAT     H118590   6.019   2.267   2.715
 6116WAT     H218591   6.045   2.350   2.577
 6117WAT      O18592   7.992   8.312   7.693
 6117WAT     H118593   7.941   8.250   7.633
 6117WAT     H218594   7.931   8.386   7.723
 6118WAT      O18595   1.330   5.850   8.876
 6118WAT     H118596   1.352   5.763   8.921
 6118WAT     H218597   1.356   5.846   8.780
 6119WAT      O18598   1.803   1.090   5.960
 6119WAT     H118599   1.883   1.128   5.912
 6119WAT     H218600   1.730   1.072   5.894
 6120WAT      O18601   4.909   0.609   2.633
 6120WAT     H118602   4.977   0.555   2.583
 6120WAT     H218603   4.896   0.697   2.587
 6121WAT      O18604   0.374   4.725   1.985
 6121WAT     H118605   0.450   4.675   2.027
 6121WAT     H218606   0.288   4.693   2.025
 6122WAT      O18607   5.550   4.415   0.956
 6122WAT     H118608   5.611   4.422   0.877
 6122WAT     H218609   5.602   4.431   1.040
 6123WAT      O18610   5.018   0.003   6.722
 6123WAT     H118611   5.043  -0.078   6.776
 6123WAT     H218612   5.083   0.076   6.740
 6124WAT      O18613   5.745   1.564   0.883
 6124WAT     H118614   5.736   1.586   0.786
 6124WAT     H218615   5.836   1.590   0.915
 6125WAT      O18616   3.516   4.838   2.333
 6125WAT     H118617   3.559   4.758   2.292
 6125WAT     H218618   3.581   4.914   2.334
 6126WAT      O18619   5.428   5.031   6.920
 6126WAT     H118620   5.422   4.931   6.913
 6126WAT     H218621   5.504   5.055   6.979
 6127WAT      O18622   6.818   7.105   0.036
 6127WAT     H118623   6.848   7.200   0.035
 6127WAT     H218624   6.893   7.046   0.067
 6128WAT      O18625   8.489   8.128   4.971
 6128WAT     H118626   8.474   8.102   5.066
 6128WAT     H218627   8.576   8.178   4.963
 6129WAT      O18628   9.451   3.639   7.748
 6129WAT     H118629   9.512   3.663   7.823
 6129WAT     H218630   9.446   3.715   7.683
 6130WAT      O18631   6.305   6.166   6.827
 6130WAT     H118632   6.328   6.076   6.789
 6130WAT     H218633   6.389   6.209   6.862
 6131WAT      O18634   6.505   9.551   6.543
 6131WAT     H118635   6.483   9.571   6.639
 6131WAT     H218636   6.428   9.502   6.501
 6132WAT      O18637   3.695   1.002   9.330
 6132WAT     H118638   3.750   1.029   9.250
 6132WAT     H218639   3.744   0.931   9.381
 6133WAT      O18640   1.469   6.463   9.156
 6133WAT     H118641   1.407   6.541   9.156
 6133WAT     H218642   1.521   6.462   9.071
 6134WAT      O18643   4.771   8.170   1.802
 6134WAT     H118644   4.707   8.152   1.727
 6134WAT     H218645   4.736   8.128   1.885
 6135WAT      O18646   9.367   6.529   0.738
 6135WAT     H118647   9.413   6.460   0.793
 6135WAT     H218648   9.405   6.619   0.757
 6136WAT      O18649   4.218   3.266   8.351
 6136WAT     H118650   4.289   3.258   8.421
 6136WAT     H218651   4.253   3.231   8.264
 6137WAT      O18652   3.392   8.110   9.531
 6137WAT     H118653   3.300   8.146   9.516
 6137WAT     H218654   3.451   8.139   9.456
 6138WAT      O18655   9.667   8.094   1.537
 6138WAT     H118656   9.664   8.194   1.530
 6138WAT     H218657   9.731   8.067   1.610
 6139WAT      O18658   3.413   8.548   0.147
 6139WAT     H118659   3.449   8.619   0.086
 6139WAT     H218660   3.408   8.461   0.098
 6140WAT      O18661   6.538   7.834   4.650
 6140WAT     H118662   6.560   7.894   4.573
 6140WAT     H218663   6.554   7.882   4.736
 6141WAT      O18664   9.834   6.338   6.146
 6141WAT     H118665   9.872   6.259   6.099
 6141WAT     H218666   9.906   6.383   6.198
 6142WAT      O18667   4.885   0.456   5.720
 6142WAT     H118668   4.827   0.412   5.788
 6142WAT     H218669   4.979   0.424   5.730
 6143WAT      O18670   9.474   5.272   9.688
 6143WAT     H118671   9.543   5.206   9.658
 6143WAT     H218672   9.519   5.351   9.730
 6144WAT      O18673   5.772   5.730   1.446
 6144WAT     H118674   5.799   5.747   1.351
 6144WAT     H218675   5.775   5.816   1.497
 6145WAT      O18676   8.478   7.769   2.479
 6145WAT     H118677   8.390   7.728   2.457
 6145WAT     H218678   8.544   7.696   2.500
 6146WAT      O18679   1.952   4.762   1.598
 6146WAT     H118680   1.894   4.681   1.610
 6146WAT     H218681   1.900   4.832   1.549
 6147WAT      O18682   0.902   5.964   9.868
 6147WAT     H118683   0.991   5.973   9.914
 6147WAT     H218684   0.876   5.868   9.863
 6148WAT      O18685   0.703   7.096   4.527
 6148WAT     H118686   0.777   7.157   4.553
 6148WAT     H218687   0.722   7.055   4.438
 6149WAT      O18688   1.019   7.157   6.731
 6149WAT     H118689   0.996   7.153   6.829
 6149WAT     H218690   1.112   7.190   6.720
 6150WAT      O18691   9.665   8.687   9.472
 6150WAT     H118692   9.622   8.738   9.547
 6150WAT     H218693   9.741   8.633   9.508
 6151WAT      O18694   7.141   4.932   6.003
 6151WAT     H118695   7.063   4.993   5.988
 6151WAT     H218696   7.127   4.848   5.951
 6152WAT      O18697   1.156   8.589   6.765
 6152WAT     H118698   1.094   8.551   6.697
 6152WAT     H218699   1.144   8.541   6.852
 6153WAT      O18700   3.186   1.213   4.299
 6153WAT     H118701   3.153   1.174   4.385
 6153WAT     H218702   3.286   1.210   4.297
 6154WAT      O18703   2.927   5.341   6.204
 6154WAT     H118704   2.897   5.432   6.179
 6154WAT     H218705   2.856   5.297   6.261
 6155WAT      O18706   5.998   7.573   9.475
 6155WAT     H118707   6.007   7.587   9.377
 6155WAT     H218708   5.934   7.498   9.492
 6156WAT      O18709   9.648   4.763   5.897
 6156WAT     H118710   9.569   4.806   5.943
 6156WAT     H218711   9.676   4.820   5.820
 6157WAT      O18712   8.998   7.117   8.043
 6157WAT     H118713   9.041   7.197   8.086
 6157WAT     H218714   9.016   7.117   7.945
 6158WAT      O18715   2.673   6.287   7.926
 6158WAT     H118716   2.622   6.326   8.003
 6158WAT     H218717   2.643   6.330   7.841
 6159WAT      O18718   1.362   3.415   9.106
 6159WAT     H118719   1.289   3.466   9.152
 6159WAT     H218720   1.429   3.384   9.174
 6160WAT      O18721   9.516   8.877   1.757
 6160WAT     H118722   9.533   8.861   1.854
 6160WAT     H218723   9.535   8.973   1.736
 6161WAT      O18724   5.551   2.415   4.944
 6161WAT     H118725   5.619   2.384   4.878
 6161WAT     H218726   5.461   2.421   4.899
 6162WAT      O18727   5.439   0.787   6.724
 6162WAT     H118728   5.414   0.841   6.644
 6162WAT     H218729   5.357   0.743   6.761
 6163WAT      O18730   5.895   0.006   1.406
 6163WAT     H118731   5.921  -0.089   1.425
 6163WAT     H218732   5.827   0.036   1.473
 6164WAT      O18733   0.407   5.412   8.210
 6164WAT     H118734   0.348   5.332   8.226
 6164WAT     H218735   0.437   5.449   8.298
 6165WAT      O18736   1.280   1.753   8.220
 6165WAT     H118737   1.223   1.696   8.161
 6165WAT     H218738   1.233   1.771   8.306
 6166WAT      O18739   8.517   9.368   3.396
 6166WAT     H118740   8.457   9.344   3.318
 6166WAT     H218741   8.493   9.459   3.429
 6167WAT      O18742   2.288   3.226   8.539
 6167WAT     H118743   2.227   3.238   8.461
 6167WAT     H218744   2.290   3.310   8.593
 6168WAT      O18745   3.479   1.181   4.397
 6168WAT     H118746   3.470   1.085   4.423
 6168WAT     H218747   3.555   1.222   4.447
 6169WAT      O18748   0.999   2.527   7.967
 6169WAT     H118749   1.093   2.508   7.940
 6169WAT     H218750   0.967   2.611   7.921
 6170WAT      O18751   9.269   1.443   2.496
 6170WAT     H118752   9.301   1.537   2.483
 6170WAT     H218753   9.201   1.441   2.569
 6171WAT      O18754   7.603   5.441   4.495
 6171WAT     H118755   7.625   5.425   4.592
 6171WAT     H218756   7.508   5.414   4.478
 6172WAT      O18757   9.505   9.346   5.268
 6172WAT     H118758   9.425   9.403   5.283
 6172WAT     H218759   9.483   9.273   5.203
 6173WAT      O18760   5.931   6.155   8.149
 6173WAT     H118761   5.858   6.222   8.161
 6173WAT     H218762   5.990   6.183   8.073
 6174WAT      O18763   3.402   0.086   5.383
 6174WAT     H118764   3.491   0.082   5.338
 6174WAT     H218765   3.369  -0.007   5.398
 6175WAT      O18766   0.420   6.141   5.581
 6175WAT     H118767   0.371   6.067   5.536
 6175WAT     H218768   0.468   6.195   5.512
 6176WAT      O18769   0.460   0.393   5.867
 6176WAT     H118770   0.498   0.331   5.798
 6176WAT     H218771   0.391   0.345   5.921
 6177WAT      O18772   3.233   8.209   1.978
 6177WAT     H118773   3.135   8.222   1.989
 6177WAT     H218774   3.264   8.135   2.037
 6178WAT      O18775   6.390   9.692   0.552
 6178WAT     H118776   6.316   9.630   0.577
 6178WAT     H218777   6.392   9.769   0.616
 6179WAT      O18778   2.245   8.905   8.962
 6179WAT     H118779   2.188   8.981   8.930
 6179WAT     H218780   2.275   8.924   9.056
 6180WAT      O18781   4.343   1.745   8.247
 6180WAT     H118782   4.373   1.712   8.157
 6180WAT     H218783   4.277   1.819   8.234
 6181WAT      O18784   6.611   9.031   9.586
 6181WAT     H118785   6.575   8.983   9.666
 6181WAT     H218786   6.555   9.010   9.506
 6182WAT      O18787   0.827   4.926   4.617
 6182WAT     H118788   0.788   4.905   4.528
 6182WAT     H218789   0.920   4.890   4.622
 6183WAT      O18790   5.941   5.509   6.791
 6183WAT     H118791   6.020   5.558   6.828
 6183WAT     H218792   5.859   5.531   6.845
 6184WAT      O18793   3.804   0.028   2.620
 6184WAT     H118794   3.835   0.040   2.714
 6184WAT     H218795   3.810   0.115   2.572
 6185WAT      O18796   0.603   4.862   4.791
 6185WAT     H118797   0.623   4.839   4.886
 6185WAT     H218798   0.687   4.891   4.746
 6186WAT      O18799   7.271   1.769   0.581
 6186WAT     H118800   7.278   1.795   0.484
 6186WAT     H218801   7.362   1.772   0.623
 6187WAT      O18802   8.871   6.040   9.360
 6187WAT     H118803   8.914   6.130   9.350
 6187WAT     H218804   8.774   6.053   9.384
 6188WAT      O18805   1.830   2.572   7.705
 6188WAT     H118806   1.858   2.489   7.753
 6188WAT     H218807   1.887   2.649   7.734
 6189WAT      O18808   7.722   8.689   7.473
 6189WAT     H118809   7.717   8.712   7.570
 6189WAT     H218810   7.814   8.657   7.450
 6190WAT      O18811   5.233   0.189   6.198
 6190WAT     H118812   5.186   0.216   6.281
 6190WAT     H218813   5.175   0.128   6.144
 6191WAT      O18814   5.768   6.592   0.575
 6191WAT     H118815   5.694   6.572   0.639
 6191WAT     H218816   5.755   6.683   0.536
 6192WAT      O18817   8.628   2.883   4.564
 6192WAT     H118818   8.726   2.894   4.543
 6192WAT     H218819   8.588   2.973   4.582
 6193WAT      O18820   7.590   7.980   4.535
 6193WAT     H118821   7.685   7.974   4.567
 6193WAT     H218822   7.583   7.940   4.444
 6194WAT      O18823   0.487   0.773   0.044
 6194WAT     H118824   0.536   0.768  -0.043
 6194WAT     H218825   0.514   0.697   0.102
 6195WAT      O18826   1.703   2.217   3.707
 6195WAT     H118827   1.746   2.151   3.768
 6195WAT     H218828   1.681   2.300   3.757
 6196WAT      O18829   6.467   8.629   0.762
 6196WAT     H118830   6.457   8.529   0.758
 6196WAT     H218831   6.397   8.672   0.706
 6197WAT      O18832   5.607   3.255   9.177
 6197WAT     H118833   5.673   3.247   9.102
 6197WAT     H218834   5.520   3.288   9.141
 6198WAT      O18835   0.106   0.502   8.025
 6198WAT     H118836   0.136   0.539   7.937
 6198WAT     H218837   0.149   0.554   8.099
 6199WAT      O18838   8.434   4.535   1.536
 6199WAT     H118839   8.475   4.573   1.452
 6199WAT     H218840   8.426   4.436   1.528
 6200WAT      O18841   5.965   7.276   2.426
 6200WAT     H118842   5.867   7.271   2.444
 6200WAT     H218843   6.015   7.258   2.511
 6201WAT      O18844   0.859   8.228   5.243
 6201WAT     H118845   0.914   8.248   5.162
 6201WAT     H218846   0.781   8.171   5.216
 6202WAT      O18847   4.034   7.556   1.363
 6202WAT     H118848   4.022   7.457   1.361
 6202WAT     H218849   3.996   7.593   1.448
 6203WAT      O18850   8.979   3.625   2.758
 6203WAT     H118851   9.044   3.699   2.737
 6203WAT     H218852   8.928   3.648   2.841
 6204WAT      O18853   7.347   6.373   9.865
 6204WAT     H118854   7.324   6.284   9.904
 6204WAT     H218855   7.264   6.418   9.834
 6205WAT      O18856   3.746   3.045   4.986
 6205WAT     H118857   3.791   3.133   4.971
 6205WAT     H218858   3.647   3.059   4.991
 6206WAT      O18859   5.244   2.848   2.373
 6206WAT     H118860   5.247   2.781   2.447
 6206WAT     H218861   5.240   2.800   2.285
 6207WAT      O18862   9.388   2.518   5.707
 6207WAT     H118863   9.398   2.555   5.615
 6207WAT     H218864   9.333   2.434   5.703
 6208WAT      O18865   9.750   4.118   2.295
 6208WAT     H118866   9.787   4.108   2.203
 6208WAT     H218867   9.823   4.107   2.362
 6209WAT      O18868   7.629   2.310   2.494
 6209WAT     H118869   7.556   2.268   2.439
 6209WAT     H218870   7.679   2.239   2.543
 6210WAT      O18871   6.080   1.844   8.943
 6210WAT     H118872   6.061   1.753   8.907
 6210WAT     H218873   5.995   1.898   8.943
 6211WAT      O18874   6.984   7.479   9.576
 6211WAT     H118875   6.916   7.552   9.582
 6211WAT     H218876   6.938   7.390   9.580
 6212WAT      O18877   5.372   1.494   6.749
 6212WAT     H118878   5.388   1.593   6.741
 6212WAT     H218879   5.453   1.445   6.719
 6213WAT      O18880   4.105   6.677   4.126
 6213WAT     H118881   4.137   6.749   4.065
 6213WAT     H218882   4.134   6.588   4.091
 6214WAT      O18883   7.374   3.245   4.803
 6214WAT     H118884   7.462   3.197   4.805
 6214WAT     H218885   7.327   3.233   4.890
 6215WAT      O18886   2.002   2.834   5.058
 6215WAT     H118887   2.000   2.825   5.157
 6215WAT     H218888   2.056   2.759   5.019
 6216WAT      O18889   3.083   2.355   3.804
 6216WAT     H118890   3.105   2.277   3.746
 6216WAT     H218891   3.134   2.348   3.890
 6217WAT      O18892   0.827   5.800   2.759
 6217WAT     H118893   0.761   5.728   2.780
 6217WAT     H218894   0.799   5.850   2.678
 6218WAT      O18895   5.889   7.182   8.408
 6218WAT     H118896   5.970   7.150   8.456
 6218WAT     H218897   5.878   7.130   8.323
 6219WAT      O18898   7.363   8.878   2.579
 6219WAT     H118899   7.439   8.860   2.517
 6219WAT     H218900   7.310   8.793   2.592
 6220WAT      O18901   3.185   4.184   6.400
 6220WAT     H118902   3.171   4.226   6.310
 6220WAT     H218903   3.281   4.189   6.425
 6221WAT      O18904   5.886   9.740   0.069
 6221WAT     H118905   5.795   9.723   0.107
 6221WAT     H218906   5.951   9.675   0.108
 6222WAT      O18907   9.524   1.552   7.894
 6222WAT     H118908   9.534   1.583   7.989
 6222WAT     H218909   9.541   1.629   7.832
 6223WAT      O18910   3.470   0.852   5.177
 6223WAT     H118911   3.460   0.754   5.197
 6223WAT     H218912   3.476   0.865   5.078
 6224WAT      O18913   3.428   9.135   9.706
 6224WAT     H118914   3.389   9.173   9.790
 6224WAT     H218915   3.469   9.046   9.725
 6225WAT      O18916   6.331   9.261   4.532
 6225WAT     H118917   6.363   9.169   4.554
 6225WAT     H218918   6.348   9.281   4.436
 6226WAT      O18919   7.214   3.131   9.722
 6226WAT     H118920   7.174   3.064   9.659
 6226WAT     H218921   7.277   3.084   9.784
 6227WAT      O18922   3.582   4.085   2.918
 6227WAT     H118923   3.588   4.028   3.000
 6227WAT     H218924   3.491   4.076   2.878
 6228WAT      O18925   1.604   4.563   2.591
 6228WAT     H118926   1.619   4.490   2.525
 6228WAT     H218927   1.642   4.536   2.680
 6229WAT      O18928   7.993   0.950   5.883
 6229WAT     H118929   7.961   0.877   5.823
 6229WAT     H218930   8.043   1.018   5.830
 6230WAT      O18931   1.111   7.664   0.143
 6230WAT     H118932   1.148   7.747   0.101
 6230WAT     H218933   1.013   7.658   0.124
 6231WAT      O18934   7.209   9.484   9.803
 6231WAT     H118935   7.110   9.500   9.795
 6231WAT     H218936   7.258   9.570   9.788
 6232WAT      O18937   3.182   8.462   3.816
 6232WAT     H118938   3.254   8.515   3.860
 6232WAT     H218939   3.144   8.515   3.739
 6233WAT      O18940   3.530   8.290   2.049
 6233WAT     H118941   3.504   8.386   2.064
 6233WAT     H218942   3.455   8.230   2.077
 6234WAT      O18943   6.296   9.467   1.949
 6234WAT     H118944   6.289   9.384   1.895
 6234WAT     H218945   6.361   9.453   2.024
 6235WAT      O18946   0.871   3.391   4.426
 6235WAT     H118947   0.777   3.424   4.413
 6235WAT     H218948   0.869   3.306   4.479
 6236WAT      O18949   7.196   5.812   5.950
 6236WAT     H118950   7.220   5.909   5.958
 6236WAT     H218951   7.256   5.769   5.882
 6237WAT      O18952   7.656   1.136   3.667
 6237WAT     H118953   7.564   1.176   3.673
 6237WAT     H218954   7.687   1.139   3.571
 6238WAT      O18955   3.411   0.498   8.231
 6238WAT     H118956   3.380   0.432   8.300
 6238WAT     H218957   3.488   0.551   8.266
 6239WAT      O18958   7.581   1.041   1.545
 6239WAT     H118959   7.641   1.072   1.619
 6239WAT     H218960   7.576   1.111   1.474
 6240WAT      O18961   8.882   4.028   8.482
 6240WAT     H118962   8.931   4.058   8.564
 6240WAT     H218963   8.843   3.937   8.498
 6241WAT      O18964   7.586   2.332   0.372
 6241WAT     H118965   7.542   2.406   0.321
 6241WAT     H218966   7.676   2.313   0.333
 6242WAT      O18967   0.925   8.258   5.680
 6242WAT     H118968   0.886   8.346   5.653
 6242WAT     H218969   1.005   8.274   5.738
 6243WAT      O18970   3.555   1.434   3.071
 6243WAT     H118971   3.455   1.430   3.071
 6243WAT     H218972   3.585   1.527   3.094
 6244WAT      O18973   9.116   1.748   7.396
 6244WAT     H118974   9.055   1.802   7.339
 6244WAT     H218975   9.074   1.735   7.486
 6245WAT      O18976   8.749   4.452   9.531
 6245WAT     H118977   8.773   4.375   9.472
 6245WAT     H218978   8.751   4.536   9.477
 6246WAT      O18979   4.895   4.119   9.314
 6246WAT     H118980   4.803   4.113   9.274
 6246WAT     H218981   4.947   4.191   9.268
 6247WAT      O18982   2.913   6.919   7.089
 6247WAT     H118983   2.836   6.858   7.071
 6247WAT     H218984   2.977   6.917   7.012
 6248WAT      O18985   3.555   1.044   7.391
 6248WAT     H118986   3.639   1.082   7.430
 6248WAT     H218987   3.564   1.043   7.291
 6249WAT      O18988   0.890   2.294   4.259
 6249WAT     H118989   0.969   2.269   4.202
 6249WAT     H218990   0.862   2.388   4.237
 6250WAT      O18991   2.173   5.298   2.672
 6250WAT     H118992   2.156   5.396   2.684
 6250WAT     H218993   2.094   5.255   2.629
 6251WAT      O18994   3.616   4.246   0.409
 6251WAT     H118995   3.574   4.286   0.491
 6251WAT     H218996   3.562   4.270   0.329
 6252WAT      O18997   3.697   0.288   0.694
 6252WAT     H118998   3.772   0.271   0.758
 6252WAT     H218999   3.727   0.269   0.601
 6253WAT      O19000   5.062   4.375   1.680
 6253WAT     H119001   5.025   4.344   1.768
 6253WAT     H219002   4.998   4.438   1.638
 6254WAT      O19003   9.482   3.619   2.783
 6254WAT     H119004   9.422   3.663   2.849
 6254WAT     H219005   9.570   3.597   2.826
 6255WAT      O19006   2.947   7.522   0.201
 6255WAT     H119007   2.935   7.424   0.186
 6255WAT     H219008   2.950   7.540   0.300
 6256WAT      O19009   7.892   4.611   2.423
 6256WAT     H119010   7.851   4.539   2.368
 6256WAT     H219011   7.937   4.677   2.362
 6257WAT      O19012   5.810   6.443   7.690
 6257WAT     H119013   5.715   6.462   7.663
 6257WAT     H219014   5.848   6.522   7.737
 6258WAT      O19015   2.951   6.292   8.514
 6258WAT     H119016   3.016   6.251   8.578
 6258WAT     H219017   2.872   6.232   8.502
 6259WAT      O19018   4.903   1.655   1.170
 6259WAT     H119019   4.966   1.590   1.211
 6259WAT     H219020   4.935   1.680   1.078
 6260WAT      O19021   8.229   4.169   1.614
 6260WAT     H119022   8.327   4.161   1.627
 6260WAT     H219023   8.189   4.222   1.689
 6261WAT      O19024   5.578   9.769   4.273
 6261WAT     H119025   5.480   9.755   4.263
 6261WAT     H219026   5.596   9.860   4.310
 6262WAT      O19027   7.379   4.579   6.278
 6262WAT     H119028   7.439   4.534   6.345
 6262WAT     H219029   7.286   4.546   6.289
 6263WAT      O19030   7.473   2.663   3.173
 6263WAT     H119031   7.553   2.609   3.197
 6263WAT     H219032   7.437   2.631   3.085
 6264WAT      O19033   9.171   5.791   8.838
 6264WAT     H119034   9.189   5.783   8.936
 6264WAT     H219035   9.210   5.877   8.804
 6265WAT      O19036   4.563   9.795   2.132
 6265WAT     H119037   4.616   9.716   2.102
 6265WAT     H219038   4.617   9.847   2.199
 6266WAT      O19039   5.389   3.120   1.466
 6266WAT     H119040   5.337   3.120   1.551
 6266WAT     H219041   5.468   3.059   1.475
 6267WAT      O19042   8.931   5.162   7.100
 6267WAT     H119043   8.923   5.135   7.196
 6267WAT     H219044   9.022   5.141   7.066
 6268WAT      O19045   5.430   7.650   3.368
 6268WAT     H119046   5.350   7.590   3.365
 6268WAT     H219047   5.475   7.650   3.278
 6269WAT      O19048   6.012   0.527   7.871
 6269WAT     H119049   6.044   0.534   7.776
 6269WAT     H219050   6.030   0.613   7.919
 6270WAT      O19051   4.352   1.767   6.543
 6270WAT     H119052   4.327   1.670   6.541
 6270WAT     H219053   4.272   1.821   6.565
 6271WAT      O19054   4.771   0.440   6.163
 6271WAT     H119055   4.816   0.369   6.216
 6271WAT     H219056   4.824   0.525   6.169
 6272WAT      O19057   0.582   0.590   3.040
 6272WAT     H119058   0.516   0.516   3.050
 6272WAT     H219059   0.591   0.639   3.126
 6273WAT      O19060   6.012   1.233   8.444
 6273WAT     H119061   5.980   1.151   8.396
 6273WAT     H219062   6.109   1.223   8.466
 6274WAT      O19063   1.912   6.894   2.029
 6274WAT     H119064   1.846   6.945   2.084
 6274WAT     H219065   1.886   6.797   2.028
 6275WAT      O19066   8.601   6.682   2.814
 6275WAT     H119067   8.658   6.674   2.896
 6275WAT     H219068   8.526   6.746   2.832
 6276WAT      O19069   4.063   1.581   5.593
 6276WAT     H119070   4.158   1.576   5.562
 6276WAT     H219071   4.006   1.620   5.520
 6277WAT      O19072   8.712   5.027   8.300
 6277WAT     H119073   8.775   5.085   8.247
 6277WAT     H219074   8.660   5.085   8.364
 6278WAT      O19075   6.478   1.099   0.845
 6278WAT     H119076   6.400   1.043   0.874
 6278WAT     H219077   6.454   1.148   0.762
 6279WAT      O19078   3.681   5.423   9.800
 6279WAT     H119079   3.773   5.451   9.824
 6279WAT     H219080   3.683   5.332   9.758
 6280WAT      O19081   8.217   6.998   4.620
 6280WAT     H119082   8.144   6.955   4.568
 6280WAT     H219083   8.259   7.070   4.566
 6281WAT      O19084   6.142   5.433   1.445
 6281WAT     H119085   6.116   5.411   1.351
 6281WAT     H219086   6.182   5.525   1.447
 6282WAT      O19087   5.268   1.218   3.196
 6282WAT     H119088   5.190   1.239   3.254
 6282WAT     H219089   5.238   1.207   3.101
 6283WAT      O19090   1.832   4.724   0.700
 6283WAT     H119091   1.743   4.678   0.695
 6283WAT     H219092   1.836   4.797   0.632
 6284WAT      O19093   6.358   6.973   4.121
 6284WAT     H119094   6.323   6.879   4.117
 6284WAT     H219095   6.434   6.978   4.186
 6285WAT      O19096   1.339   2.832   0.791
 6285WAT     H119097   1.257   2.836   0.732
 6285WAT     H219098   1.364   2.925   0.818
 6286WAT      O19099   2.250   7.857   8.475
 6286WAT     H119100   2.289   7.926   8.415
 6286WAT     H219101   2.171   7.896   8.523
 6287WAT      O19102   6.584   0.181   7.604
 6287WAT     H119103   6.657   0.174   7.536
 6287WAT     H219104   6.520   0.253   7.577
 6288WAT      O19105   4.716   1.337   0.492
 6288WAT     H119106   4.691   1.304   0.401
 6288WAT     H219107   4.634   1.346   0.548
 6289WAT      O19108   0.934   4.032   8.036
 6289WAT     H119109   0.895   4.051   8.126
 6289WAT     H219110   0.897   3.946   8.001
 6290WAT      O19111   4.179   9.228   2.607
 6290WAT     H119112   4.082   9.210   2.594
 6290WAT     H219113   4.214   9.278   2.528
 6291WAT      O19114   0.207   3.985   4.196
 6291WAT     H119115   0.148   3.954   4.271
 6291WAT     H219116   0.289   4.027   4.233
 6292WAT      O19117   6.835   4.233   3.577
 6292WAT     H119118   6.907   4.298   3.600
 6292WAT     H219119   6.815   4.176   3.657
 6293WAT      O19120   9.230   7.117   6.895
 6293WAT     H119121   9.271   7.182   6.832
 6293WAT     H219122   9.142   7.086   6.860
 6294WAT      O19123   5.111   2.829   5.006
 6294WAT     H119124   5.196   2.778   4.989
 6294WAT     H219125   5.125   2.925   4.981
 6295WAT      O19126   3.334   7.661   3.536
 6295WAT     H119127   3.326   7.608   3.452
 6295WAT     H219128   3.338   7.759   3.513
 6296WAT      O19129   9.151   8.760   1.277
 6296WAT     H119130   9.233   8.703   1.276
 6296WAT     H219131   9.158   8.827   1.351
 6297WAT      O19132   2.725   5.601   1.651
 6297WAT     H119133   2.704   5.655   1.733
 6297WAT     H219134   2.701   5.506   1.668
 6298WAT      O19135   8.715   6.456   4.543
 6298WAT     H119136   8.693   6.553   4.556
 6298WAT     H219137   8.632   6.406   4.519
 6299WAT      O19138   4.653   3.203   4.012
 6299WAT     H119139   4.609   3.138   4.074
 6299WAT     H219140   4.683   3.283   4.064
 6300WAT      O19141   3.793   5.207   3.122
 6300WAT     H119142   3.870   5.206   3.185
 6300WAT     H219143   3.745   5.120   3.128
 6301WAT      O19144   6.434   5.833   7.998
 6301WAT     H119145   6.336   5.818   8.002
 6301WAT     H219146   6.459   5.908   8.059
 6302WAT      O19147   7.387   2.473   7.168
 6302WAT     H119148   7.429   2.505   7.083
 6302WAT     H219149   7.298   2.432   7.147
 6303WAT      O19150   0.574   9.762   5.175
 6303WAT     H119151   0.664   9.754   5.133
 6303WAT     H219152   0.566   9.695   5.249
 6304WAT      O19153   8.782   1.037   1.435
 6304WAT     H119154   8.766   1.104   1.507
 6304WAT     H219155   8.694   1.008   1.397
 6305WAT      O19156   9.537   9.083   5.928
 6305WAT     H119157   9.496   9.043   5.846
 6305WAT     H219158   9.594   9.015   5.974
 6306WAT      O19159   3.309   2.022   6.349
 6306WAT     H119160   3.314   1.946   6.284
 6306WAT     H219161   3.338   2.107   6.305
 6307WAT      O19162   7.530   1.189   9.289
 6307WAT     H119163   7.551   1.180   9.192
 6307WAT     H219164   7.432   1.177   9.304
 6308WAT      O19165   6.463   2.639   2.429
 6308WAT     H119166   6.463   2.739   2.434
 6308WAT     H219167   6.536   2.603   2.487
 6309WAT      O19168   0.643   8.874   9.545
 6309WAT     H119169   0.641   8.884   9.445
 6309WAT     H219170   0.554   8.840   9.576
 6310WAT      O19171   7.767   5.807   2.994
 6310WAT     H119172   7.690   5.839   3.050
 6310WAT     H219173   7.774   5.864   2.912
 6311WAT      O19174   4.543   6.734   0.912
 6311WAT     H119175   4.511   6.794   0.985
 6311WAT     H219176   4.631   6.766   0.879
 6312WAT      O19177   6.505   7.911   0.956
 6312WAT     H119178   6.477   7.924   1.051
 6312WAT     H219179   6.592   7.957   0.940
 6313WAT      O19180   5.367   9.771   7.160
 6313WAT     H119181   5.273   9.803   7.165
 6313WAT     H219182   5.407   9.799   7.073
 6314WAT      O19183   6.445   4.880   8.782
 6314WAT     H119184   6.529   4.867   8.730
 6314WAT     H219185   6.434   4.803   8.846
 6315WAT      O19186   5.089   1.708   8.920
 6315WAT     H119187   4.992   1.715   8.894
 6315WAT     H219188   5.109   1.775   8.991
 6316WAT      O19189   4.717   0.238   3.020
 6316WAT     H119190   4.734   0.294   2.939
 6316WAT     H219191   4.621   0.212   3.023
 6317WAT      O19192   1.958   3.846   0.089
 6317WAT     H119193   1.940   3.871  -0.006
 6317WAT     H219194   1.983   3.749   0.094
 6318WAT      O19195   0.998   9.127   1.652
 6318WAT     H119196   0.964   9.104   1.560
 6318WAT     H219197   0.993   9.046   1.710
 6319WAT      O19198   3.901   2.268   5.443
 6319WAT     H119199   3.913   2.172   5.420
 6319WAT     H219200   3.974   2.298   5.504
 6320WAT      O19201   6.003   1.937   7.633
 6320WAT     H119202   5.944   2.014   7.656
 6320WAT     H219203   6.075   1.928   7.702
 6321WAT      O19204   3.547   1.765   6.808
 6321WAT     H119205   3.484   1.829   6.851
 6321WAT     H219206   3.512   1.738   6.719
 6322WAT      O19207   0.347   4.046   9.787
 6322WAT     H119208   0.434   4.071   9.744
 6322WAT     H219209   0.288   4.127   9.791
 6323WAT      O19210   9.728   7.422   6.740
 6323WAT     H119211   9.777   7.411   6.653
 6323WAT     H219212   9.679   7.337   6.761
 6324WAT      O19213   6.679   9.157   7.341
 6324WAT     H119214   6.776   9.154   7.318
 6324WAT     H219215   6.666   9.199   7.431
 6325WAT      O19216   8.422   0.544   6.032
 6325WAT     H119217   8.331   0.561   5.993
 6325WAT     H219218   8.486   0.614   5.998
 6326WAT      O19219   7.460   3.306   6.015
 6326WAT     H119220   7.362   3.316   6.033
 6326WAT     H219221   7.504   3.260   6.092
 6327WAT      O19222   8.093   3.124   7.688
 6327WAT     H119223   8.151   3.205   7.695
 6327WAT     H219224   8.147   3.042   7.707
 6328WAT      O19225   8.897   1.181   3.771
 6328WAT     H119226   8.830   1.245   3.808
 6328WAT     H219227   8.977   1.179   3.831
 6329WAT      O19228   4.983   1.915   7.005
 6329WAT     H119229   5.047   1.992   7.017
 6329WAT     H219230   4.932   1.928   6.920
 6330WAT      O19231   4.313   2.992   1.220
 6330WAT     H119232   4.278   3.012   1.129
 6330WAT     H219233   4.330   3.077   1.269
 6331WAT      O19234   3.225   9.183   7.308
 6331WAT     H119235   3.216   9.274   7.349
 6331WAT     H219236   3.159   9.121   7.352
 6332WAT      O19237   7.762   4.022   5.184
 6332WAT     H119238   7.760   4.117   5.213
 6332WAT     H219239   7.672   3.981   5.195
 6333WAT      O19240   9.258   5.253   1.688
 6333WAT     H119241   9.170   5.301   1.681
 6333WAT     H219242   9.301   5.250   1.598
 6334WAT      O19243   9.111   3.851   1.693
 6334WAT     H119244   9.059   3.785   1.641
 6334WAT     H219245   9.204   3.858   1.656
 6335WAT      O19246   8.797   2.349   7.626
 6335WAT     H119247   8.873   2.317   7.682
 6335WAT     H219248   8.712   2.341   7.678
 6336WAT      O19249   1.195   3.684   9.001
 6336WAT     H119250   1.291   3.675   9.028
 6336WAT     H219251   1.149   3.747   9.064
 6337WAT      O19252   2.106   2.980   6.399
 6337WAT     H119253   2.180   2.930   6.442
 6337WAT     H219254   2.143   3.040   6.328
 6338WAT      O19255   8.080   8.833   2.427
 6338WAT     H119256   8.100   8.870   2.336
 6338WAT     H219257   8.067   8.734   2.421
 6339WAT      O19258   1.651   7.464   1.716
 6339WAT     H119259   1.575   7.440   1.776
 6339WAT     H219260   1.647   7.409   1.633
 6340WAT      O19261   0.281   4.001   6.244
 6340WAT     H119262   0.336   4.069   6.293
 6340WAT     H219263   0.198   4.045   6.209
 6341WAT      O19264   3.263   8.434   5.934
 6341WAT     H119265   3.234   8.516   5.886
 6341WAT     H219266   3.296   8.458   6.025
 6342WAT      O19267   8.772   8.027   7.367
 6342WAT     H119268   8.691   8.040   7.425
 6342WAT     H219269   8.782   7.930   7.345
 6343WAT      O19270   3.180   9.377   8.915
 6343WAT     H119271   3.255   9.430   8.876
 6343WAT     H219272   3.121   9.343   8.842
 6344WAT      O19273   4.740   7.916   4.537
 6344WAT     H119274   4.679   7.891   4.612
 6344WAT     H219275   4.796   7.838   4.512
 6345WAT      O19276   0.906   6.003   8.035
 6345WAT     H119277   0.880   6.095   8.067
 6345WAT     H219278   0.915   5.942   8.114
 6346WAT      O19279   3.713   5.912   3.809
 6346WAT     H119280   3.736   5.820   3.778
 6346WAT     H219281   3.629   5.942   3.764
 6347WAT      O19282   1.328   9.194   9.009
 6347WAT     H119283   1.347   9.187   9.107
 6347WAT     H219284   1.239   9.237   8.996
 6348WAT      O19285   2.171   3.891   8.737
 6348WAT     H119286   2.184   3.979   8.691
 6348WAT     H219287   2.076   3.862   8.729
 6349WAT      O19288   3.184   5.430   7.447
 6349WAT     H119289   3.121   5.508   7.454
 6349WAT     H219290   3.157   5.360   7.513
 6350WAT      O19291   6.726   0.967   2.977
 6350WAT     H119292   6.777   1.039   3.024
 6350WAT     H219293   6.787   0.891   2.955
 6351WAT      O19294   0.854   3.300   8.792
 6351WAT     H119295   0.779   3.273   8.853
 6351WAT     H219296   0.895   3.385   8.826
 6352WAT      O19297   2.308   7.799   5.843
 6352WAT     H119298   2.296   7.712   5.795
 6352WAT     H219299   2.226   7.855   5.832
 6353WAT      O19300   6.340   0.323   4.912
 6353WAT     H119301   6.437   0.334   4.937
 6353WAT     H219302   6.328   0.348   4.816
 6354WAT      O19303   5.697   7.569   7.068
 6354WAT     H119304   5.641   7.530   6.995
 6354WAT     H219305   5.794   7.555   7.046
 6355WAT      O19306   6.993   5.474   0.054
 6355WAT     H119307   7.064   5.531   0.094
 6355WAT     H219308   7.032   5.386   0.027
 6356WAT      O19309   2.694   8.322   4.597
 6356WAT     H119310   2.612   8.375   4.577
 6356WAT     H219311   2.674   8.252   4.665
 6357WAT      O19312   7.995   8.969   3.969
 6357WAT     H119313   7.983   8.999   3.874
 6357WAT     H219314   8.069   9.022   4.012
 6358WAT      O19315   3.846   1.280   6.100
 6358WAT     H119316   3.944   1.262   6.095
 6358WAT     H219317   3.820   1.295   6.196
 6359WAT      O19318   4.638   4.827   7.478
 6359WAT     H119319   4.714   4.786   7.427
 6359WAT     H219320   4.674   4.874   7.559
 6360WAT      O19321   7.913   9.187   0.046
 6360WAT     H119322   7.996   9.205   0.099
 6360WAT     H219323   7.897   9.088   0.041
 6361WAT      O19324   8.662   3.334   2.520
 6361WAT     H119325   8.711   3.418   2.546
 6361WAT     H219326   8.686   3.310   2.425
 6362WAT      O19327   8.521   9.823   2.001
 6362WAT     H119328   8.514   9.735   1.953
 6362WAT     H219329   8.492   9.811   2.096
 6363WAT      O19330   0.307   7.620   5.677
 6363WAT     H119331   0.287   7.709   5.635
 6363WAT     H219332   0.244   7.551   5.641
 6364WAT      O19333   3.126   5.424   0.419
 6364WAT     H119334   3.137   5.332   0.384
 6364WAT     H219335   3.182   5.436   0.501
 6365WAT      O19336   8.771   2.653   1.827
 6365WAT     H119337   8.709   2.597   1.773
 6365WAT     H219338   8.861   2.611   1.829
 6366WAT      O19339   8.102   6.959   4.090
 6366WAT     H119340   8.082   6.969   3.993
 6366WAT     H219341   8.200   6.942   4.103
 6367WAT      O19342   9.334   2.936   2.196
 6367WAT     H119343   9.372   2.953   2.288
 6367WAT     H219344   9.262   3.002   2.178
 6368WAT      O19345   9.306   1.511   8.574
 6368WAT     H119346   9.314   1.499   8.672
 6368WAT     H219347   9.284   1.423   8.531
 6369WAT      O19348   5.883   5.553   5.470
 6369WAT     H119349   5.922   5.567   5.560
 6369WAT     H219350   5.845   5.640   5.436
 6370WAT      O19351   2.243   3.067   8.851
 6370WAT     H119352   2.306   3.094   8.778
 6370WAT     H219353   2.278   2.984   8.895
 6371WAT      O19354   8.754   0.841   0.214
 6371WAT     H119355   8.720   0.751   0.237
 6371WAT     H219356   8.682   0.894   0.170
 6372WAT      O19357   0.648   9.841   5.971
 6372WAT     H119358   0.617   9.754   6.008
 6372WAT     H219359   0.717   9.881   6.033
 6373WAT      O19360   7.425   7.952   0.318
 6373WAT     H119361   7.448   7.971   0.413
 6373WAT     H219362   7.443   8.033   0.262
 6374WAT      O19363   4.638   6.531   4.670
 6374WAT     H119364   4.681   6.616   4.703
 6374WAT     H219365   4.706   6.458   4.669
 6375WAT      O19366   0.028   1.874   5.786
 6375WAT     H119367   0.005   1.972   5.785
 6375WAT     H219368  -0.055   1.821   5.766
 6376WAT      O19369   8.362   6.700   3.066
 6376WAT     H119370   8.423   6.696   3.145
 6376WAT     H219371   8.307   6.617   3.062
 6377WAT      O19372   6.653   7.491   5.545
 6377WAT     H119373   6.706   7.428   5.601
 6377WAT     H219374   6.702   7.510   5.460
 6378WAT      O19375   3.393   0.284   3.267
 6378WAT     H119376   3.424   0.212   3.329
 6378WAT     H219377   3.471   0.341   3.240
 6379WAT      O19378   6.631   8.032   8.770
 6379WAT     H119379   6.555   8.041   8.705
 6379WAT     H219380   6.695   7.963   8.738
 6380WAT      O19381   9.615   1.788   7.758
 6380WAT     H119382   9.536   1.839   7.723
 6380WAT     H219383   9.676   1.850   7.807
 6381WAT      O19384   8.147   0.568   7.714
 6381WAT     H119385   8.137   0.626   7.633
 6381WAT     H219386   8.237   0.525   7.713
 6382WAT      O19387   1.780   9.222   8.778
 6382WAT     H119388   1.811   9.259   8.690
 6382WAT     H219389   1.860   9.198   8.834
 6383WAT      O19390   5.897   9.504   5.322
 6383WAT     H119391   5.825   9.572   5.309
 6383WAT     H219392   5.906   9.450   5.239
 6384WAT      O19393   0.550   9.771   1.811
 6384WAT     H119394   0.463   9.734   1.779
 6384WAT     H219395   0.550   9.870   1.798
 6385WAT      O19396   2.398   7.681   8.046
 6385WAT     H119397   2.371   7.673   8.142
 6385WAT     H219398   2.319   7.706   7.990
 6386WAT      O19399   2.782   7.505   8.163
 6386WAT     H119400   2.730   7.579   8.120
 6386WAT     H219401   2.720   7.448   8.216
 6387WAT      O19402   8.978   2.357   0.308
 6387WAT     H119403   8.885   2.386   0.331
 6387WAT     H219404   8.973   2.281   0.243
 6388WAT      O19405   6.032   6.600   4.601
 6388WAT     H119406   6.056   6.683   4.552
 6388WAT     H219407   5.987   6.623   4.687
 6389WAT      O19408   5.948   7.468   6.981
 6389WAT     H119409   6.022   7.503   6.922
 6389WAT     H219410   5.988   7.425   7.062
 6390WAT      O19411   0.948   6.199   5.010
 6390WAT     H119412   0.962   6.290   5.050
 6390WAT     H219413   0.854   6.191   4.976
 6391WAT      O19414   7.110   9.702   8.801
 6391WAT     H119415   7.144   9.608   8.797
 6391WAT     H219416   7.067   9.717   8.890
 6392WAT      O19417   5.194   8.192   5.278
 6392WAT     H119418   5.203   8.256   5.354
 6392WAT     H219419   5.281   8.144   5.264
 6393WAT      O19420   6.081   9.726   5.377
 6393WAT     H119421   6.012   9.654   5.373
 6393WAT     H219422   6.047   9.802   5.431
 6394WAT      O19423   2.190   5.691   3.150
 6394WAT     H119424   2.143   5.618   3.100
 6394WAT     H219425   2.289   5.678   3.145
 6395WAT      O19426   9.818   5.053   9.815
 6395WAT     H119427   9.876   4.972   9.816
 6395WAT     H219428   9.843   5.113   9.890
 6396WAT      O19429   2.487   3.353   4.463
 6396WAT     H119430   2.452   3.444   4.486
 6396WAT     H219431   2.410   3.291   4.447
 6397WAT      O19432   6.839   5.978   0.609
 6397WAT     H119433   6.880   5.902   0.559
 6397WAT     H219434   6.882   5.987   0.699
 6398WAT      O19435   5.275   9.769   1.952
 6398WAT     H119436   5.241   9.813   1.869
 6398WAT     H219437   5.366   9.806   1.974
 6399WAT      O19438   4.659   8.331   9.264
 6399WAT     H119439   4.622   8.317   9.356
 6399WAT     H219440   4.743   8.385   9.270
 6400WAT      O19441   4.297   1.663   5.144
 6400WAT     H119442   4.220   1.688   5.204
 6400WAT     H219443   4.355   1.597   5.191
 6401WAT      O19444   3.474   7.153   8.935
 6401WAT     H119445   3.552   7.117   8.987
 6401WAT     H219446   3.437   7.080   8.877
 6402WAT      O19447   7.970   7.148   5.763
 6402WAT     H119448   7.896   7.106   5.711
 6402WAT     H219449   8.014   7.079   5.820
 6403WAT      O19450   7.788   8.096   1.958
 6403WAT     H119451   7.719   8.149   2.008
 6403WAT     H219452   7.749   8.063   1.873
 6404WAT      O19453   0.900   7.555   1.024
 6404WAT     H119454   0.999   7.550   1.039
 6404WAT     H219455   0.852   7.527   1.107
 6405WAT      O19456   6.365   0.709   4.524
 6405WAT     H119457   6.297   0.665   4.465
 6405WAT     H219458   6.457   0.682   4.494
 6406WAT      O19459   4.488   7.971   5.580
 6406WAT     H119460   4.401   7.929   5.608
 6406WAT     H219461   4.540   7.906   5.525
 6407WAT      O19462   9.830   6.122   3.439
 6407WAT     H119463   9.798   6.067   3.517
 6407WAT     H219464   9.883   6.064   3.377
 6408WAT      O19465   6.598   7.007   6.917
 6408WAT     H119466   6.662   6.968   6.984
 6408WAT     H219467   6.533   7.066   6.965
 6409WAT      O19468   0.024   1.095   4.194
 6409WAT     H119469  -0.057   1.057   4.148
 6409WAT     H219470   0.026   1.064   4.289
 6410WAT      O19471   0.092   4.551   9.265
 6410WAT     H119472   0.188   4.575   9.279
 6410WAT     H219473   0.037   4.587   9.341
 6411WAT      O19474   3.836   0.296   9.640
 6411WAT     H119475   3.872   0.203   9.627
 6411WAT     H219476   3.747   0.291   9.685
 6412WAT      O19477   9.145   3.521   4.092
 6412WAT     H119478   9.213   3.560   4.030
 6412WAT     H219479   9.129   3.583   4.168
 6413WAT      O19480   1.757   5.399   4.360
 6413WAT     H119481   1.823   5.380   4.432
 6413WAT     H219482   1.733   5.313   4.313
 6414WAT      O19483   7.130   4.818   2.127
 6414WAT     H119484   7.034   4.793   2.114
 6414WAT     H219485   7.159   4.790   2.219
 6415WAT      O19486   1.543   2.036   0.695
 6415WAT     H119487   1.581   2.100   0.628
 6415WAT     H219488   1.474   2.083   0.750
 6416WAT      O19489   3.985   8.982   2.766
 6416WAT     H119490   3.973   9.056   2.832
 6416WAT     H219491   3.977   9.018   2.673
 6417WAT      O19492   8.195   5.402   8.774
 6417WAT     H119493   8.139   5.327   8.809
 6417WAT     H219494   8.290   5.372   8.765
 6418WAT      O19495   4.202   9.211   4.569
 6418WAT     H119496   4.301   9.222   4.561
 6418WAT     H219497   4.180   9.113   4.570
 6419WAT      O19498   4.739   5.740   2.650
 6419WAT     H119499   4.763   5.830   2.688
 6419WAT     H219500   4.704   5.682   2.723
 6420WAT      O19501   4.497   3.016   0.749
 6420WAT     H119502   4.492   2.978   0.657
 6420WAT     H219503   4.554   3.098   0.747
 6421WAT      O19504   0.486   8.142   4.589
 6421WAT     H119505   0.508   8.230   4.632
 6421WAT     H219506   0.571   8.094   4.568
 6422WAT      O19507   9.061   6.494   3.786
 6422WAT     H119508   9.151   6.463   3.815
 6422WAT     H219509   8.991   6.462   3.851
 6423WAT      O19510   5.196   5.986   2.562
 6423WAT     H119511   5.130   5.996   2.637
 6423WAT     H219512   5.173   5.905   2.509
 6424WAT      O19513   2.542   8.104   2.717
 6424WAT     H119514   2.560   8.016   2.760
 6424WAT     H219515   2.449   8.135   2.741
 6425WAT      O19516   4.465   1.703   9.650
 6425WAT     H119517   4.400   1.757   9.702
 6425WAT     H219518   4.556   1.712   9.690
 6426WAT      O19519   1.901   8.579   8.238
 6426WAT     H119520   1.987   8.610   8.196
 6426WAT     H219521   1.902   8.599   8.336
 6427WAT      O19522   3.565   1.140   1.079
 6427WAT     H119523   3.664   1.131   1.078
 6427WAT     H219524   3.540   1.236   1.068
 6428WAT      O19525   0.227   6.262   9.428
 6428WAT     H119526   0.180   6.298   9.509
 6428WAT     H219527   0.219   6.163   9.425
 6429WAT      O19528   2.419   2.248   5.235
 6429WAT     H119529   2.433   2.342   5.203
 6429WAT     H219530   2.457   2.238   5.327
 6430WAT      O19531   9.035   5.057   7.928
 6430WAT     H119532   9.005   5.087   7.837
 6430WAT     H219533   8.994   5.116   7.998
 6431WAT      O19534   0.959   2.131   8.850
 6431WAT     H119535   0.963   2.201   8.922
 6431WAT     H219536   0.988   2.171   8.763
 6432WAT      O19537   5.148   1.181   1.407
 6432WAT     H119538   5.228   1.128   1.378
 6432WAT     H219539   5.178   1.261   1.459
 6433WAT      O19540   5.421   7.923   1.336
 6433WAT     H119541   5.450   7.873   1.254
 6433WAT     H219542   5.414   7.860   1.413
 6434WAT      O19543   0.163   2.244   0.670
 6434WAT     H119544   0.201   2.326   0.713
 6434WAT     H219545   0.231   2.204   0.609
 6435WAT      O19546   2.227   9.625   0.041
 6435WAT     H119547   2.257   9.603  -0.051
 6435WAT     H219548   2.129   9.648   0.040
 6436WAT      O19549   5.199   8.215   7.282
 6436WAT     H119550   5.134   8.204   7.357
 6436WAT     H219551   5.178   8.150   7.209
 6437WAT      O19552   0.793   1.455   1.060
 6437WAT     H119553   0.885   1.417   1.052
 6437WAT     H219554   0.790   1.546   1.018
 6438WAT      O19555   6.510   0.608   3.615
 6438WAT     H119556   6.472   0.695   3.648
 6438WAT     H219557   6.608   0.619   3.598
 6439WAT      O19558   8.480   3.525   5.393
 6439WAT     H119559   8.498   3.588   5.318
 6439WAT     H219560   8.382   3.515   5.406
 6440WAT      O19561   0.466   8.808   1.655
 6440WAT     H119562   0.434   8.894   1.614
 6440WAT     H219563   0.500   8.827   1.747
 6441WAT      O19564   2.958   1.880   2.472
 6441WAT     H119565   2.891   1.916   2.407
 6441WAT     H219566   3.002   1.955   2.520
 6442WAT      O19567   9.193   0.802   4.464
 6442WAT     H119568   9.161   0.778   4.555
 6442WAT     H219569   9.270   0.743   4.439
 6443WAT      O19570   0.464   3.031   3.382
 6443WAT     H119571   0.563   3.026   3.398
 6443WAT     H219572   0.446   3.016   3.284
 6444WAT      O19573   0.911   6.800   1.578
 6444WAT     H119574   0.913   6.721   1.640
 6444WAT     H219575   0.947   6.773   1.489
 6445WAT      O19576   3.605   2.367   4.284
 6445WAT     H119577   3.578   2.279   4.246
 6445WAT     H219578   3.702   2.365   4.309
 6446WAT      O19579   9.509   7.816   0.964
 6446WAT     H119580   9.438   7.856   0.906
 6446WAT     H219581   9.467   7.777   1.046
 6447WAT      O19582   1.195   7.399   6.440
 6447WAT     H119583   1.200   7.447   6.528
 6447WAT     H219584   1.100   7.374   6.421
 6448WAT      O19585   3.802   1.149   7.482
 6448WAT     H119586   3.757   1.236   7.460
 6448WAT     H219587   3.832   1.152   7.578
 6449WAT      O19588   5.171   3.240   7.358
 6449WAT     H119589   5.099   3.248   7.288
 6449WAT     H219590   5.160   3.154   7.407
 6450WAT      O19591   1.918   9.018   5.065
 6450WAT     H119592   1.938   8.977   5.154
 6450WAT     H219593   1.997   9.070   5.033
 6451WAT      O19594   1.365   8.041   0.541
 6451WAT     H119595   1.399   8.135   0.539
 6451WAT     H219596   1.344   8.015   0.636
 6452WAT      O19597   7.626   8.813   8.839
 6452WAT     H119598   7.700   8.761   8.797
 6452WAT     H219599   7.659   8.903   8.866
 6453WAT      O19600   8.128   3.542   5.842
 6453WAT     H119601   8.139   3.641   5.831
 6453WAT     H219602   8.197   3.495   5.787
 6454WAT      O19603   5.821   3.352   3.023
 6454WAT     H119604   5.786   3.387   3.110
 6454WAT     H219605   5.891   3.282   3.040
 6455WAT      O19606   1.961   2.699   6.969
 6455WAT     H119607   1.889   2.765   6.948
 6455WAT     H219608   2.018   2.685   6.888
 6456WAT      O19609   6.244   2.701   0.924
 6456WAT     H119610   6.251   2.767   0.849
 6456WAT     H219611   6.336   2.670   0.950
 6457WAT      O19612   3.911   3.151   0.772
 6457WAT     H119613   3.818   3.126   0.746
 6457WAT     H219614   3.962   3.182   0.692
 6458WAT      O19615   3.686   2.062   6.913
 6458WAT     H119616   3.601   2.114   6.904
 6458WAT     H219617   3.665   1.970   6.949
 6459WAT      O19618   7.994   3.554   0.747
 6459WAT     H119619   7.990   3.454   0.756
 6459WAT     H219620   8.033   3.594   0.830
 6460WAT      O19621   4.221   1.094   7.526
 6460WAT     H119622   4.171   1.009   7.541
 6460WAT     H219623   4.283   1.084   7.448
 6461WAT      O19624   6.538   7.670   3.424
 6461WAT     H119625   6.516   7.703   3.515
 6461WAT     H219626   6.454   7.653   3.373
 6462WAT      O19627   6.657   2.253   0.990
 6462WAT     H119628   6.595   2.305   0.931
 6462WAT     H219629   6.637   2.275   1.086
 6463WAT      O19630   4.392   9.403   0.923
 6463WAT     H119631   4.410   9.343   1.001
 6463WAT     H219632   4.358   9.491   0.956
 6464WAT      O19633   6.460   6.533   7.632
 6464WAT     H119634   6.537   6.583   7.592
 6464WAT     H219635   6.473   6.525   7.730
 6465WAT      O19636   0.539   1.137   0.292
 6465WAT     H119637   0.441   1.155   0.299
 6465WAT     H219638   0.582   1.206   0.233
 6466WAT      O19639   3.935   2.196   3.590
 6466WAT     H119640   3.883   2.269   3.633
 6466WAT     H219641   4.033   2.218   3.595
 6467WAT      O19642   0.499   9.018   4.994
 6467WAT     H119643   0.518   9.013   4.896
 6467WAT     H219644   0.475   9.112   5.019
 6468WAT      O19645   8.291   7.910   7.335
 6468WAT     H119646   8.246   7.830   7.295
 6468WAT     H219647   8.384   7.917   7.299
 6469WAT      O19648   6.990   9.589   5.732
 6469WAT     H119649   6.988   9.599   5.832
 6469WAT     H219650   7.078   9.621   5.698
 6470WAT      O19651   8.196   9.654   2.097
 6470WAT     H119652   8.211   9.574   2.156
 6470WAT     H219653   8.161   9.624   2.008
 6471WAT      O19654   5.919   5.166   4.178
 6471WAT     H119655   5.898   5.087   4.235
 6471WAT     H219656   5.845   5.233   4.185
 6472WAT      O19657   5.790   8.046   1.487
 6472WAT     H119658   5.745   8.079   1.405
 6472WAT     H219659   5.840   8.120   1.531
 6473WAT      O19660   1.684   3.828   5.546
 6473WAT     H119661   1.677   3.735   5.511
 6473WAT     H219662   1.721   3.887   5.474
 6474WAT      O19663   7.559   7.492   9.882
 6474WAT     H119664   7.535   7.472   9.787
 6474WAT     H219665   7.597   7.585   9.887
 6475WAT      O19666   2.546   2.898   9.276
 6475WAT     H119667   2.499   2.986   9.284
 6475WAT     H219668   2.541   2.850   9.363
 6476WAT      O19669   9.038   3.272   4.082
 6476WAT     H119670   9.120   3.220   4.058
 6476WAT     H219671   9.058   3.370   4.076
 6477WAT      O19672   7.453   3.322   0.747
 6477WAT     H119673   7.505   3.394   0.794
 6477WAT     H219674   7.452   3.340   0.649
 6478WAT      O19675   7.090   2.000   1.442
 6478WAT     H119676   7.189   1.998   1.435
 6478WAT     H219677   7.053   1.907   1.433
 6479WAT      O19678   3.346   8.759   8.548
 6479WAT     H119679   3.302   8.750   8.637
 6479WAT     H219680   3.423   8.696   8.542
 6480WAT      O19681   6.249   3.829   1.767
 6480WAT     H119682   6.271   3.895   1.839
 6480WAT     H219683   6.152   3.807   1.771
 6481WAT      O19684   0.263   0.200   6.766
 6481WAT     H119685   0.254   0.241   6.676
 6481WAT     H219686   0.274   0.273   6.835
 6482WAT      O19687   9.056   7.033   2.944
 6482WAT     H119688   9.025   7.122   2.976
 6482WAT     H219689   9.073   7.037   2.846
 6483WAT      O19690   5.287   0.198   0.384
 6483WAT     H119691   5.291   0.294   0.409
 6483WAT     H219692   5.364   0.175   0.324
 6484WAT      O19693   5.976   4.936   8.704
 6484WAT     H119694   5.894   4.941   8.646
 6484WAT     H219695   6.055   4.915   8.646
 6485WAT      O19696   1.959   9.052   8.045
 6485WAT     H119697   1.983   8.974   7.987
 6485WAT     H219698   1.936   9.018   8.137
 6486WAT      O19699   4.288   1.030   2.100
 6486WAT     H119700   4.292   1.088   2.018
 6486WAT     H219701   4.248   1.083   2.175
 6487WAT      O19702   8.871   2.659   9.519
 6487WAT     H119703   8.885   2.652   9.421
 6487WAT     H219704   8.956   2.640   9.567
 6488WAT      O19705   6.923   3.897   9.273
 6488WAT     H119706   7.003   3.852   9.311
 6488WAT     H219707   6.880   3.837   9.206
 6489WAT      O19708   3.620   0.514   7.865
 6489WAT     H119709   3.534   0.473   7.897
 6489WAT     H219710   3.668   0.447   7.807
 6490WAT      O19711   5.744   2.487   8.572
 6490WAT     H119712   5.689   2.421   8.624
 6490WAT     H219713   5.790   2.439   8.497
 6491WAT      O19714   6.155   4.464   3.336
 6491WAT     H119715   6.079   4.495   3.393
 6491WAT     H219716   6.215   4.404   3.389
 6492WAT      O19717   2.848   4.166   5.287
 6492WAT     H119718   2.781   4.131   5.353
 6492WAT     H219719   2.936   4.180   5.334
 6493WAT      O19720   8.682   1.940   3.853
 6493WAT     H119721   8.680   1.950   3.753
 6493WAT     H219722   8.593   1.963   3.891
 6494WAT      O19723   7.697   4.288   3.592
 6494WAT     H119724   7.605   4.273   3.627
 6494WAT     H219725   7.694   4.297   3.493
 6495WAT      O19726   6.912   2.101   5.884
 6495WAT     H119727   6.965   2.017   5.893
 6495WAT     H219728   6.826   2.081   5.837
 6496WAT      O19729   2.458   0.965   3.433
 6496WAT     H119730   2.375   0.957   3.378
 6496WAT     H219731   2.455   1.051   3.485
 6497WAT      O19732   4.771   7.649   7.512
 6497WAT     H119733   4.709   7.682   7.583
 6497WAT     H219734   4.851   7.606   7.555
 6498WAT      O19735   2.842   2.463   3.955
 6498WAT     H119736   2.806   2.380   3.998
 6498WAT     H219737   2.913   2.438   3.889
 6499WAT      O19738   4.218   2.353   2.826
 6499WAT     H119739   4.193   2.296   2.747
 6499WAT     H219740   4.238   2.294   2.904
 6500WAT      O19741   0.518   4.759   0.747
 6500WAT     H119742   0.435   4.813   0.759
 6500WAT     H219743   0.497   4.662   0.763
 6501WAT      O19744   2.789   5.684   5.226
 6501WAT     H119745   2.798   5.584   5.224
 6501WAT     H219746   2.706   5.708   5.276
 6502WAT      O19747   3.466   6.827   8.932
 6502WAT     H119748   3.471   6.825   9.032
 6502WAT     H219749   3.374   6.853   8.904
 6503WAT      O19750   6.281   1.174   8.458
 6503WAT     H119751   6.302   1.083   8.422
 6503WAT     H219752   6.360   1.233   8.446
 6504WAT      O19753   8.286   9.146   0.948
 6504WAT     H119754   8.381   9.147   0.918
 6504WAT     H219755   8.270   9.067   1.007
 6505WAT      O19756   9.248   8.377   2.805
 6505WAT     H119757   9.163   8.370   2.858
 6505WAT     H219758   9.227   8.410   2.713
 6506WAT      O19759   1.180   8.131   2.351
 6506WAT     H119760   1.104   8.079   2.390
 6506WAT     H219761   1.248   8.068   2.313
 6507WAT      O19762   5.052   0.911   4.725
 6507WAT     H119763   5.088   0.975   4.658
 6507WAT     H219764   5.127   0.872   4.778
 6508WAT      O19765   6.656   6.744   3.882
 6508WAT     H119766   6.692   6.817   3.941
 6508WAT     H219767   6.674   6.656   3.924
 6509WAT      O19768   4.735   9.157   9.248
 6509WAT     H119769   4.683   9.174   9.332
 6509WAT     H219770   4.674   9.168   9.169
 6510WAT      O19771   6.038   2.112   0.226
 6510WAT     H119772   6.010   2.207   0.237
 6510WAT     H219773   6.045   2.091   0.128
 6511WAT      O19774   8.906   4.028   0.871
 6511WAT     H119775   9.005   4.044   0.877
 6511WAT     H219776   8.865   4.097   0.811
 6512WAT      O19777   4.365   0.439   8.093
 6512WAT     H119778   4.456   0.403   8.112
 6512WAT     H219779   4.307   0.366   8.057
 6513WAT      O19780   4.526   9.723   8.387
 6513WAT     H119781   4.482   9.637   8.415
 6513WAT     H219782   4.615   9.703   8.347
 6514WAT      O19783   8.720   4.504   4.287
 6514WAT     H119784   8.716   4.595   4.328
 6514WAT     H219785   8.813   4.484   4.258
 6515WAT      O19786   8.768   1.900   2.847
 6515WAT     H119787   8.780   1.902   2.946
 6515WAT     H219788   8.729   1.812   2.821
 6516WAT      O19789   3.114   5.897   7.187
 6516WAT     H119790   3.041   5.834   7.159
 6516WAT     H219791   3.188   5.845   7.229
 6517WAT      O19792   7.812   9.474   7.999
 6517WAT     H119793   7.868   9.402   8.040
 6517WAT     H219794   7.753   9.515   8.069
 6518WAT      O19795   8.146   9.818   4.945
 6518WAT     H119796   8.219   9.828   4.876
 6518WAT     H219797   8.187   9.796   5.033
 6519WAT      O19798   3.839   1.492   1.593
 6519WAT     H119799   3.752   1.513   1.639
 6519WAT     H219800   3.914   1.498   1.659
 6520WAT      O19801   4.160   9.563   8.377
 6520WAT     H119802   4.107   9.480   8.361
 6520WAT     H219803   4.236   9.543   8.440
 6521WAT      O19804   5.650   2.677   5.644
 6521WAT     H119805   5.597   2.761   5.634
 6521WAT     H219806   5.705   2.662   5.562
 6522WAT      O19807   3.552   1.033   0.586
 6522WAT     H119808   3.521   1.109   0.529
 6522WAT     H219809   3.650   1.021   0.576
 6523WAT      O19810   2.910   6.837   1.854
 6523WAT     H119811   2.938   6.748   1.889
 6523WAT     H219812   2.989   6.882   1.812
 6524WAT      O19813   0.420   3.565   6.288
 6524WAT     H119814   0.482   3.487   6.298
 6524WAT     H219815   0.433   3.607   6.199
 6525WAT      O19816   6.670   9.038   5.707
 6525WAT     H119817   6.580   9.000   5.688
 6525WAT     H219818   6.662   9.133   5.736
 6526WAT      O19819   0.239   6.611   3.908
 6526WAT     H119820   0.275   6.519   3.923
 6526WAT     H219821   0.310   6.669   3.869
 6527WAT      O19822   1.982   4.767   6.772
 6527WAT     H119823   1.938   4.839   6.827
 6527WAT     H219824   2.059   4.729   6.824
 6528WAT      O19825   8.930   0.580   8.254
 6528WAT     H119826   8.870   0.657   8.277
 6528WAT     H219827   8.993   0.609   8.182
 6529WAT      O19828   1.181   7.009   2.054
 6529WAT     H119829   1.261   7.029   2.110
 6529WAT     H219830   1.099   7.012   2.110
 6530WAT      O19831   6.218   9.589   6.766
 6530WAT     H119832   6.154   9.545   6.703
 6530WAT     H219833   6.184   9.680   6.791
 6531WAT      O19834   7.271   0.056   8.661
 6531WAT     H119835   7.218  -0.015   8.707
 6531WAT     H219836   7.241   0.064   8.566
 6532WAT      O19837   7.021   1.941   0.502
 6532WAT     H119838   7.051   2.013   0.564
 6532WAT     H219839   7.080   1.861   0.512
 6533WAT      O19840   5.313   2.403   4.813
 6533WAT     H119841   5.344   2.374   4.723
 6533WAT     H219842   5.218   2.375   4.826
 6534WAT      O19843   2.414   6.400   6.154
 6534WAT     H119844   2.502   6.383   6.196
 6534WAT     H219845   2.364   6.314   6.144
 6535WAT      O19846   4.418   6.029   8.813
 6535WAT     H119847   4.469   5.943   8.804
 6535WAT     H219848   4.320   6.010   8.805
 6536WAT      O19849   9.534   5.015   6.626
 6536WAT     H119850   9.595   5.011   6.547
 6536WAT     H219851   9.487   5.103   6.628
 6537WAT      O19852   5.007   2.064   8.725
 6537WAT     H119853   4.953   2.115   8.792
 6537WAT     H219854   5.096   2.041   8.764
 6538WAT      O19855   2.411   5.612   0.527
 6538WAT     H119856   2.460   5.688   0.483
 6538WAT     H219857   2.442   5.526   0.488
 6539WAT      O19858   1.406   5.374   0.687
 6539WAT     H119859   1.318   5.409   0.716
 6539WAT     H219860   1.479   5.416   0.742
 6540WAT      O19861   3.228   5.881   6.285
 6540WAT     H119862   3.223   5.981   6.297
 6540WAT     H219863   3.228   5.837   6.375
 6541WAT      O19864   0.289   1.439   9.653
 6541WAT     H119865   0.286   1.536   9.673
 6541WAT     H219866   0.241   1.388   9.724
 6542WAT      O19867   1.428   1.998   6.473
 6542WAT     H119868   1.341   2.018   6.517
 6542WAT     H219869   1.503   2.026   6.533
 6543WAT      O19870   6.501   7.749   8.681
 6543WAT     H119871   6.444   7.673   8.711
 6543WAT     H219872   6.585   7.713   8.640
 6544WAT      O19873   6.426   4.848   4.580
 6544WAT     H119874   6.522   4.861   4.606
 6544WAT     H219875   6.418   4.765   4.525
 6545WAT      O19876   1.534   5.720   0.802
 6545WAT     H119877   1.626   5.758   0.788
 6545WAT     H219878   1.475   5.745   0.726
 6546WAT      O19879   1.467   4.138   9.045
 6546WAT     H119880   1.406   4.193   9.103
 6546WAT     H219881   1.551   4.189   9.027
 6547WAT      O19882   2.043   4.793   4.824
 6547WAT     H119883   2.045   4.713   4.885
 6547WAT     H219884   2.082   4.767   4.735
 6548WAT      O19885   1.859   0.378   5.041
 6548WAT     H119886   1.877   0.411   5.134
 6548WAT     H219887   1.869   0.279   5.038
 6549WAT      O19888   3.103   6.461   8.113
 6549WAT     H119889   3.018   6.413   8.093
 6549WAT     H219890   3.163   6.401   8.166
 6550WAT      O19891   9.442   0.309   9.573
 6550WAT     H119892   9.366   0.257   9.611
 6550WAT     H219893   9.517   0.246   9.552
 6551WAT      O19894   8.983   6.529   2.947
 6551WAT     H119895   9.011   6.523   2.851
 6551WAT     H219896   8.946   6.620   2.965
 6552WAT      O19897   1.843   1.007   8.467
 6552WAT     H119898   1.782   0.931   8.490
 6552WAT     H219899   1.824   1.037   8.374
 6553WAT      O19900   1.571   0.465   7.124
 6553WAT     H119901   1.666   0.497   7.124
 6553WAT     H219902   1.532   0.476   7.216
 6554WAT      O19903   4.416   2.036   8.607
 6554WAT     H119904   4.452   1.949   8.574
 6554WAT     H219905   4.420   2.038   8.707
 6555WAT      O19906   5.205   3.270   8.378
 6555WAT     H119907   5.269   3.316   8.439
 6555WAT     H219908   5.197   3.174   8.404
 6556WAT      O19909   7.163   1.136   3.730
 6556WAT     H119910   7.098   1.186   3.787
 6556WAT     H219911   7.167   1.041   3.760
 6557WAT      O19912   7.440   6.108   7.643
 6557WAT     H119913   7.390   6.097   7.558
 6557WAT     H219914   7.533   6.138   7.623
 6558WAT      O19915   1.816   8.017   1.004
 6558WAT     H119916   1.880   8.078   0.958
 6558WAT     H219917   1.864   7.964   1.073
 6559WAT      O19918   3.800   5.574   4.414
 6559WAT     H119919   3.843   5.487   4.436
 6559WAT     H219920   3.817   5.597   4.318
 6560WAT      O19921   0.634   3.097   7.356
 6560WAT     H119922   0.559   3.085   7.420
 6560WAT     H219923   0.710   3.144   7.402
 6561WAT      O19924   0.779   6.834   7.752
 6561WAT     H119925   0.693   6.885   7.748
 6561WAT     H219926   0.799   6.795   7.662
 6562WAT      O19927   1.908   5.926   4.825
 6562WAT     H119928   2.005   5.904   4.836
 6562WAT     H219929   1.854   5.842   4.829
 6563WAT      O19930   5.404   2.029   7.831
 6563WAT     H119931   5.348   1.968   7.886
 6563WAT     H219932   5.486   1.980   7.799
 6564WAT      O19933   6.017   9.575   0.240
 6564WAT     H119934   6.074   9.647   0.281
 6564WAT     H219935   6.075   9.504   0.201
 6565WAT      O19936   4.912   7.422   5.603
 6565WAT     H119937   4.916   7.351   5.532
 6565WAT     H219938   4.975   7.398   5.677
 6566WAT      O19939   8.296   2.602   5.659
 6566WAT     H119940   8.267   2.521   5.711
 6566WAT     H219941   8.259   2.684   5.702
 6567WAT      O19942   8.538   7.169   2.951
 6567WAT     H119943   8.449   7.155   2.907
 6567WAT     H219944   8.537   7.125   3.041
 6568WAT      O19945   2.487   3.364   8.370
 6568WAT     H119946   2.467   3.284   8.427
 6568WAT     H219947   2.501   3.335   8.275
 6569WAT      O19948   1.098   0.921   3.957
 6569WAT     H119949   1.038   1.001   3.964
 6569WAT     H219950   1.149   0.925   3.871
 6570WAT      O19951   6.576   9.097   8.969
 6570WAT     H119952   6.488   9.050   8.978
 6570WAT     H219953   6.645   9.051   9.025
 6571WAT      O19954   8.176   4.991   4.893
 6571WAT     H119955   8.189   5.057   4.819
 6571WAT     H219956   8.078   4.970   4.903
 6572WAT      O19957   6.454   6.593   7.263
 6572WAT     H119958   6.479   6.683   7.229
 6572WAT     H219959   6.380   6.601   7.330
 6573WAT      O19960   1.376   1.389   5.783
 6573WAT     H119961   1.449   1.423   5.725
 6573WAT     H219962   1.404   1.303   5.826
 6574WAT      O19963   4.680   3.114   7.320
 6574WAT     H119964   4.774   3.117   7.285
 6574WAT     H219965   4.670   3.037   7.383
 6575WAT      O19966   4.423   4.939   0.306
 6575WAT     H119967   4.431   4.891   0.219
 6575WAT     H219968   4.470   5.028   0.299
 6576WAT      O19969   8.532   6.617   5.007
 6576WAT     H119970   8.496   6.603   4.916
 6576WAT     H219971   8.577   6.706   5.012
 6577WAT      O19972   7.439   1.430   4.040
 6577WAT     H119973   7.358   1.371   4.041
 6577WAT     H219974   7.426   1.505   4.104
 6578WAT      O19975   6.338   2.713   8.750
 6578WAT     H119976   6.370   2.807   8.741
 6578WAT     H219977   6.239   2.710   8.743
 6579WAT      O19978   1.645   4.643   0.171
 6579WAT     H119979   1.655   4.598   0.083
 6579WAT     H219980   1.602   4.733   0.158
 6580WAT      O19981   9.861   8.640   5.106
 6580WAT     H119982   9.830   8.573   5.173
 6580WAT     H219983   9.932   8.697   5.146
 6581WAT      O19984   8.930   8.444   6.355
 6581WAT     H119985   9.002   8.511   6.338
 6581WAT     H219986   8.969   8.352   6.353
 6582WAT      O19987   4.273   0.988   5.016
 6582WAT     H119988   4.233   0.901   5.043
 6582WAT     H219989   4.305   0.983   4.922
 6583WAT      O19990   6.361   5.091   1.825
 6583WAT     H119991   6.391   5.121   1.915
 6583WAT     H219992   6.396   5.155   1.756
 6584WAT      O19993   5.688   4.898   5.166
 6584WAT     H119994   5.673   4.800   5.151
 6584WAT     H219995   5.763   4.910   5.231
 6585WAT      O19996   3.376   5.646   8.703
 6585WAT     H119997   3.396   5.549   8.716
 6585WAT     H219998   3.350   5.662   8.607
 6586WAT      O19999   7.343   9.566   2.417
 6586WAT     H120000   7.252   9.559   2.459
 6586WAT     H220001   7.339   9.628   2.338
 6587WAT      O20002   9.393   8.902   0.820
 6587WAT     H120003   9.327   8.974   0.803
 6587WAT     H220004   9.471   8.913   0.758
 6588WAT      O20005   0.490   4.501   6.991
 6588WAT     H120006   0.518   4.407   6.971
 6588WAT     H220007   0.553   4.565   6.948
 6589WAT      O20008   0.670   5.051   0.021
 6589WAT     H120009   0.581   5.074   0.060
 6589WAT     H220010   0.659   4.977  -0.045
 6590WAT      O20011   4.276   8.524   7.949
 6590WAT     H120012   4.322   8.586   7.887
 6590WAT     H220013   4.178   8.521   7.927
 6591WAT      O20014   2.279   2.590   0.707
 6591WAT     H120015   2.186   2.622   0.728
 6591WAT     H220016   2.328   2.572   0.791
 6592WAT      O20017   1.896   6.874   5.444
 6592WAT     H120018   1.914   6.777   5.430
 6592WAT     H220019   1.867   6.916   5.358
 6593WAT      O20020   5.741   5.770   0.353
 6593WAT     H120021   5.687   5.696   0.313
 6593WAT     H220022   5.827   5.780   0.303
 6594WAT      O20023   8.347   7.015   0.892
 6594WAT     H120024   8.404   7.018   0.809
 6594WAT     H220025   8.311   6.922   0.904
 6595WAT      O20026   1.551   8.376   8.530
 6595WAT     H120027   1.576   8.441   8.601
 6595WAT     H220028   1.568   8.416   8.440
 6596WAT      O20029   7.841   1.536   8.928
 6596WAT     H120030   7.745   1.516   8.948
 6596WAT     H220031   7.897   1.510   9.007
 6597WAT      O20032   5.405   9.791   5.270
 6597WAT     H120033   5.326   9.742   5.309
 6597WAT     H220034   5.402   9.785   5.170
 6598WAT      O20035   7.038   6.863   9.467
 6598WAT     H120036   6.976   6.917   9.524
 6598WAT     H220037   7.002   6.857   9.374
 6599WAT      O20038   1.820   9.434   9.519
 6599WAT     H120039   1.822   9.374   9.600
 6599WAT     H220040   1.731   9.428   9.476
 6600WAT      O20041   2.918   8.853   9.132
 6600WAT     H120042   2.843   8.880   9.073
 6600WAT     H220043   2.889   8.857   9.228
 6601WAT      O20044   7.433   8.596   8.777
 6601WAT     H120045   7.465   8.691   8.775
 6601WAT     H220046   7.335   8.593   8.760
 6602WAT      O20047   2.541   7.829   6.999
 6602WAT     H120048   2.520   7.749   6.943
 6602WAT     H220049   2.559   7.800   7.093
 6603WAT      O20050   6.198   9.443   1.181
 6603WAT     H120051   6.285   9.398   1.201
 6603WAT     H220052   6.205   9.541   1.201
 6604WAT      O20053   7.844   9.254   1.318
 6604WAT     H120054   7.901   9.233   1.398
 6604WAT     H220055   7.856   9.182   1.249
 6605WAT      O20056   0.392   0.713   5.125
 6605WAT     H120057   0.385   0.726   5.026
 6605WAT     H220058   0.435   0.793   5.166
 6606WAT      O20059   7.871   5.429   2.666
 6606WAT     H120060   7.961   5.469   2.683
 6606WAT     H220061   7.804   5.470   2.728
 6607WAT      O20062   1.686   1.322   3.802
 6607WAT     H120063   1.762   1.379   3.771
 6607WAT     H220064   1.687   1.316   3.901
 6608WAT      O20065   6.706   7.454   0.623
 6608WAT     H120066   6.693   7.473   0.720
 6608WAT     H220067   6.617   7.456   0.577
 6609WAT      O20068   1.385   8.854   2.432
 6609WAT     H120069   1.414   8.817   2.343
 6609WAT     H220070   1.356   8.949   2.421
 6610WAT      O20071   4.172   9.337   9.669
 6610WAT     H120072   4.073   9.352   9.674
 6610WAT     H220073   4.214   9.414   9.622
 6611WAT      O20074   5.525   5.324   8.455
 6611WAT     H120075   5.537   5.240   8.401
 6611WAT     H220076   5.553   5.403   8.401
 6612WAT      O20077   8.237   4.178   7.039
 6612WAT     H120078   8.218   4.110   7.110
 6612WAT     H220079   8.283   4.256   7.080
 6613WAT      O20080   5.222   2.826   0.753
 6613WAT     H120081   5.216   2.727   0.765
 6613WAT     H220082   5.293   2.863   0.812
 6614WAT      O20083   1.183   6.098   2.863
 6614WAT     H120084   1.103   6.130   2.813
 6614WAT     H220085   1.251   6.172   2.867
 6615WAT      O20086   1.161   4.493   5.832
 6615WAT     H120087   1.131   4.462   5.922
 6615WAT     H220088   1.090   4.550   5.792
 6616WAT      O20089   9.027   3.996   3.594
 6616WAT     H120090   9.003   3.903   3.621
 6616WAT     H220091   9.126   4.009   3.603
 6617WAT      O20092   1.477   6.528   4.934
 6617WAT     H120093   1.563   6.503   4.889
 6617WAT     H220094   1.494   6.600   5.001
 6618WAT      O20095   8.595   2.937   3.302
 6618WAT     H120096   8.505   2.957   3.263
 6618WAT     H220097   8.666   2.981   3.246
 6619WAT      O20098   1.725   1.095   2.926
 6619WAT     H120099   1.709   1.192   2.943
 6619WAT     H220100   1.799   1.062   2.984
 6620WAT      O20101   1.330   1.077   5.048
 6620WAT     H120102   1.344   0.996   5.105
 6620WAT     H220103   1.416   1.127   5.039
 6621WAT      O20104   6.853   5.457   4.991
 6621WAT     H120105   6.827   5.428   5.083
 6621WAT     H220106   6.921   5.531   4.998
 6622WAT      O20107   2.612   8.354   2.327
 6622WAT     H120108   2.686   8.410   2.364
 6622WAT     H220109   2.624   8.259   2.356
 6623WAT      O20110   5.913   4.819   1.932
 6623WAT     H120111   5.911   4.896   1.868
 6623WAT     H220112   5.831   4.764   1.921
 6624WAT      O20113   5.937   5.746   9.052
 6624WAT     H120114   5.906   5.687   8.978
 6624WAT     H220115   5.862   5.806   9.081
 6625WAT      O20116   4.529   7.008   7.000
 6625WAT     H120117   4.443   7.009   6.948
 6625WAT     H220118   4.533   7.088   7.060
 6626WAT      O20119   6.913   0.992   1.344
 6626WAT     H120120   6.863   0.937   1.411
 6626WAT     H220121   6.987   0.938   1.305
 6627WAT      O20122   5.248   7.384   7.629
 6627WAT     H120123   5.258   7.347   7.722
 6627WAT     H220124   5.322   7.348   7.572
 6628WAT      O20125   5.401   5.700   1.277
 6628WAT     H120126   5.405   5.763   1.355
 6628WAT     H220127   5.430   5.609   1.307
 6629WAT      O20128   8.476   3.478   3.999
 6629WAT     H120129   8.382   3.467   4.031
 6629WAT     H220130   8.490   3.572   3.967
 6630WAT      O20131   2.705   5.061   5.215
 6630WAT     H120132   2.739   5.147   5.177
 6630WAT     H220133   2.693   5.070   5.313
 6631WAT      O20134   2.485   9.566   0.099
 6631WAT     H120135   2.387   9.584   0.088
 6631WAT     H220136   2.500   9.515   0.185
 6632WAT      O20137   8.459   2.339   9.300
 6632WAT     H120138   8.520   2.384   9.366
 6632WAT     H220139   8.400   2.407   9.258
 6633WAT      O20140   2.823   9.651   3.498
 6633WAT     H120141   2.829   9.585   3.573
 6633WAT     H220142   2.856   9.609   3.414
 6634WAT      O20143   2.439   9.349   4.424
 6634WAT     H120144   2.451   9.435   4.376
 6634WAT     H220145   2.349   9.347   4.468
 6635WAT      O20146   9.202   1.669   6.527
 6635WAT     H120147   9.171   1.609   6.600
 6635WAT     H220148   9.152   1.649   6.443
 6636WAT      O20149   8.879   2.612   5.649
 6636WAT     H120150   8.897   2.550   5.725
 6636WAT     H220151   8.891   2.707   5.679
 6637WAT      O20152   1.826   2.887   9.328
 6637WAT     H120153   1.775   2.963   9.289
 6637WAT     H220154   1.789   2.800   9.294
 6638WAT      O20155   3.041   6.184   4.157
 6638WAT     H120156   3.018   6.144   4.068
 6638WAT     H220157   3.124   6.141   4.192
 6639WAT      O20158   4.366   4.829   5.272
 6639WAT     H120159   4.460   4.860   5.279
 6639WAT     H220160   4.364   4.732   5.248
 6640WAT      O20161   6.878   2.493   7.992
 6640WAT     H120162   6.848   2.407   7.950
 6640WAT     H220163   6.799   2.553   8.005
 6641WAT      O20164   3.448   1.655   1.990
 6641WAT     H120165   3.441   1.558   2.015
 6641WAT     H220166   3.510   1.664   1.912
 6642WAT      O20167   7.484   7.649   8.034
 6642WAT     H120168   7.582   7.632   8.023
 6642WAT     H220169   7.446   7.679   7.946
 6643WAT      O20170   0.070   9.737   3.663
 6643WAT     H120171  -0.019   9.775   3.686
 6643WAT     H220172   0.075   9.643   3.697
 6644WAT      O20173   7.913   0.137   8.020
 6644WAT     H120174   8.004   0.121   7.981
 6644WAT     H220175   7.890   0.234   8.012
 6645WAT      O20176   5.909   8.957   1.961
 6645WAT     H120177   5.979   8.907   1.909
 6645WAT     H220178   5.944   8.979   2.052
 6646WAT      O20179   3.959   7.128   8.565
 6646WAT     H120180   3.863   7.152   8.551
 6646WAT     H220181   3.971   7.087   8.655
 6647WAT      O20182   1.751   8.439   5.281
 6647WAT     H120183   1.758   8.429   5.380
 6647WAT     H220184   1.666   8.487   5.259
 6648WAT      O20185   2.574   6.064   6.830
 6648WAT     H120186   2.669   6.083   6.804
 6648WAT     H220187   2.522   6.037   6.749
 6649WAT      O20188   6.636   7.544   7.780
 6649WAT     H120189   6.625   7.452   7.818
 6649WAT     H220190   6.601   7.546   7.687
 6650WAT      O20191   7.621   2.508   0.563
 6650WAT     H120192   7.615   2.432   0.498
 6650WAT     H220193   7.537   2.561   0.560
 6651WAT      O20194   1.077   5.645   4.860
 6651WAT     H120195   1.151   5.629   4.925
 6651WAT     H220196   1.111   5.700   4.783
 6652WAT      O20197   2.698   5.653   2.196
 6652WAT     H120198   2.692   5.599   2.280
 6652WAT     H220199   2.662   5.744   2.213
 6653WAT      O20200   2.228   4.442   7.229
 6653WAT     H120201   2.295   4.504   7.189
 6653WAT     H220202   2.138   4.485   7.230
 6654WAT      O20203   0.186   3.957   6.977
 6654WAT     H120204   0.201   3.943   7.075
 6654WAT     H220205   0.158   3.870   6.935
 6655WAT      O20206   8.699   4.142   7.788
 6655WAT     H120207   8.671   4.175   7.879
 6655WAT     H220208   8.639   4.180   7.719
 6656WAT      O20209   2.251   5.739   8.429
 6656WAT     H120210   2.233   5.798   8.508
 6656WAT     H220211   2.310   5.788   8.364
 6657WAT      O20212   5.104   9.791   4.085
 6657WAT     H120213   5.014   9.750   4.073
 6657WAT     H220214   5.143   9.812   3.995
 6658WAT      O20215   4.641   5.912   1.166
 6658WAT     H120216   4.618   5.846   1.095
 6658WAT     H220217   4.736   5.898   1.195
 6659WAT      O20218   2.309   0.252   1.680
 6659WAT     H120219   2.271   0.337   1.716
 6659WAT     H220220   2.252   0.220   1.604
 6660WAT      O20221   5.847   3.437   5.469
 6660WAT     H120222   5.765   3.469   5.516
 6660WAT     H220223   5.903   3.515   5.440
 6661WAT      O20224   3.799   9.642   1.267
 6661WAT     H120225   3.790   9.737   1.238
 6661WAT     H220226   3.768   9.633   1.362
 6662WAT      O20227   2.263   4.641   0.633
 6662WAT     H120228   2.286   4.568   0.698
 6662WAT     H220229   2.207   4.710   0.679
 6663WAT      O20230   8.910   4.385   0.278
 6663WAT     H120231   8.999   4.431   0.278
 6663WAT     H220232   8.843   4.441   0.229
 6664WAT      O20233   5.990   2.681   6.320
 6664WAT     H120234   5.910   2.720   6.365
 6664WAT     H220235   5.991   2.710   6.224
 6665WAT      O20236   8.996   1.970   7.697
 6665WAT     H120237   8.984   2.046   7.761
 6665WAT     H220238   9.060   1.903   7.735
 6666WAT      O20239   3.446   3.012   4.946
 6666WAT     H120240   3.491   2.968   4.868
 6666WAT     H220241   3.394   3.091   4.914
 6667WAT      O20242   7.397   6.002   1.960
 6667WAT     H120243   7.418   6.057   1.878
 6667WAT     H220244   7.313   6.036   2.001
 6668WAT      O20245   6.310   1.243   9.059
 6668WAT     H120246   6.266   1.247   9.148
 6668WAT     H220247   6.242   1.223   8.988
 6669WAT      O20248   2.179   0.034   1.805
 6669WAT     H120249   2.197   0.030   1.904
 6669WAT     H220250   2.235   0.105   1.764
 6670WAT      O20251   2.091   7.626   0.667
 6670WAT     H120252   2.149   7.617   0.748
 6670WAT     H220253   2.065   7.535   0.635
 6671WAT      O20254   7.231   1.993   3.038
 6671WAT     H120255   7.294   2.064   3.069
 6671WAT     H220256   7.187   1.951   3.118
 6672WAT      O20257   1.900   9.215   7.181
 6672WAT     H120258   1.870   9.127   7.144
 6672WAT     H220259   1.890   9.286   7.110
 6673WAT      O20260   7.370   1.440   6.168
 6673WAT     H120261   7.400   1.376   6.239
 6673WAT     H220262   7.413   1.529   6.183
 6674WAT      O20263   9.250   4.352   4.134
 6674WAT     H120264   9.268   4.265   4.088
 6674WAT     H220265   9.228   4.422   4.066
 6675WAT      O20266   3.059   8.703   4.585
 6675WAT     H120267   3.004   8.629   4.545
 6675WAT     H220268   3.142   8.664   4.626
 6676WAT      O20269   0.221   0.050   4.146
 6676WAT     H120270   0.181  -0.002   4.071
 6676WAT     H220271   0.172   0.030   4.231
 6677WAT      O20272   1.643   3.560   7.021
 6677WAT     H120273   1.679   3.585   7.111
 6677WAT     H220274   1.696   3.483   6.984
 6678WAT      O20275   7.490   3.832   3.663
 6678WAT     H120276   7.425   3.900   3.699
 6678WAT     H220277   7.581   3.850   3.699
 6679WAT      O20278   4.631   8.616   9.380
 6679WAT     H120279   4.730   8.610   9.387
 6679WAT     H220280   4.606   8.657   9.292
 6680WAT      O20281   3.837   5.685   4.172
 6680WAT     H120282   3.839   5.637   4.084
 6680WAT     H220283   3.863   5.781   4.158
 6681WAT      O20284   9.490   6.581   2.441
 6681WAT     H120285   9.481   6.605   2.538
 6681WAT     H220286   9.520   6.486   2.434
 6682WAT      O20287   8.961   4.459   6.177
 6682WAT     H120288   8.863   4.459   6.193
 6682WAT     H220289   9.000   4.548   6.200
 6683WAT      O20290   4.887   5.297   8.825
 6683WAT     H120291   4.947   5.255   8.893
 6683WAT     H220292   4.854   5.227   8.761
 6684WAT      O20293   1.778   3.941   0.274
 6684WAT     H120294   1.714   3.864   0.281
 6684WAT     H220295   1.850   3.918   0.208
 6685WAT      O20296   1.289   6.250   0.853
 6685WAT     H120297   1.251   6.339   0.830
 6685WAT     H220298   1.369   6.262   0.913
 6686WAT      O20299   3.852   9.085   0.214
 6686WAT     H120300   3.779   9.019   0.231
 6686WAT     H220301   3.908   9.054   0.138
 6687WAT      O20302   5.976   4.441   9.814
 6687WAT     H120303   6.020   4.507   9.876
 6687WAT     H220304   5.937   4.489   9.736
 6688WAT      O20305   6.531   0.294   6.544
 6688WAT     H120306   6.526   0.393   6.533
 6688WAT     H220307   6.627   0.265   6.547
 6689WAT      O20308   2.667   3.725   3.425
 6689WAT     H120309   2.685   3.799   3.489
 6689WAT     H220310   2.685   3.637   3.471
 6690WAT      O20311   9.177   3.059   3.441
 6690WAT     H120312   9.272   3.089   3.434
 6690WAT     H220313   9.116   3.135   3.421
 6691WAT      O20314   7.818   0.865   7.330
 6691WAT     H120315   7.858   0.884   7.241
 6691WAT     H220316   7.719   0.875   7.325
 6692WAT      O20317   8.648   8.340   2.333
 6692WAT     H120318   8.627   8.309   2.426
 6692WAT     H220319   8.567   8.384   2.294
 6693WAT      O20320   3.139   0.018   6.659
 6693WAT     H120321   3.150  -0.079   6.681
 6693WAT     H220322   3.202   0.072   6.714
 6694WAT      O20323   7.195   9.213   4.907
 6694WAT     H120324   7.251   9.180   4.830
 6694WAT     H220325   7.143   9.136   4.946
 6695WAT      O20326   9.620   7.121   1.135
 6695WAT     H120327   9.626   7.023   1.153
 6695WAT     H220328   9.559   7.137   1.057
 6696WAT      O20329   9.505   7.874   1.950
 6696WAT     H120330   9.507   7.787   1.902
 6696WAT     H220331   9.590   7.924   1.934
 6697WAT      O20332   6.435   4.682   5.188
 6697WAT     H120333   6.473   4.600   5.145
 6697WAT     H220334   6.340   4.693   5.161
 6698WAT      O20335   5.613   7.349   6.681
 6698WAT     H120336   5.628   7.364   6.583
 6698WAT     H220337   5.574   7.432   6.721
 6699WAT      O20338   5.652   9.405   5.807
 6699WAT     H120339   5.743   9.446   5.813
 6699WAT     H220340   5.600   9.429   5.890
 6700WAT      O20341   3.247   5.553   2.848
 6700WAT     H120342   3.246   5.598   2.759
 6700WAT     H220343   3.200   5.465   2.842
 6701WAT      O20344   0.654   1.174   2.817
 6701WAT     H120345   0.608   1.114   2.883
 6701WAT     H220346   0.642   1.136   2.725
 6702WAT      O20347   3.054   9.017   7.410
 6702WAT     H120348   3.077   8.923   7.384
 6702WAT     H220349   2.958   9.036   7.388
 6703WAT      O20350   7.587   9.088   0.982
 6703WAT     H120351   7.596   9.022   1.056
 6703WAT     H220352   7.672   9.140   0.973
 6704WAT      O20353   8.767   0.650   0.930
 6704WAT     H120354   8.778   0.553   0.910
 6704WAT     H220355   8.856   0.696   0.925
 6705WAT      O20356   1.665   1.465   5.033
 6705WAT     H120357   1.707   1.507   5.113
 6705WAT     H220358   1.736   1.433   4.970
 6706WAT      O20359   0.833   0.579   0.728
 6706WAT     H120360   0.818   0.506   0.660
 6706WAT     H220361   0.864   0.661   0.681
 6707WAT      O20362   2.298   1.910   6.885
 6707WAT     H120363   2.305   1.816   6.918
 6707WAT     H220364   2.287   1.972   6.962
 6708WAT      O20365   2.163   7.300   4.712
 6708WAT     H120366   2.252   7.308   4.756
 6708WAT     H220367   2.103   7.373   4.744
 6709WAT      O20368   8.551   9.749   5.537
 6709WAT     H120369   8.649   9.736   5.522
 6709WAT     H220370   8.538   9.808   5.618
 6710WAT      O20371   6.302   4.327   7.596
 6710WAT     H120372   6.240   4.405   7.607
 6710WAT     H220373   6.350   4.334   7.509
 6711WAT      O20374   6.797   1.295   0.838
 6711WAT     H120375   6.802   1.293   0.739
 6711WAT     H220376   6.751   1.379   0.868
 6712WAT      O20377   2.560   0.470   2.978
 6712WAT     H120378   2.464   0.471   3.008
 6712WAT     H220379   2.603   0.385   3.008
 6713WAT      O20380   4.276   8.633   8.456
 6713WAT     H120381   4.227   8.593   8.534
 6713WAT     H220382   4.281   8.566   8.382
 6714WAT      O20383   1.528   5.573   4.414
 6714WAT     H120384   1.505   5.598   4.320
 6714WAT     H220385   1.601   5.505   4.414
 6715WAT      O20386   4.991   4.925   4.435
 6715WAT     H120387   4.893   4.942   4.446
 6715WAT     H220388   5.035   4.926   4.524
 6716WAT      O20389   5.270   3.833   2.947
 6716WAT     H120390   5.229   3.788   2.868
 6716WAT     H220391   5.355   3.786   2.972
 6717WAT      O20392   6.548   2.982   4.154
 6717WAT     H120393   6.530   3.048   4.081
 6717WAT     H220394   6.505   2.895   4.132
 6718WAT      O20395   3.138   3.242   4.582
 6718WAT     H120396   3.155   3.205   4.673
 6718WAT     H220397   3.101   3.334   4.590
 6719WAT      O20398   9.075   2.001   8.255
 6719WAT     H120399   9.022   1.919   8.236
 6719WAT     H220400   9.142   1.982   8.327
 6720WAT      O20401   1.202   5.598   3.166
 6720WAT     H120402   1.164   5.603   3.074
 6720WAT     H220403   1.159   5.668   3.223
 6721WAT      O20404   6.069   1.486   8.308
 6721WAT     H120405   5.990   1.547   8.317
 6721WAT     H220406   6.056   1.406   8.368
 6722WAT      O20407   7.332   4.994   3.412
 6722WAT     H120408   7.417   4.984   3.463
 6722WAT     H220409   7.257   5.015   3.474
 6723WAT      O20410   0.406   4.831   0.405
 6723WAT     H120411   0.456   4.917   0.391
 6723WAT     H220412   0.312   4.851   0.435
 6724WAT      O20413   2.699   6.042   1.131
 6724WAT     H120414   2.715   5.983   1.210
 6724WAT     H220415   2.787   6.079   1.099
 6725WAT      O20416   4.743   4.980   1.833
 6725WAT     H120417   4.690   4.985   1.749
 6725WAT     H220418   4.799   5.062   1.843
 6726WAT      O20419   2.659   6.263   7.254
 6726WAT     H120420   2.713   6.182   7.230
 6726WAT     H220421   2.576   6.265   7.199
 6727WAT      O20422   5.579   2.476   1.938
 6727WAT     H120423   5.501   2.512   1.887
 6727WAT     H220424   5.591   2.379   1.915
 6728WAT      O20425   9.440   6.841   8.533
 6728WAT     H120426   9.395   6.870   8.449
 6728WAT     H220427   9.371   6.821   8.603
 6729WAT      O20428   9.716   6.696   5.592
 6729WAT     H120429   9.676   6.610   5.622
 6729WAT     H220430   9.676   6.723   5.504
 6730WAT      O20431   1.116   7.208   5.768
 6730WAT     H120432   1.075   7.118   5.786
 6730WAT     H220433   1.165   7.205   5.680
 6731WAT      O20434   8.015   3.558   3.274
 6731WAT     H120435   7.923   3.558   3.235
 6731WAT     H220436   8.032   3.645   3.321
 6732WAT      O20437   8.494   1.170   2.832
 6732WAT     H120438   8.394   1.178   2.834
 6732WAT     H220439   8.525   1.170   2.737
 6733WAT      O20440   7.806   4.475   4.650
 6733WAT     H120441   7.714   4.449   4.620
 6733WAT     H220442   7.803   4.563   4.696
 6734WAT      O20443   5.414   2.216   2.056
 6734WAT     H120444   5.451   2.220   1.963
 6734WAT     H220445   5.320   2.180   2.053
 6735WAT      O20446   9.117   3.329   5.728
 6735WAT     H120447   9.178   3.395   5.772
 6735WAT     H220448   9.140   3.237   5.757
 6736WAT      O20449   3.138   9.839   0.600
 6736WAT     H120450   3.227   9.883   0.588
 6736WAT     H220451   3.142   9.745   0.565
 6737WAT      O20452   1.811   1.271   9.750
 6737WAT     H120453   1.845   1.177   9.747
 6737WAT     H220454   1.748   1.281   9.828
 6738WAT      O20455   6.553   0.312   4.688
 6738WAT     H120456   6.640   0.339   4.648
 6738WAT     H220457   6.546   0.347   4.781
 6739WAT      O20458   5.852   2.627   5.452
 6739WAT     H120459   5.874   2.538   5.412
 6739WAT     H220460   5.818   2.689   5.381
 6740WAT      O20461   0.845   9.310   3.953
 6740WAT     H120462   0.776   9.283   4.020
 6740WAT     H220463   0.838   9.251   3.872
 6741WAT      O20464   4.787   1.347   9.580
 6741WAT     H120465   4.841   1.310   9.504
 6741WAT     H220466   4.756   1.273   9.638
 6742WAT      O20467   7.275   3.635   4.153
 6742WAT     H120468   7.322   3.653   4.239
 6742WAT     H220469   7.298   3.706   4.087
 6743WAT      O20470   9.461   7.636   2.535
 6743WAT     H120471   9.412   7.602   2.455
 6743WAT     H220472   9.408   7.708   2.579
 6744WAT      O20473   3.661   8.537   3.476
 6744WAT     H120474   3.607   8.610   3.435
 6744WAT     H220475   3.634   8.524   3.571
 6745WAT      O20476   6.254   4.773   1.156
 6745WAT     H120477   6.217   4.712   1.085
 6745WAT     H220478   6.291   4.717   1.230
 6746WAT      O20479   2.568   6.649   2.406
 6746WAT     H120480   2.562   6.726   2.470
 6746WAT     H220481   2.480   6.638   2.359
 6747WAT      O20482   0.068   9.101   2.633
 6747WAT     H120483   0.128   9.023   2.615
 6747WAT     H220484   0.022   9.128   2.548
 6748WAT      O20485   9.770   1.435   4.336
 6748WAT     H120486   9.810   1.351   4.301
 6748WAT     H220487   9.771   1.505   4.264
 6749WAT      O20488   9.854   9.395   5.913
 6749WAT     H120489   9.888   9.322   5.973
 6749WAT     H220490   9.799   9.354   5.839
 6750WAT      O20491   0.895   8.082   2.291
 6750WAT     H120492   0.958   8.080   2.212
 6750WAT     H220493   0.801   8.094   2.258
 6751WAT      O20494   3.583   1.030   4.144
 6751WAT     H120495   3.634   1.077   4.216
 6751WAT     H220496   3.597   0.931   4.152
 6752WAT      O20497   7.449   5.951   2.361
 6752WAT     H120498   7.501   5.990   2.285
 6752WAT     H220499   7.477   5.856   2.376
 6753WAT      O20500   8.454   2.681   4.570
 6753WAT     H120501   8.445   2.675   4.471
 6753WAT     H220502   8.522   2.752   4.593
 6754WAT      O20503   4.925   9.562   6.569
 6754WAT     H120504   4.876   9.649   6.583
 6754WAT     H220505   4.884   9.513   6.492
 6755WAT      O20506   3.670   2.657   7.265
 6755WAT     H120507   3.714   2.569   7.244
 6755WAT     H220508   3.616   2.648   7.348
 6756WAT      O20509   1.822   5.997   7.148
 6756WAT     H120510   1.787   5.920   7.201
 6756WAT     H220511   1.922   5.991   7.142
 6757WAT      O20512   4.761   1.018   8.286
 6757WAT     H120513   4.822   1.095   8.265
 6757WAT     H220514   4.668   1.041   8.257
 6758WAT      O20515   1.106   0.918   4.599
 6758WAT     H120516   1.164   0.892   4.676
 6758WAT     H220517   1.104   1.017   4.590
 6759WAT      O20518   8.454   8.715   8.984
 6759WAT     H120519   8.372   8.770   8.970
 6759WAT     H220520   8.461   8.690   9.080
 6760WAT      O20521   6.635   3.396   3.149
 6760WAT     H120522   6.648   3.325   3.219
 6760WAT     H220523   6.606   3.481   3.193
 6761WAT      O20524   2.432   0.343   6.522
 6761WAT     H120525   2.509   0.328   6.583
 6761WAT     H220526   2.359   0.390   6.573
 6762WAT      O20527   7.434   1.437   6.879
 6762WAT     H120528   7.373   1.365   6.847
 6762WAT     H220529   7.446   1.430   6.978
 6763WAT      O20530   5.114   8.123   7.524
 6763WAT     H120531   5.037   8.059   7.516
 6763WAT     H220532   5.161   8.108   7.611
 6764WAT      O20533   3.363   1.531   5.704
 6764WAT     H120534   3.343   1.628   5.719
 6764WAT     H220535   3.460   1.521   5.680
 6765WAT      O20536   4.903   3.831   2.974
 6765WAT     H120537   4.971   3.823   3.047
 6765WAT     H220538   4.868   3.740   2.951
 6766WAT      O20539   9.864   5.433   7.108
 6766WAT     H120540   9.874   5.335   7.095
 6766WAT     H220541   9.905   5.482   7.030
 6767WAT      O20542   5.515   6.476   7.226
 6767WAT     H120543   5.536   6.512   7.136
 6767WAT     H220544   5.591   6.420   7.259
 6768WAT      O20545   1.792   7.426   5.411
 6768WAT     H120546   1.708   7.477   5.389
 6768WAT     H220547   1.780   7.330   5.388
 6769WAT      O20548   6.768   7.346   5.736
 6769WAT     H120549   6.834   7.272   5.753
 6769WAT     H220550   6.801   7.430   5.778
 6770WAT      O20551   0.655   7.874   0.874
 6770WAT     H120552   0.723   7.859   0.946
 6770WAT     H220553   0.669   7.807   0.802
 6771WAT      O20554   4.560   7.450   6.965
 6771WAT     H120555   4.513   7.529   7.004
 6771WAT     H220556   4.566   7.377   7.033
 6772WAT      O20557   3.926   4.934   8.925
 6772WAT     H120558   3.983   4.936   9.007
 6772WAT     H220559   3.834   4.966   8.947
 6773WAT      O20560   0.261   2.552   0.541
 6773WAT     H120561   0.260   2.454   0.520
 6773WAT     H220562   0.342   2.595   0.501
 6774WAT      O20563   3.223   8.704   7.773
 6774WAT     H120564   3.278   8.685   7.855
 6774WAT     H220565   3.129   8.724   7.799
 6775WAT      O20566   4.288   4.860   2.398
 6775WAT     H120567   4.388   4.853   2.388
 6775WAT     H220568   4.246   4.853   2.307
 6776WAT      O20569   5.672   0.290   4.186
 6776WAT     H120570   5.754   0.307   4.241
 6776WAT     H220571   5.621   0.213   4.225
 6777WAT      O20572   8.554   2.405   2.320
 6777WAT     H120573   8.645   2.427   2.285
 6777WAT     H220574   8.523   2.477   2.382
 6778WAT      O20575   9.039   7.387   2.746
 6778WAT     H120576   8.976   7.385   2.668
 6778WAT     H220577   9.028   7.304   2.800
 6779WAT      O20578   4.454   2.634   3.886
 6779WAT     H120579   4.490   2.555   3.835
 6779WAT     H220580   4.530   2.686   3.925
 6780WAT      O20581   3.020   0.403   8.256
 6780WAT     H120582   2.985   0.475   8.197
 6780WAT     H220583   2.989   0.419   8.350
 6781WAT      O20584   5.595   1.221   4.226
 6781WAT     H120585   5.653   1.301   4.216
 6781WAT     H220586   5.499   1.247   4.217
 6782WAT      O20587   2.074   5.783   6.126
 6782WAT     H120588   2.068   5.878   6.096
 6782WAT     H220589   2.158   5.742   6.090
 6783WAT      O20590   5.787   6.566   9.623
 6783WAT     H120591   5.881   6.578   9.592
 6783WAT     H220592   5.785   6.504   9.702
 6784WAT      O20593   1.492   6.551   2.456
 6784WAT     H120594   1.461   6.645   2.464
 6784WAT     H220595   1.550   6.541   2.375
 6785WAT      O20596   1.653   3.304   1.652
 6785WAT     H120597   1.605   3.340   1.732
 6785WAT     H220598   1.608   3.220   1.621
 6786WAT      O20599   0.663   4.232   8.748
 6786WAT     H120600   0.653   4.142   8.790
 6786WAT     H220601   0.759   4.260   8.753
 6787WAT      O20602   9.778   7.310   5.566
 6787WAT     H120603   9.792   7.243   5.639
 6787WAT     H220604   9.771   7.262   5.478
 6788WAT      O20605   8.424   3.874   0.370
 6788WAT     H120606   8.330   3.905   0.355
 6788WAT     H220607   8.487   3.945   0.337
 6789WAT      O20608   3.390   2.657   1.279
 6789WAT     H120609   3.385   2.631   1.182
 6789WAT     H220610   3.483   2.683   1.302
 6790WAT      O20611   0.024   8.353   6.025
 6790WAT     H120612   0.055   8.424   6.088
 6790WAT     H220613  -0.003   8.395   5.939
 6791WAT      O20614   7.636   4.977   3.203
 6791WAT     H120615   7.665   4.984   3.299
 6791WAT     H220616   7.633   5.068   3.163
 6792WAT      O20617   4.758   4.012   3.785
 6792WAT     H120618   4.680   3.964   3.826
 6792WAT     H220619   4.831   4.020   3.852
 6793WAT      O20620   5.608   2.668   5.085
 6793WAT     H120621   5.597   2.576   5.048
 6793WAT     H220622   5.551   2.679   5.166
 6794WAT      O20623   2.983   3.317   7.876
 6794WAT     H120624   2.986   3.304   7.777
 6794WAT     H220625   2.997   3.414   7.897
 6795WAT      O20626   1.006   1.374   7.890
 6795WAT     H120627   1.010   1.356   7.792
 6795WAT     H220628   0.927   1.432   7.910
 6796WAT      O20629   3.191   6.267   4.902
 6796WAT     H120630   3.267   6.331   4.910
 6796WAT     H220631   3.120   6.307   4.845
 6797WAT      O20632   0.609   3.212   3.786
 6797WAT     H120633   0.558   3.252   3.862
 6797WAT     H220634   0.605   3.112   3.793
 6798WAT      O20635   5.470   1.018   9.404
 6798WAT     H120636   5.525   0.955   9.349
 6798WAT     H220637   5.523   1.048   9.483
 6799WAT      O20638   0.702   0.997   8.979
 6799WAT     H120639   0.724   0.942   9.060
 6799WAT     H220640   0.783   1.048   8.950
 6800WAT      O20641   3.903   5.796   8.586
 6800WAT     H120642   3.853   5.774   8.670
 6800WAT     H220643   3.963   5.719   8.563
 6801WAT      O20644   0.119   3.473   0.013
 6801WAT     H120645   0.053   3.495   0.085
 6801WAT     H220646   0.162   3.557  -0.019
 6802WAT      O20647   7.747   8.208   8.091
 6802WAT     H120648   7.834   8.228   8.045
 6802WAT     H220649   7.672   8.251   8.041
 6803WAT      O20650   7.949   5.448   1.361
 6803WAT     H120651   8.035   5.400   1.341
 6803WAT     H220652   7.903   5.404   1.438
 6804WAT      O20653   7.643   5.392   2.044
 6804WAT     H120654   7.642   5.358   2.138
 6804WAT     H220655   7.629   5.316   1.981
 6805WAT      O20656   3.002   1.289   2.158
 6805WAT     H120657   2.989   1.288   2.059
 6805WAT     H220658   2.991   1.197   2.194
 6806WAT      O20659   2.080   6.357   2.096
 6806WAT     H120660   2.082   6.439   2.153
 6806WAT     H220661   2.020   6.289   2.137
 6807WAT      O20662   0.091   3.057   5.248
 6807WAT     H120663   0.190   3.069   5.245
 6807WAT     H220664   0.055   3.057   5.154
 6808WAT      O20665   0.968   1.865   6.115
 6808WAT     H120666   0.937   1.886   6.023
 6808WAT     H220667   0.890   1.834   6.170
 6809WAT      O20668   3.861   9.113   0.773
 6809WAT     H120669   3.898   9.031   0.730
 6809WAT     H220670   3.932   9.183   0.776
 6810WAT      O20671   0.360   2.989   2.500
 6810WAT     H120672   0.440   2.969   2.443
 6810WAT     H220673   0.380   2.965   2.595
 6811WAT      O20674   3.903   3.319   4.699
 6811WAT     H120675   3.953   3.289   4.618
 6811WAT     H220676   3.806   3.329   4.676
 6812WAT      O20677   7.632   3.201   7.106
 6812WAT     H120678   7.539   3.227   7.080
 6812WAT     H220679   7.679   3.279   7.148
 6813WAT      O20680   5.703   2.810   1.903
 6813WAT     H120681   5.661   2.778   1.818
 6813WAT     H220682   5.798   2.779   1.907
 6814WAT      O20683   2.046   1.865   4.133
 6814WAT     H120684   1.978   1.935   4.155
 6814WAT     H220685   2.003   1.775   4.134
 6815WAT      O20686   8.783   1.217   1.655
 6815WAT     H120687   8.861   1.154   1.659
 6815WAT     H220688   8.769   1.259   1.744
 6816WAT      O20689   6.470   5.619   0.430
 6816WAT     H120690   6.549   5.563   0.407
 6816WAT     H220691   6.445   5.606   0.526
 6817WAT      O20692   9.404   3.920   0.620
 6817WAT     H120693   9.331   3.880   0.565
 6817WAT     H220694   9.472   3.961   0.559
 6818WAT      O20695   5.913   0.005   1.995
 6818WAT     H120696   5.858   0.083   1.966
 6818WAT     H220697   6.009   0.032   1.999
 6819WAT      O20698   5.063   3.825   4.461
 6819WAT     H120699   5.137   3.891   4.475
 6819WAT     H220700   4.975   3.871   4.472
 6820WAT      O20701   8.105   8.197   0.279
 6820WAT     H120702   8.125   8.139   0.357
 6820WAT     H220703   8.152   8.162   0.198
 6821WAT      O20704   3.040   3.868   4.559
 6821WAT     H120705   3.034   3.790   4.622
 6821WAT     H220706   3.066   3.950   4.611
 6822WAT      O20707   4.921   9.437   0.125
 6822WAT     H120708   4.923   9.356   0.184
 6822WAT     H220709   5.014   9.461   0.098
 6823WAT      O20710   4.318   6.615   4.645
 6823WAT     H120711   4.404   6.574   4.674
 6823WAT     H220712   4.320   6.629   4.545
 6824WAT      O20713   6.478   0.695   9.745
 6824WAT     H120714   6.421   0.743   9.812
 6824WAT     H220715   6.419   0.648   9.679
 6825WAT      O20716   7.083   5.132   2.390
 6825WAT     H120717   7.164   5.083   2.357
 6825WAT     H220718   7.017   5.141   2.316
 6826WAT      O20719   6.661   6.916   8.449
 6826WAT     H120720   6.703   6.902   8.539
 6826WAT     H220721   6.614   6.832   8.422
 6827WAT      O20722   5.224   4.252   5.909
 6827WAT     H120723   5.210   4.249   6.008
 6827WAT     H220724   5.200   4.344   5.876
 6828WAT      O20725   7.453   5.315   0.937
 6828WAT     H120726   7.460   5.378   1.015
 6828WAT     H220727   7.414   5.228   0.968
 6829WAT      O20728   8.466   5.414   4.430
 6829WAT     H120729   8.369   5.429   4.414
 6829WAT     H220730   8.482   5.401   4.528
 6830WAT      O20731   2.316   1.864   4.553
 6830WAT     H120732   2.300   1.961   4.574
 6830WAT     H220733   2.409   1.852   4.518
 6831WAT      O20734   7.764   6.929   4.192
 6831WAT     H120735   7.819   6.845   4.198
 6831WAT     H220736   7.785   6.989   4.269
 6832WAT      O20737   3.485   3.969   0.382
 6832WAT     H120738   3.415   3.974   0.453
 6832WAT     H220739   3.575   3.986   0.422
 6833WAT      O20740   1.385   8.445   7.642
 6833WAT     H120741   1.353   8.392   7.720
 6833WAT     H220742   1.309   8.458   7.577
 6834WAT      O20743   8.958   5.194   1.088
 6834WAT     H120744   9.021   5.220   1.161
 6834WAT     H220745   8.969   5.096   1.069
 6835WAT      O20746   5.009   8.411   9.711
 6835WAT     H120747   4.972   8.472   9.641
 6835WAT     H220748   5.059   8.336   9.668
 6836WAT      O20749   7.399   0.276   4.888
 6836WAT     H120750   7.477   0.292   4.948
 6836WAT     H220751   7.410   0.189   4.840
 6837WAT      O20752   1.572   8.666   2.559
 6837WAT     H120753   1.508   8.738   2.532
 6837WAT     H220754   1.533   8.615   2.636
 6838WAT      O20755   8.816   7.376   1.584
 6838WAT     H120756   8.871   7.341   1.508
 6838WAT     H220757   8.827   7.315   1.663
 6839WAT      O20758   2.022   9.627   2.115
 6839WAT     H120759   2.027   9.612   2.214
 6839WAT     H220760   1.929   9.609   2.083
 6840WAT      O20761   0.431   7.261   7.192
 6840WAT     H120762   0.394   7.175   7.226
 6840WAT     H220763   0.410   7.271   7.094
 6841WAT      O20764   8.132   2.106   9.028
 6841WAT     H120765   8.038   2.137   9.018
 6841WAT     H220766   8.164   2.127   9.121
 6842WAT      O20767   6.525   4.875   7.789
 6842WAT     H120768   6.436   4.897   7.828
 6842WAT     H220769   6.597   4.924   7.838
 6843WAT      O20770   3.675   0.894   2.700
 6843WAT     H120771   3.627   0.808   2.719
 6843WAT     H220772   3.665   0.917   2.603
 6844WAT      O20773   5.939   8.154   8.662
 6844WAT     H120774   5.987   8.241   8.672
 6844WAT     H220775   5.892   8.152   8.573
 6845WAT      O20776   7.033   5.578   9.513
 6845WAT     H120777   6.954   5.538   9.468
 6845WAT     H220778   7.074   5.511   9.575
 6846WAT      O20779   0.385   4.011   0.156
 6846WAT     H120780   0.369   4.022   0.058
 6846WAT     H220781   0.470   4.058   0.181
 6847WAT      O20782   7.400   4.996   1.721
 6847WAT     H120783   7.319   5.054   1.730
 6847WAT     H220784   7.408   4.938   1.802
 6848WAT      O20785   1.036   4.309   3.264
 6848WAT     H120786   0.940   4.280   3.270
 6848WAT     H220787   1.091   4.256   3.328
 6849WAT      O20788   7.891   2.816   7.774
 6849WAT     H120789   7.987   2.790   7.767
 6849WAT     H220790   7.884   2.915   7.786
 6850WAT      O20791   5.500   2.999   1.911
 6850WAT     H120792   5.410   2.956   1.907
 6850WAT     H220793   5.571   2.928   1.916
 6851WAT      O20794   1.805   0.302   9.028
 6851WAT     H120795   1.781   0.343   9.116
 6851WAT     H220796   1.788   0.204   9.031
 6852WAT      O20797   2.173   6.991   1.297
 6852WAT     H120798   2.218   6.902   1.289
 6852WAT     H220799   2.096   6.996   1.234
 6853WAT      O20800   3.949   1.844   0.959
 6853WAT     H120801   4.042   1.827   0.989
 6853WAT     H220802   3.950   1.895   0.873
 6854WAT      O20803   8.875   1.615   5.699
 6854WAT     H120804   8.841   1.633   5.792
 6854WAT     H220805   8.964   1.571   5.705
 6855WAT      O20806   4.087   6.859   4.372
 6855WAT     H120807   4.096   6.784   4.306
 6855WAT     H220808   3.990   6.872   4.394
 6856WAT      O20809   2.431   0.852   4.953
 6856WAT     H120810   2.442   0.805   4.866
 6856WAT     H220811   2.518   0.896   4.978
 6857WAT      O20812   4.276   2.570   1.992
 6857WAT     H120813   4.304   2.518   2.073
 6857WAT     H220814   4.356   2.606   1.946
 6858WAT      O20815   1.913   3.313   3.001
 6858WAT     H120816   1.979   3.388   2.991
 6858WAT     H220817   1.872   3.293   2.912
 6859WAT      O20818   8.007   0.643   2.425
 6859WAT     H120819   8.103   0.635   2.397
 6859WAT     H220820   7.956   0.564   2.390
 6860WAT      O20821   9.042   7.997   3.455
 6860WAT     H120822   8.990   8.079   3.481
 6860WAT     H220823   9.133   8.024   3.423
 6861WAT      O20824   0.332   2.843   8.299
 6861WAT     H120825   0.313   2.750   8.331
 6861WAT     H220826   0.333   2.906   8.377
 6862WAT      O20827   0.010   4.470   4.782
 6862WAT     H120828   0.059   4.388   4.812
 6862WAT     H220829   0.052   4.504   4.697
 6863WAT      O20830   8.285   2.437   6.643
 6863WAT     H120831   8.255   2.388   6.561
 6863WAT     H220832   8.222   2.512   6.662
 6864WAT      O20833   6.825   6.340   1.152
 6864WAT     H120834   6.820   6.387   1.240
 6864WAT     H220835   6.796   6.245   1.164
 6865WAT      O20836   0.908   0.543   6.869
 6865WAT     H120837   0.983   0.579   6.814
 6865WAT     H220838   0.822   0.581   6.837
 6866WAT      O20839   5.002   8.384   8.321
 6866WAT     H120840   4.939   8.395   8.397
 6866WAT     H220841   5.023   8.473   8.281
 6867WAT      O20842   8.508   6.772   9.814
 6867WAT     H120843   8.461   6.767   9.903
 6867WAT     H220844   8.452   6.727   9.745
 6868WAT      O20845   3.423   0.890   8.510
 6868WAT     H120846   3.388   0.854   8.423
 6868WAT     H220847   3.497   0.954   8.491
 6869WAT      O20848   2.355   0.019   6.808
 6869WAT     H120849   2.299   0.057   6.733
 6869WAT     H220850   2.364   0.087   6.880
 6870WAT      O20851   8.095   8.577   7.037
 6870WAT     H120852   8.008   8.544   7.073
 6870WAT     H220853   8.092   8.577   6.937
 6871WAT      O20854   9.689   1.306   1.146
 6871WAT     H120855   9.666   1.382   1.206
 6871WAT     H220856   9.753   1.337   1.075
 6872WAT      O20857   4.650   0.921   7.844
 6872WAT     H120858   4.644   1.014   7.880
 6872WAT     H220859   4.736   0.880   7.872
 6873WAT      O20860   9.227   8.100   2.463
 6873WAT     H120861   9.148   8.094   2.525
 6873WAT     H220862   9.202   8.155   2.383
 6874WAT      O20863   9.803   2.031   1.050
 6874WAT     H120864   9.719   1.978   1.034
 6874WAT     H220865   9.850   2.045   0.963
 6875WAT      O20866   5.955   8.194   3.207
 6875WAT     H120867   6.054   8.202   3.198
 6875WAT     H220868   5.912   8.201   3.117
 6876WAT      O20869   3.620   7.584   8.537
 6876WAT     H120870   3.661   7.496   8.511
 6876WAT     H220871   3.522   7.582   8.514
 6877WAT      O20872   3.249   4.065   4.986
 6877WAT     H120873   3.235   3.998   5.059
 6877WAT     H220874   3.298   4.144   5.023
 6878WAT      O20875   4.968   8.989   2.872
 6878WAT     H120876   4.947   8.893   2.857
 6878WAT     H220877   4.980   9.006   2.970
 6879WAT      O20878   8.458   6.308   1.319
 6879WAT     H120879   8.518   6.366   1.263
 6879WAT     H220880   8.504   6.222   1.338
 6880WAT      O20881   1.907   8.443   9.671
 6880WAT     H120882   1.903   8.344   9.656
 6880WAT     H220883   1.846   8.468   9.746
 6881WAT      O20884   1.398   8.618   7.005
 6881WAT     H120885   1.449   8.630   7.090
 6881WAT     H220886   1.309   8.663   7.013
 6882WAT      O20887   8.297   0.535   8.553
 6882WAT     H120888   8.344   0.614   8.592
 6882WAT     H220889   8.304   0.458   8.617
 6883WAT      O20890   3.848   8.154   8.672
 6883WAT     H120891   3.935   8.123   8.633
 6883WAT     H220892   3.774   8.130   8.610
 6884WAT      O20893   5.706   1.514   5.132
 6884WAT     H120894   5.638   1.495   5.203
 6884WAT     H220895   5.664   1.569   5.060
 6885WAT      O20896   5.488   3.452   2.467
 6885WAT     H120897   5.494   3.367   2.415
 6885WAT     H220898   5.516   3.436   2.561
 6886WAT      O20899   7.420   2.977   8.459
 6886WAT     H120900   7.407   3.064   8.506
 6886WAT     H220901   7.484   2.920   8.510
 6887WAT      O20902   1.123   5.048   7.973
 6887WAT     H120903   1.025   5.029   7.968
 6887WAT     H220904   1.174   4.979   7.921
 6888WAT      O20905   6.477   3.193   8.320
 6888WAT     H120906   6.515   3.197   8.227
 6888WAT     H220907   6.452   3.285   8.349
 6889WAT      O20908   1.412   5.282   4.554
 6889WAT     H120909   1.331   5.223   4.547
 6889WAT     H220910   1.384   5.378   4.549
 6890WAT      O20911   9.399   0.779   1.856
 6890WAT     H120912   9.459   0.829   1.918
 6890WAT     H220913   9.307   0.774   1.896
 6891WAT      O20914   7.381   7.994   1.324
 6891WAT     H120915   7.328   8.075   1.351
 6891WAT     H220916   7.442   7.967   1.399
 6892WAT      O20917   6.211   7.397   5.382
 6892WAT     H120918   6.230   7.491   5.409
 6892WAT     H220919   6.289   7.339   5.404
 6893WAT      O20920   1.302   1.373   7.677
 6893WAT     H120921   1.218   1.416   7.643
 6893WAT     H220922   1.375   1.442   7.679
 6894WAT      O20923   2.756   0.989   3.737
 6894WAT     H120924   2.763   0.983   3.836
 6894WAT     H220925   2.671   1.036   3.712
 6895WAT      O20926   7.313   5.196   9.226
 6895WAT     H120927   7.372   5.217   9.148
 6895WAT     H220928   7.362   5.135   9.289
 6896WAT      O20929   4.248   4.807   4.227
 6896WAT     H120930   4.226   4.731   4.288
 6896WAT     H220931   4.247   4.776   4.132
 6897WAT      O20932   6.621   1.467   0.513
 6897WAT     H120933   6.678   1.386   0.528
 6897WAT     H220934   6.531   1.438   0.481
 6898WAT      O20935   2.600   5.954   0.801
 6898WAT     H120936   2.531   5.883   0.813
 6898WAT     H220937   2.642   5.975   0.889
 6899WAT      O20938   9.879   3.011   3.918
 6899WAT     H120939   9.816   2.966   3.981
 6899WAT     H220940   9.829   3.077   3.862
 6900WAT      O20941   6.400   4.436   0.010
 6900WAT     H120942   6.378   4.430   0.108
 6900WAT     H220943   6.433   4.348  -0.022
 6901WAT      O20944   0.749   4.528   0.742
 6901WAT     H120945   0.655   4.516   0.708
 6901WAT     H220946   0.792   4.604   0.693
 6902WAT      O20947   1.267   5.343   6.795
 6902WAT     H120948   1.194   5.375   6.856
 6902WAT     H220949   1.248   5.249   6.768
 6903WAT      O20950   4.721   6.616   8.748
 6903WAT     H120951   4.660   6.691   8.724
 6903WAT     H220952   4.702   6.538   8.689
 6904WAT      O20953   6.462   6.178   9.498
 6904WAT     H120954   6.449   6.081   9.475
 6904WAT     H220955   6.381   6.230   9.472
 6905WAT      O20956   7.592   3.311   4.468
 6905WAT     H120957   7.522   3.246   4.497
 6905WAT     H220958   7.679   3.263   4.458
 6906WAT      O20959   3.249   9.306   1.594
 6906WAT     H120960   3.152   9.286   1.614
 6906WAT     H220961   3.257   9.344   1.502
 6907WAT      O20962   5.782   7.358   8.053
 6907WAT     H120963   5.845   7.432   8.029
 6907WAT     H220964   5.714   7.391   8.119
 6908WAT      O20965   8.328   2.752   2.965
 6908WAT     H120966   8.365   2.755   2.872
 6908WAT     H220967   8.396   2.713   3.027
 6909WAT      O20968   1.060   1.728   3.346
 6909WAT     H120969   1.044   1.631   3.364
 6909WAT     H220970   0.975   1.772   3.318
 6910WAT      O20971   8.108   6.398   6.989
 6910WAT     H120972   8.014   6.364   6.984
 6910WAT     H220973   8.168   6.338   6.938
 6911WAT      O20974   2.065   3.441   6.802
 6911WAT     H120975   2.083   3.398   6.714
 6911WAT     H220976   1.967   3.440   6.821
 6912WAT      O20977   8.176   7.035   7.967
 6912WAT     H120978   8.111   7.103   8.000
 6912WAT     H220979   8.245   7.080   7.911
 6913WAT      O20980   8.458   9.437   7.025
 6913WAT     H120981   8.527   9.409   6.958
 6913WAT     H220982   8.500   9.499   7.091
 6914WAT      O20983   1.618   3.459   4.987
 6914WAT     H120984   1.705   3.421   4.957
 6914WAT     H220985   1.551   3.386   4.998
 6915WAT      O20986   9.793   7.298   8.351
 6915WAT     H120987   9.717   7.311   8.415
 6915WAT     H220988   9.767   7.232   8.281
 6916WAT      O20989   6.158   7.159   7.744
 6916WAT     H120990   6.099   7.233   7.712
 6916WAT     H220991   6.216   7.128   7.668
 6917WAT      O20992   7.761   5.002   6.324
 6917WAT     H120993   7.751   5.077   6.390
 6917WAT     H220994   7.678   4.994   6.269
 6918WAT      O20995   3.136   9.293   2.223
 6918WAT     H120996   3.086   9.213   2.254
 6918WAT     H220997   3.176   9.276   2.133
 6919WAT      O20998   4.711   8.016   3.255
 6919WAT     H120999   4.756   8.013   3.166
 6919WAT     H221000   4.666   7.928   3.273
 6920WAT      O21001   0.184   6.573   8.586
 6920WAT     H121002   0.113   6.611   8.645
 6920WAT     H221003   0.230   6.497   8.633
 6921WAT      O21004   7.662   9.680   0.418
 6921WAT     H121005   7.736   9.742   0.444
 6921WAT     H221006   7.574   9.726   0.433
 6922WAT      O21007   4.979   0.810   0.012
 6922WAT     H121008   4.963   0.767  -0.076
 6922WAT     H221009   4.978   0.741   0.084
 6923WAT      O21010   2.913   4.030   5.583
 6923WAT     H121011   2.960   3.980   5.510
 6923WAT     H221012   2.952   4.121   5.593
 6924WAT      O21013   8.301   3.035   6.456
 6924WAT     H121014   8.363   2.973   6.409
 6924WAT     H221015   8.304   3.017   6.555
 6925WAT      O21016   6.568   8.289   5.144
 6925WAT     H121017   6.524   8.259   5.059
 6925WAT     H221018   6.526   8.242   5.222
 6926WAT      O21019   8.943   1.632   3.632
 6926WAT     H121020   8.851   1.645   3.596
 6926WAT     H221021   9.010   1.650   3.559
 6927WAT      O21022   7.794   9.507   2.319
 6927WAT     H121023   7.736   9.447   2.263
 6927WAT     H221024   7.801   9.597   2.276
 6928WAT      O21025   7.260   3.685   9.016
 6928WAT     H121026   7.259   3.631   8.932
 6928WAT     H221027   7.259   3.782   8.992
 6929WAT      O21028   1.609   8.754   0.311
 6929WAT     H121029   1.618   8.825   0.241
 6929WAT     H221030   1.519   8.711   0.305
 6930WAT      O21031   2.398   6.689   2.899
 6930WAT     H121032   2.486   6.725   2.867
 6930WAT     H221033   2.405   6.589   2.908
 6931WAT      O21034   9.629   7.982   5.482
 6931WAT     H121035   9.581   7.948   5.402
 6931WAT     H221036   9.662   7.906   5.537
 6932WAT      O21037   6.514   7.945   9.014
 6932WAT     H121038   6.537   7.981   8.923
 6932WAT     H221039   6.594   7.953   9.074
 6933WAT      O21040   0.730   8.564   2.245
 6933WAT     H121041   0.817   8.530   2.281
 6933WAT     H221042   0.737   8.662   2.228
 6934WAT      O21043   1.711   3.533   9.658
 6934WAT     H121044   1.653   3.590   9.715
 6934WAT     H221045   1.657   3.496   9.582
 6935WAT      O21046   4.119   7.277   7.259
 6935WAT     H121047   4.092   7.246   7.168
 6935WAT     H221048   4.149   7.198   7.313
 6936WAT      O21049   1.483   3.778   3.272
 6936WAT     H121050   1.519   3.808   3.184
 6936WAT     H221051   1.412   3.841   3.303
 6937WAT      O21052   5.284   6.838   8.003
 6937WAT     H121053   5.267   6.898   7.925
 6937WAT     H221054   5.219   6.860   8.076
 6938WAT      O21055   8.412   7.552   3.096
 6938WAT     H121056   8.361   7.475   3.134
 6938WAT     H221057   8.388   7.565   3.000
 6939WAT      O21058   8.834   7.887   4.037
 6939WAT     H121059   8.740   7.921   4.047
 6939WAT     H221060   8.888   7.953   3.984
 6940WAT      O21061   4.436   9.796   1.545
 6940WAT     H121062   4.517   9.852   1.530
 6940WAT     H221063   4.455   9.702   1.516
 6941WAT      O21064   1.173   4.464   6.690
 6941WAT     H121065   1.230   4.404   6.746
 6941WAT     H221066   1.229   4.503   6.616
 6942WAT      O21067   0.310   7.257   8.836
 6942WAT     H121068   0.252   7.211   8.903
 6942WAT     H221069   0.283   7.353   8.830
 6943WAT      O21070   3.240   4.348   3.435
 6943WAT     H121071   3.301   4.398   3.497
 6943WAT     H221072   3.269   4.252   3.431
 6944WAT      O21073   6.867   9.578   7.682
 6944WAT     H121074   6.952   9.598   7.731
 6944WAT     H221075   6.791   9.625   7.727
 6945WAT      O21076   4.007   2.846   4.749
 6945WAT     H121077   3.927   2.793   4.776
 6945WAT     H221078   4.023   2.835   4.651
 6946WAT      O21079   1.890   3.445   6.057
 6946WAT     H121080   1.876   3.346   6.057
 6946WAT     H221081   1.923   3.473   6.147
 6947WAT      O21082   4.456   2.251   7.121
 6947WAT     H121083   4.478   2.154   7.115
 6947WAT     H221084   4.389   2.265   7.193
 6948WAT      O21085   7.596   3.861   4.759
 6948WAT     H121086   7.681   3.885   4.712
 6948WAT     H221087   7.612   3.783   4.819
 6949WAT      O21088   3.706   7.234   8.602
 6949WAT     H121089   3.663   7.303   8.661
 6949WAT     H221090   3.723   7.274   8.511
 6950WAT      O21091   6.280   7.069   5.939
 6950WAT     H121092   6.218   7.097   5.865
 6950WAT     H221093   6.374   7.066   5.904
 6951WAT      O21094   9.340   7.979   8.538
 6951WAT     H121095   9.271   8.051   8.530
 6951WAT     H221096   9.428   8.019   8.561
 6952WAT      O21097   3.231   1.282   0.655
 6952WAT     H121098   3.266   1.218   0.587
 6952WAT     H221099   3.244   1.375   0.623
 6953WAT      O21100   2.150   9.383   4.315
 6953WAT     H121101   2.188   9.343   4.232
 6953WAT     H221102   2.147   9.483   4.306
 6954WAT      O21103   6.014   8.818   0.084
 6954WAT     H121104   6.099   8.859   0.117
 6954WAT     H221105   5.967   8.883   0.024
 6955WAT      O21106   8.026   2.841   1.579
 6955WAT     H121107   8.044   2.930   1.538
 6955WAT     H221108   8.113   2.793   1.592
 6956WAT      O21109   6.113   0.742   3.814
 6956WAT     H121110   6.066   0.673   3.869
 6956WAT     H221111   6.110   0.715   3.718
 6957WAT      O21112   5.378   7.897   3.504
 6957WAT     H121113   5.323   7.861   3.579
 6957WAT     H221114   5.418   7.821   3.452
 6958WAT      O21115   1.296   6.902   3.197
 6958WAT     H121116   1.368   6.966   3.224
 6958WAT     H221117   1.330   6.808   3.203
 6959WAT      O21118   6.295   1.580   9.385
 6959WAT     H121119   6.285   1.611   9.291
 6959WAT     H221120   6.209   1.593   9.434
 6960WAT      O21121   0.122   7.828   0.377
 6960WAT     H121122   0.168   7.783   0.453
 6960WAT     H221123   0.128   7.771   0.295
 6961WAT      O21124   5.942   1.813   4.671
 6961WAT     H121125   5.963   1.752   4.747
 6961WAT     H221126   5.988   1.781   4.588
 6962WAT      O21127   5.549   5.664   5.654
 6962WAT     H121128   5.539   5.631   5.561
 6962WAT     H221129   5.473   5.631   5.710
 6963WAT      O21130   5.392   6.168   5.563
 6963WAT     H121131   5.355   6.084   5.603
 6963WAT     H221132   5.414   6.151   5.466
 6964WAT      O21133   9.234   4.366   8.607
 6964WAT     H121134   9.152   4.373   8.549
 6964WAT     H221135   9.253   4.455   8.648
 6965WAT      O21136   8.947   8.303   3.097
 6965WAT     H121137   8.886   8.342   3.165
 6965WAT     H221138   8.894   8.257   3.027
 6966WAT      O21139   0.257   4.616   0.662
 6966WAT     H121140   0.216   4.656   0.580
 6966WAT     H221141   0.186   4.604   0.732
 6967WAT      O21142   4.378   1.571   3.083
 6967WAT     H121143   4.444   1.645   3.071
 6967WAT     H221144   4.420   1.485   3.053
 6968WAT      O21145   2.573   9.075   6.980
 6968WAT     H121146   2.652   9.137   6.982
 6968WAT     H221147   2.603   8.985   6.948
 6969WAT      O21148   8.902   3.240   6.087
 6969WAT     H121149   8.832   3.296   6.130
 6969WAT     H221150   8.939   3.175   6.153
 6970WAT      O21151   6.979   2.194   8.456
 6970WAT     H121152   6.900   2.199   8.517
 6970WAT     H221153   6.971   2.261   8.383
 6971WAT      O21154   7.145   4.944   0.902
 6971WAT     H121155   7.125   4.846   0.890
 6971WAT     H221156   7.091   4.997   0.836
 6972WAT      O21157   9.294   8.696   7.273
 6972WAT     H121158   9.323   8.774   7.330
 6972WAT     H221159   9.263   8.730   7.185
 6973WAT      O21160   3.205   6.556   4.312
 6973WAT     H121161   3.269   6.557   4.235
 6973WAT     H221162   3.128   6.617   4.291
 6974WAT      O21163   9.680   5.259   3.873
 6974WAT     H121164   9.776   5.279   3.888
 6974WAT     H221165   9.671   5.185   3.805
 6975WAT      O21166   9.181   0.775   2.010
 6975WAT     H121167   9.159   0.840   2.083
 6975WAT     H221168   9.096   0.746   1.966
 6976WAT      O21169   1.829   7.933   5.907
 6976WAT     H121170   1.858   7.863   5.973
 6976WAT     H221171   1.790   8.011   5.956
 6977WAT      O21172   9.176   6.336   8.352
 6977WAT     H121173   9.125   6.422   8.358
 6977WAT     H221174   9.274   6.355   8.359
 6978WAT      O21175   2.345   2.032   2.519
 6978WAT     H121176   2.291   1.986   2.589
 6978WAT     H221177   2.284   2.082   2.458
 6979WAT      O21178   9.076   3.481   0.802
 6979WAT     H121179   9.089   3.465   0.704
 6979WAT     H221180   8.982   3.509   0.819
 6980WAT      O21181   6.379   2.910   4.362
 6980WAT     H121182   6.439   2.972   4.312
 6980WAT     H221183   6.425   2.821   4.373
 6981WAT      O21184   3.010   9.415   1.847
 6981WAT     H121185   2.966   9.483   1.789
 6981WAT     H221186   2.946   9.385   1.918
 6982WAT      O21187   5.456   3.009   6.136
 6982WAT     H121188   5.414   2.964   6.056
 6982WAT     H221189   5.503   3.092   6.106
 6983WAT      O21190   0.857   0.593   7.383
 6983WAT     H121191   0.781   0.583   7.318
 6983WAT     H221192   0.940   0.616   7.333
 6984WAT      O21193   3.311   7.261   1.877
 6984WAT     H121194   3.376   7.332   1.848
 6984WAT     H221195   3.250   7.240   1.802
 6985WAT      O21196   8.109   7.424   7.933
 6985WAT     H121197   8.177   7.407   7.861
 6985WAT     H221198   8.054   7.504   7.908
 6986WAT      O21199   3.550   2.949   6.799
 6986WAT     H121200   3.614   2.998   6.859
 6986WAT     H221201   3.477   3.011   6.770
 6987WAT      O21202   2.565   8.167   0.728
 6987WAT     H121203   2.477   8.178   0.773
 6987WAT     H221204   2.570   8.078   0.684
 6988WAT      O21205   3.085   3.494   0.608
 6988WAT     H121206   3.062   3.482   0.511
 6988WAT     H221207   3.171   3.447   0.628
 6989WAT      O21208   3.083   4.573   4.241
 6989WAT     H121209   3.015   4.502   4.261
 6989WAT     H221210   3.141   4.543   4.166
 6990WAT      O21211   3.453   5.513   1.247
 6990WAT     H121212   3.430   5.426   1.205
 6990WAT     H221213   3.494   5.574   1.179
 6991WAT      O21214   2.593   0.980   8.991
 6991WAT     H121215   2.651   0.939   9.062
 6991WAT     H221216   2.609   1.078   8.988
 6992WAT      O21217   6.173   1.307   7.115
 6992WAT     H121218   6.237   1.316   7.192
 6992WAT     H221219   6.092   1.363   7.132
 6993WAT      O21220   8.093   1.643   5.514
 6993WAT     H121221   8.161   1.583   5.557
 6993WAT     H221222   8.138   1.725   5.479
 6994WAT      O21223   3.256   2.460   7.184
 6994WAT     H121224   3.181   2.527   7.182
 6994WAT     H221225   3.325   2.485   7.116
 6995WAT      O21226   8.879   4.743   2.216
 6995WAT     H121227   8.961   4.757   2.159
 6995WAT     H221228   8.907   4.711   2.306
 6996WAT      O21229   5.498   6.077   7.393
 6996WAT     H121230   5.448   6.163   7.405
 6996WAT     H221231   5.449   6.020   7.326
 6997WAT      O21232   0.269   6.216   4.503
 6997WAT     H121233   0.191   6.162   4.536
 6997WAT     H221234   0.283   6.293   4.564
 6998WAT      O21235   6.201   6.916   5.514
 6998WAT     H121236   6.117   6.863   5.529
 6998WAT     H221237   6.217   6.926   5.416
 6999WAT      O21238   1.511   8.550   2.791
 6999WAT     H121239   1.432   8.586   2.842
 6999WAT     H221240   1.537   8.461   2.828
 7000WAT      O21241   8.317   7.085   1.260
 7000WAT     H121242   8.338   7.088   1.162
 7000WAT     H221243   8.331   6.992   1.294
 7001WAT      O21244   4.110   7.999   1.187
 7001WAT     H121245   4.102   7.945   1.103
 7001WAT     H221246   4.155   7.944   1.258
 7002WAT      O21247   5.371   3.532   0.791
 7002WAT     H121248   5.440   3.466   0.820
 7002WAT     H221249   5.342   3.511   0.698
 7003WAT      O21250   5.052   4.230   4.261
 7003WAT     H121251   5.099   4.144   4.240
 7003WAT     H221252   5.084   4.301   4.198
 7004WAT      O21253   6.362   3.084   2.696
 7004WAT     H121254   6.323   3.141   2.624
 7004WAT     H221255   6.385   3.141   2.775
 7005WAT      O21256   4.093   7.198   1.979
 7005WAT     H121257   4.114   7.100   1.971
 7005WAT     H221258   3.997   7.209   2.004
 7006WAT      O21259   8.446   6.261   1.669
 7006WAT     H121260   8.463   6.176   1.719
 7006WAT     H221261   8.417   6.239   1.576
 7007WAT      O21262   1.520   5.236   2.005
 7007WAT     H121263   1.478   5.169   1.943
 7007WAT     H221264   1.461   5.249   2.084
 7008WAT      O21265   1.800   0.004   5.591
 7008WAT     H121266   1.745   0.023   5.672
 7008WAT     H221267   1.781  -0.087   5.557
 7009WAT      O21268   8.286   3.370   7.268
 7009WAT     H121269   8.380   3.338   7.271
 7009WAT     H221270   8.224   3.295   7.291
 7010WAT      O21271   6.204   8.134   0.292
 7010WAT     H121272   6.231   8.111   0.198
 7010WAT     H221273   6.190   8.233   0.298
 7011WAT      O21274   6.885   6.568   7.645
 7011WAT     H121275   6.891   6.592   7.548
 7011WAT     H221276   6.875   6.652   7.699
 7012WAT      O21277   1.100   5.731   0.773
 7012WAT     H121278   1.102   5.632   0.761
 7012WAT     H221279   1.159   5.756   0.850
 7013WAT      O21280   5.942   9.223   6.915
 7013WAT     H121281   6.008   9.225   6.989
 7013WAT     H221282   5.915   9.317   6.891
 7014WAT      O21283   1.721   0.861   7.965
 7014WAT     H121284   1.782   0.782   7.968
 7014WAT     H221285   1.756   0.928   7.901
 7015WAT      O21286   7.331   7.530   1.994
 7015WAT     H121287   7.259   7.576   2.045
 7015WAT     H221288   7.377   7.596   1.935
 7016WAT      O21289   8.076   0.077   2.720
 7016WAT     H121290   7.981   0.071   2.750
 7016WAT     H221291   8.079   0.086   2.621
 7017WAT      O21292   0.868   1.272   2.917
 7017WAT     H121293   0.945   1.215   2.888
 7017WAT     H221294   0.786   1.245   2.866
 7018WAT      O21295   8.584   8.612   0.956
 7018WAT     H121296   8.659   8.554   0.925
 7018WAT     H221297   8.603   8.645   1.049
 7019WAT      O21298   1.755   5.580   2.546
 7019WAT     H121299   1.844   5.625   2.552
 7019WAT     H221300   1.744   5.519   2.624
 7020WAT      O21301   9.554   0.954   5.020
 7020WAT     H121302   9.523   0.860   5.003
 7020WAT     H221303   9.643   0.952   5.065
 7021WAT      O21304   5.282   2.726   9.546
 7021WAT     H121305   5.378   2.712   9.571
 7021WAT     H221306   5.253   2.817   9.576
 7022WAT      O21307   8.110   1.993   0.398
 7022WAT     H121308   8.072   1.926   0.335
 7022WAT     H221309   8.143   1.947   0.480
 7023WAT      O21310   5.728   6.003   2.849
 7023WAT     H121311   5.631   5.985   2.866
 7023WAT     H221312   5.755   5.962   2.763
 7024WAT      O21313   3.410   1.057   8.880
 7024WAT     H121314   3.373   1.032   8.970
 7024WAT     H221315   3.343   1.035   8.810
 7025WAT      O21316   6.606   2.847   6.183
 7025WAT     H121317   6.681   2.793   6.144
 7025WAT     H221318   6.611   2.844   6.283
 7026WAT      O21319   8.630   8.740   4.697
 7026WAT     H121320   8.545   8.694   4.671
 7026WAT     H221321   8.617   8.839   4.693
 7027WAT      O21322   7.268   6.469   0.832
 7027WAT     H121323   7.190   6.454   0.894
 7027WAT     H221324   7.236   6.514   0.749
 7028WAT      O21325   2.632   2.370   2.551
 7028WAT     H121326   2.621   2.458   2.595
 7028WAT     H221327   2.544   2.337   2.517
 7029WAT      O21328   5.482   0.184   3.435
 7029WAT     H121329   5.426   0.243   3.493
 7029WAT     H221330   5.437   0.173   3.345
 7030WAT      O21331   7.715   1.087   6.488
 7030WAT     H121332   7.673   1.015   6.432
 7030WAT     H221333   7.791   1.128   6.437
 7031WAT      O21334   6.341   3.559   4.252
 7031WAT     H121335   6.371   3.468   4.224
 7031WAT     H221336   6.417   3.623   4.246
 7032WAT      O21337   0.246   4.663   6.442
 7032WAT     H121338   0.332   4.712   6.427
 7032WAT     H221339   0.263   4.564   6.440
 7033WAT      O21340   0.270   3.869   8.212
 7033WAT     H121341   0.174   3.894   8.225
 7033WAT     H221342   0.286   3.778   8.250
 7034WAT      O21343   3.236   5.688   0.573
 7034WAT     H121344   3.138   5.691   0.595
 7034WAT     H221345   3.272   5.598   0.596
 7035WAT      O21346   3.013   8.869   8.654
 7035WAT     H121347   3.015   8.770   8.660
 7035WAT     H221348   3.077   8.908   8.720
 7036WAT      O21349   8.630   0.864   6.926
 7036WAT     H121350   8.688   0.936   6.964
 7036WAT     H221351   8.560   0.905   6.867
 7037WAT      O21352   1.925   8.433   7.500
 7037WAT     H121353   1.998   8.493   7.468
 7037WAT     H221354   1.846   8.488   7.527
 7038WAT      O21355   3.882   2.272   8.908
 7038WAT     H121356   3.850   2.283   9.002
 7038WAT     H221357   3.804   2.261   8.847
 7039WAT      O21358   6.112   8.372   8.068
 7039WAT     H121359   6.124   8.282   8.110
 7039WAT     H221360   6.184   8.434   8.100
 7040WAT      O21361   3.095   8.654   3.622
 7040WAT     H121362   3.120   8.650   3.525
 7040WAT     H221363   3.001   8.685   3.631
 7041WAT      O21364   3.030   3.042   7.492
 7041WAT     H121365   3.025   3.003   7.400
 7041WAT     H221366   3.101   2.995   7.544
 7042WAT      O21367   9.563   3.571   7.177
 7042WAT     H121368   9.550   3.534   7.269
 7042WAT     H221369   9.564   3.496   7.110
 7043WAT      O21370   2.976   9.260   5.686
 7043WAT     H121371   3.033   9.190   5.729
 7043WAT     H221372   3.014   9.351   5.705
 7044WAT      O21373   2.466   8.895   7.528
 7044WAT     H121374   2.410   8.841   7.591
 7044WAT     H221375   2.558   8.905   7.566
 7045WAT      O21376   2.946   0.901   5.442
 7045WAT     H121377   2.867   0.948   5.482
 7045WAT     H221378   3.012   0.969   5.410
 7046WAT      O21379   0.631   5.248   0.986
 7046WAT     H121380   0.700   5.177   0.976
 7046WAT     H221381   0.644   5.294   1.074
 7047WAT      O21382   1.684   6.242   0.183
 7047WAT     H121383   1.708   6.265   0.088
 7047WAT     H221384   1.589   6.268   0.199
 7048WAT      O21385   9.321   3.715   3.977
 7048WAT     H121386   9.306   3.802   4.023
 7048WAT     H221387   9.418   3.691   3.982
 7049WAT      O21388   5.689   0.449   2.441
 7049WAT     H121389   5.612   0.502   2.473
 7049WAT     H221390   5.731   0.400   2.518
 7050WAT      O21391   2.836   8.734   0.036
 7050WAT     H121392   2.803   8.653  -0.013
 7050WAT     H221393   2.778   8.813   0.013
 7051WAT      O21394   8.099   2.799   6.832
 7051WAT     H121395   8.145   2.875   6.879
 7051WAT     H221396   8.124   2.713   6.876
 7052WAT      O21397   2.417   8.931   2.654
 7052WAT     H121398   2.327   8.887   2.655
 7052WAT     H221399   2.472   8.893   2.729
 7053WAT      O21400   5.283   0.831   9.352
 7053WAT     H121401   5.306   0.808   9.258
 7053WAT     H221402   5.344   0.904   9.385
 7054WAT      O21403   0.269   5.596   4.130
 7054WAT     H121404   0.200   5.524   4.138
 7054WAT     H221405   0.298   5.625   4.221
 7055WAT      O21406   5.876   4.282   2.069
 7055WAT     H121407   5.929   4.206   2.107
 7055WAT     H221408   5.878   4.277   1.969
 7056WAT      O21409   7.248   1.250   4.370
 7056WAT     H121410   7.294   1.162   4.380
 7056WAT     H221411   7.289   1.317   4.433
 7057WAT      O21412   5.554   9.642   7.658
 7057WAT     H121413   5.507   9.647   7.570
 7057WAT     H221414   5.627   9.710   7.661
 7058WAT      O21415   1.561   3.616   2.948
 7058WAT     H121416   1.504   3.562   3.010
 7058WAT     H221417   1.551   3.713   2.969
 7059WAT      O21418   6.178   8.547   9.804
 7059WAT     H121419   6.102   8.567   9.742
 7059WAT     H221420   6.260   8.596   9.774
 7060WAT      O21421   1.386   6.826   7.695
 7060WAT     H121422   1.316   6.785   7.636
 7060WAT     H221423   1.354   6.825   7.790
 7061WAT      O21424   3.317   4.061   0.885
 7061WAT     H121425   3.266   4.094   0.806
 7061WAT     H221426   3.263   4.076   0.968
 7062WAT      O21427   8.510   1.279   0.078
 7062WAT     H121428   8.429   1.236   0.119
 7062WAT     H221429   8.589   1.266   0.139
 7063WAT      O21430   5.886   0.047   8.142
 7063WAT     H121431   5.908  -0.028   8.080
 7063WAT     H221432   5.874   0.011   8.234
 7064WAT      O21433   7.172   7.458   6.226
 7064WAT     H121434   7.230   7.382   6.257
 7064WAT     H221435   7.089   7.461   6.282
 7065WAT      O21436   5.352   8.346   3.538
 7065WAT     H121437   5.392   8.260   3.507
 7065WAT     H221438   5.258   8.331   3.567
 7066WAT      O21439   7.295   5.421   1.896
 7066WAT     H121440   7.200   5.450   1.897
 7066WAT     H221441   7.321   5.387   1.986
 7067WAT      O21442   0.462   3.604   6.031
 7067WAT     H121443   0.441   3.691   5.987
 7067WAT     H221444   0.555   3.576   6.008
 7068WAT      O21445   9.271   4.413   2.336
 7068WAT     H121446   9.278   4.338   2.270
 7068WAT     H221447   9.308   4.383   2.424
 7069WAT      O21448   8.134   8.564   2.713
 7069WAT     H121449   8.080   8.641   2.745
 7069WAT     H221450   8.150   8.500   2.788
 7070WAT      O21451   9.199   4.090   3.849
 7070WAT     H121452   9.232   4.068   3.758
 7070WAT     H221453   9.101   4.111   3.845
 7071WAT      O21454   1.133   9.312   0.325
 7071WAT     H121455   1.172   9.227   0.292
 7071WAT     H221456   1.206   9.376   0.349
 7072WAT      O21457   3.320   6.256   7.769
 7072WAT     H121458   3.361   6.169   7.796
 7072WAT     H221459   3.366   6.330   7.817
 7073WAT      O21460   2.451   6.173   3.043
 7073WAT     H121461   2.392   6.244   3.004
 7073WAT     H221462   2.403   6.085   3.041
 7074WAT      O21463   6.471   1.519   2.889
 7074WAT     H121464   6.487   1.618   2.884
 7074WAT     H221465   6.416   1.499   2.970
 7075WAT      O21466   2.372   5.507   1.028
 7075WAT     H121467   2.316   5.440   1.077
 7075WAT     H221468   2.377   5.482   0.931
 7076WAT      O21469   4.144   5.582   3.378
 7076WAT     H121470   4.233   5.613   3.410
 7076WAT     H221471   4.156   5.502   3.319
 7077WAT      O21472   9.745   3.274   6.240
 7077WAT     H121473   9.761   3.359   6.290
 7077WAT     H221474   9.665   3.227   6.278
 7078WAT      O21475   2.908   7.276   2.095
 7078WAT     H121476   2.829   7.276   2.034
 7078WAT     H221477   2.883   7.240   2.184
 7079WAT      O21478   8.523   2.784   1.361
 7079WAT     H121479   8.578   2.815   1.284
 7079WAT     H221480   8.583   2.751   1.434
 7080WAT      O21481   8.164   0.416   0.080
 7080WAT     H121482   8.257   0.452   0.069
 7080WAT     H221483   8.135   0.426   0.175
 7081WAT      O21484   3.291   1.496   1.673
 7081WAT     H121485   3.310   1.530   1.581
 7081WAT     H221486   3.251   1.570   1.728
 7082WAT      O21487   7.594   1.064   8.593
 7082WAT     H121488   7.588   0.976   8.640
 7082WAT     H221489   7.541   1.060   8.508
 7083WAT      O21490   7.488   9.583   3.069
 7083WAT     H121491   7.482   9.504   3.130
 7083WAT     H221492   7.396   9.612   3.043
 7084WAT      O21493   4.117   1.053   5.475
 7084WAT     H121494   4.098   0.958   5.451
 7084WAT     H221495   4.056   1.113   5.423
 7085WAT      O21496   5.178   8.426   0.247
 7085WAT     H121497   5.219   8.502   0.197
 7085WAT     H221498   5.249   8.378   0.299
 7086WAT      O21499   9.344   2.913   6.183
 7086WAT     H121500   9.336   2.858   6.100
 7086WAT     H221501   9.343   3.010   6.160
 7087WAT      O21502   7.653   8.145   8.553
 7087WAT     H121503   7.700   8.057   8.553
 7087WAT     H221504   7.634   8.172   8.648
 7088WAT      O21505   3.218   0.053   1.670
 7088WAT     H121506   3.175   0.077   1.584
 7088WAT     H221507   3.314   0.030   1.654
 7089WAT      O21508   2.272   1.119   4.946
 7089WAT     H121509   2.316   1.068   5.020
 7089WAT     H221510   2.327   1.112   4.864
 7090WAT      O21511   5.138   2.548   9.739
 7090WAT     H121512   5.176   2.609   9.670
 7090WAT     H221513   5.042   2.529   9.718
 7091WAT      O21514   5.346   0.998   9.705
 7091WAT     H121515   5.380   0.915   9.748
 7091WAT     H221516   5.422   1.044   9.658
 7092WAT      O21517   6.823   2.225   7.146
 7092WAT     H121518   6.922   2.228   7.154
 7092WAT     H221519   6.797   2.205   7.052
 7093WAT      O21520   0.756   8.678   4.584
 7093WAT     H121521   0.713   8.650   4.669
 7093WAT     H221522   0.706   8.639   4.506
 7094WAT      O21523   7.167   2.098   8.197
 7094WAT     H121524   7.231   2.168   8.228
 7094WAT     H221525   7.087   2.097   8.257
 7095WAT      O21526   5.213   5.630   1.104
 7095WAT     H121527   5.170   5.550   1.145
 7095WAT     H221528   5.272   5.675   1.172
 7096WAT      O21529   1.932   5.813   2.571
 7096WAT     H121530   2.008   5.870   2.604
 7096WAT     H221531   1.881   5.777   2.648
 7097WAT      O21532   0.325   8.895   0.984
 7097WAT     H121533   0.394   8.873   0.914
 7097WAT     H221534   0.278   8.979   0.959
 7098WAT      O21535   3.327   5.531   0.040
 7098WAT     H121536   3.261   5.479  -0.014
 7098WAT     H221537   3.279   5.597   0.098
 7099WAT      O21538   1.916   4.448   0.288
 7099WAT     H121539   1.921   4.468   0.190
 7099WAT     H221540   1.984   4.502   0.337
 7100WAT      O21541   6.155   9.608   7.196
 7100WAT     H121542   6.127   9.534   7.257
 7100WAT     H221543   6.228   9.577   7.135
 7101WAT      O21544   5.009   2.903   6.797
 7101WAT     H121545   4.913   2.878   6.802
 7101WAT     H221546   5.017   3.000   6.773
 7102WAT      O21547   7.039   5.720   0.812
 7102WAT     H121548   6.944   5.690   0.819
 7102WAT     H221549   7.088   5.661   0.748
 7103WAT      O21550   6.134   6.326   5.321
 7103WAT     H121551   6.217   6.375   5.346
 7103WAT     H221552   6.158   6.233   5.290
 7104WAT      O21553   1.799   0.252   2.958
 7104WAT     H121554   1.746   0.167   2.956
 7104WAT     H221555   1.743   0.326   2.995
 7105WAT      O21556   5.872   9.552   6.170
 7105WAT     H121557   5.831   9.539   6.080
 7105WAT     H221558   5.967   9.582   6.159
 7106WAT      O21559   9.595   0.885   3.001
 7106WAT     H121560   9.626   0.896   3.096
 7106WAT     H221561   9.632   0.958   2.945
 7107WAT      O21562   8.176   7.629   0.748
 7107WAT     H121563   8.134   7.705   0.798
 7107WAT     H221564   8.112   7.594   0.681
 7108WAT      O21565   6.718   2.441   6.748
 7108WAT     H121566   6.693   2.507   6.677
 7108WAT     H221567   6.636   2.391   6.777
 7109WAT      O21568   0.197   6.527   6.036
 7109WAT     H121569   0.233   6.619   6.048
 7109WAT     H221570   0.172   6.489   6.125
 7110WAT      O21571   9.172   4.733   0.505
 7110WAT     H121572   9.098   4.750   0.440
 7110WAT     H221573   9.175   4.808   0.572
 7111WAT      O21574   9.302   6.536   2.675
 7111WAT     H121575   9.248   6.545   2.591
 7111WAT     H221576   9.262   6.593   2.747
 7112WAT      O21577   6.866   7.242   9.595
 7112WAT     H121578   6.769   7.253   9.613
 7112WAT     H221579   6.889   7.145   9.587
 7113WAT      O21580   0.823   6.603   8.944
 7113WAT     H121581   0.755   6.604   9.017
 7113WAT     H221582   0.889   6.530   8.961
 7114WAT      O21583   1.003   6.949   4.509
 7114WAT     H121584   1.095   6.910   4.501
 7114WAT     H221585   0.938   6.888   4.464
 7115WAT      O21586   6.799   8.034   3.965
 7115WAT     H121587   6.709   7.991   3.960
 7115WAT     H221588   6.789   8.132   3.948
 7116WAT      O21589   9.740   6.181   3.739
 7116WAT     H121590   9.648   6.142   3.745
 7116WAT     H221591   9.739   6.260   3.678
 7117WAT      O21592   7.764   9.465   4.020
 7117WAT     H121593   7.761   9.395   3.950
 7117WAT     H221594   7.856   9.467   4.061
 7118WAT      O21595   4.819   3.803   5.887
 7118WAT     H121596   4.832   3.820   5.985
 7118WAT     H221597   4.880   3.863   5.835
 7119WAT      O21598   2.594   7.062   5.740
 7119WAT     H121599   2.580   7.159   5.721
 7119WAT     H221600   2.636   7.018   5.660
 7120WAT      O21601   5.872   6.264   4.654
 7120WAT     H121602   5.964   6.302   4.649
 7120WAT     H221603   5.841   6.241   4.562
 7121WAT      O21604   1.240   9.545   4.551
 7121WAT     H121605   1.168   9.613   4.539
 7121WAT     H221606   1.233   9.477   4.478
 7122WAT      O21607   9.566   0.316   4.244
 7122WAT     H121608   9.652   0.265   4.250
 7122WAT     H221609   9.493   0.264   4.289
 7123WAT      O21610   7.471   2.514   0.154
 7123WAT     H121611   7.542   2.583   0.141
 7123WAT     H221612   7.387   2.557   0.187
 7124WAT      O21613   8.047   3.655   2.877
 7124WAT     H121614   8.094   3.674   2.791
 7124WAT     H221615   7.948   3.647   2.861
 7125WAT      O21616   5.351   5.294   5.135
 7125WAT     H121617   5.354   5.384   5.179
 7125WAT     H221618   5.407   5.230   5.187
 7126WAT      O21619   1.397   5.666   6.086
 7126WAT     H121620   1.315   5.720   6.067
 7126WAT     H221621   1.376   5.569   6.075
 7127WAT      O21622   3.180   9.321   0.414
 7127WAT     H121623   3.224   9.410   0.395
 7127WAT     H221624   3.185   9.264   0.332
 7128WAT      O21625   8.620   4.085   8.379
 7128WAT     H121626   8.713   4.100   8.411
 7128WAT     H221627   8.573   4.022   8.440
 7129WAT      O21628   6.005   2.804   3.189
 7129WAT     H121629   6.062   2.859   3.130
 7129WAT     H221630   6.023   2.707   3.172
 7130WAT      O21631   0.711   9.133   2.713
 7130WAT     H121632   0.655   9.216   2.715
 7130WAT     H221633   0.726   9.107   2.617
 7131WAT      O21634   7.773   0.803   0.446
 7131WAT     H121635   7.785   0.812   0.347
 7131WAT     H221636   7.691   0.750   0.466
 7132WAT      O21637   6.444   2.195   8.420
 7132WAT     H121638   6.346   2.207   8.434
 7132WAT     H221639   6.467   2.099   8.428
 7133WAT      O21640   3.567   1.048   1.686
 7133WAT     H121641   3.545   1.138   1.648
 7133WAT     H221642   3.484   1.003   1.719
 7134WAT      O21643   6.426   5.183   9.536
 7134WAT     H121644   6.514   5.214   9.571
 7134WAT     H221645   6.440   5.105   9.476
 7135WAT      O21646   3.316   0.086   8.713
 7135WAT     H121647   3.415   0.095   8.706
 7135WAT     H221648   3.277   0.173   8.745
 7136WAT      O21649   6.329   6.445   9.729
 7136WAT     H121650   6.358   6.370   9.788
 7136WAT     H221651   6.382   6.443   9.644
 7137WAT      O21652   1.526   9.182   3.841
 7137WAT     H121653   1.460   9.233   3.897
 7137WAT     H221654   1.477   9.120   3.780
 7138WAT      O21655   4.362   0.944   4.754
 7138WAT     H121656   4.461   0.961   4.759
 7138WAT     H221657   4.346   0.852   4.719
 7139WAT      O21658   5.616   4.842   5.440
 7139WAT     H121659   5.675   4.923   5.434
 7139WAT     H221660   5.560   4.847   5.522
 7140WAT      O21661   0.897   1.068   4.734
 7140WAT     H121662   0.933   0.994   4.677
 7140WAT     H221663   0.917   1.047   4.830
 7141WAT      O21664   3.024   4.654   4.669
 7141WAT     H121665   3.058   4.672   4.762
 7141WAT     H221666   3.100   4.664   4.604
 7142WAT      O21667   4.576   3.901   5.410
 7142WAT     H121668   4.532   3.960   5.343
 7142WAT     H221669   4.507   3.842   5.452
 7143WAT      O21670   5.983   8.747   6.976
 7143WAT     H121671   5.941   8.815   6.916
 7143WAT     H221672   5.972   8.656   6.935
 7144WAT      O21673   7.735   4.950   9.485
 7144WAT     H121674   7.729   4.981   9.390
 7144WAT     H221675   7.809   4.998   9.531
 7145WAT      O21676   0.923   9.100   6.985
 7145WAT     H121677   0.933   9.157   6.903
 7145WAT     H221678   0.966   9.145   7.063
 7146WAT      O21679   9.581   9.528   1.499
 7146WAT     H121680   9.635   9.512   1.582
 7146WAT     H221681   9.643   9.552   1.424
 7147WAT      O21682   7.080   6.365   1.037
 7147WAT     H121683   7.101   6.268   1.051
 7147WAT     H221684   6.985   6.383   1.061
 7148WAT      O21685   5.455   1.668   5.242
 7148WAT     H121686   5.386   1.697   5.175
 7148WAT     H221687   5.411   1.617   5.315
 7149WAT      O21688   9.118   1.859   4.037
 7149WAT     H121689   9.110   1.925   4.112
 7149WAT     H221690   9.129   1.767   4.074
 7150WAT      O21691   1.975   0.962   8.691
 7150WAT     H121692   1.985   0.863   8.685
 7150WAT     H221693   1.916   0.994   8.617
 7151WAT      O21694   9.028   3.166   0.413
 7151WAT     H121695   9.120   3.130   0.401
 7151WAT     H221696   8.965   3.118   0.351
 7152WAT      O21697   9.429   6.694   4.920
 7152WAT     H121698   9.332   6.669   4.914
 7152WAT     H221699   9.463   6.714   4.828
 7153WAT      O21700   0.473   8.423   6.253
 7153WAT     H121701   0.448   8.366   6.331
 7153WAT     H221702   0.539   8.374   6.196
 7154WAT      O21703   0.697   7.305   5.036
 7154WAT     H121704   0.603   7.331   5.057
 7154WAT     H221705   0.738   7.260   5.115
 7155WAT      O21706   4.950   1.884   5.059
 7155WAT     H121707   4.896   1.965   5.078
 7155WAT     H221708   5.028   1.908   5.001
 7156WAT      O21709   2.467   0.489   2.028
 7156WAT     H121710   2.381   0.485   1.978
 7156WAT     H221711   2.457   0.547   2.108
 7157WAT      O21712   0.908   0.431   2.444
 7157WAT     H121713   0.877   0.522   2.416
 7157WAT     H221714   0.861   0.404   2.528
 7158WAT      O21715   0.852   9.481   2.660
 7158WAT     H121716   0.800   9.542   2.601
 7158WAT     H221717   0.859   9.391   2.617
 7159WAT      O21718   7.656   0.734   5.651
 7159WAT     H121719   7.703   0.764   5.734
 7159WAT     H221720   7.708   0.761   5.571
 7160WAT      O21721   7.703   4.817   2.934
 7160WAT     H121722   7.678   4.858   3.022
 7160WAT     H221723   7.678   4.880   2.860
 7161WAT      O21724   0.348   4.792   4.142
 7161WAT     H121725   0.255   4.829   4.130
 7161WAT     H221726   0.407   4.826   4.069
 7162WAT      O21727   6.652   5.084   1.162
 7162WAT     H121728   6.710   5.104   1.241
 7162WAT     H221729   6.557   5.101   1.184
 7163WAT      O21730   5.359   0.402   6.094
 7163WAT     H121731   5.369   0.397   5.995
 7163WAT     H221732   5.317   0.318   6.128
 7164WAT      O21733   4.987   8.303   2.308
 7164WAT     H121734   5.048   8.375   2.341
 7164WAT     H221735   5.019   8.215   2.342
 7165WAT      O21736   6.262   1.000   0.229
 7165WAT     H121737   6.291   0.991   0.133
 7165WAT     H221738   6.313   1.074   0.272
 7166WAT      O21739   5.019   5.896   4.658
 7166WAT     H121740   5.100   5.926   4.709
 7166WAT     H221741   5.048   5.856   4.571
 7167WAT      O21742   8.426   9.686   3.240
 7167WAT     H121743   8.395   9.780   3.225
 7167WAT     H221744   8.516   9.674   3.199
 7168WAT      O21745   8.543   2.624   5.061
 7168WAT     H121746   8.547   2.525   5.047
 7168WAT     H221747   8.460   2.661   5.018
 7169WAT      O21748   8.622   2.312   7.023
 7169WAT     H121749   8.587   2.275   7.109
 7169WAT     H221750   8.550   2.312   6.954
 7170WAT      O21751   7.973   5.170   1.498
 7170WAT     H121752   7.898   5.234   1.514
 7170WAT     H221753   8.031   5.166   1.580
 7171WAT      O21754   0.807   5.787   2.362
 7171WAT     H121755   0.716   5.804   2.324
 7171WAT     H221756   0.863   5.870   2.354
 7172WAT      O21757   4.562   9.385   1.582
 7172WAT     H121758   4.560   9.293   1.543
 7172WAT     H221759   4.512   9.447   1.521
 7173WAT      O21760   0.156   7.129   7.858
 7173WAT     H121761   0.150   7.185   7.775
 7173WAT     H221762   0.230   7.163   7.916
 7174WAT      O21763   1.742   0.967   7.536
 7174WAT     H121764   1.741   0.899   7.609
 7174WAT     H221765   1.835   0.981   7.504
 7175WAT      O21766   2.753   4.439   3.115
 7175WAT     H121767   2.750   4.340   3.129
 7175WAT     H221768   2.793   4.459   3.026
 7176WAT      O21769   7.452   1.468   8.424
 7176WAT     H121770   7.489   1.550   8.466
 7176WAT     H221771   7.526   1.416   8.381
 7177WAT      O21772   6.221   6.849   8.969
 7177WAT     H121773   6.179   6.921   8.914
 7177WAT     H221774   6.270   6.786   8.909
 7178WAT      O21775   3.011   2.809   5.884
 7178WAT     H121776   3.069   2.875   5.931
 7178WAT     H221777   2.916   2.840   5.886
 7179WAT      O21778   1.922   5.218   2.570
 7179WAT     H121779   1.902   5.120   2.565
 7179WAT     H221780   1.887   5.264   2.489
 7180WAT      O21781   6.675   5.083   7.991
 7180WAT     H121782   6.691   5.132   7.906
 7180WAT     H221783   6.759   5.085   8.046
 7181WAT      O21784   3.660   8.967   3.557
 7181WAT     H121785   3.656   8.981   3.458
 7181WAT     H221786   3.756   8.966   3.587
 7182WAT      O21787   8.655   3.170   4.371
 7182WAT     H121788   8.645   3.240   4.299
 7182WAT     H221789   8.746   3.130   4.365
 7183WAT      O21790   7.783   9.765   2.552
 7183WAT     H121791   7.744   9.781   2.461
 7183WAT     H221792   7.747   9.679   2.588
 7184WAT      O21793   7.504   6.911   6.328
 7184WAT     H121794   7.432   6.924   6.396
 7184WAT     H221795   7.492   6.823   6.283
 7185WAT      O21796   3.637   5.405   0.587
 7185WAT     H121797   3.651   5.457   0.502
 7185WAT     H221798   3.726   5.382   0.626
 7186WAT      O21799   4.180   3.170   6.183
 7186WAT     H121800   4.261   3.135   6.137
 7186WAT     H221801   4.192   3.161   6.282
 7187WAT      O21802   9.392   3.127   6.559
 7187WAT     H121803   9.372   3.031   6.542
 7187WAT     H221804   9.455   3.135   6.636
 7188WAT      O21805   3.814   5.186   0.582
 7188WAT     H121806   3.834   5.173   0.679
 7188WAT     H221807   3.897   5.175   0.529
 7189WAT      O21808   5.437   1.984   5.002
 7189WAT     H121809   5.517   1.930   4.977
 7189WAT     H221810   5.461   2.081   5.003
 7190WAT      O21811   6.671   9.386   0.498
 7190WAT     H121812   6.694   9.289   0.492
 7190WAT     H221813   6.591   9.405   0.441
 7191WAT      O21814   0.777   2.820   0.135
 7191WAT     H121815   0.825   2.884   0.075
 7191WAT     H221816   0.788   2.727   0.100
 7192WAT      O21817   9.679   6.466   6.526
 7192WAT     H121818   9.590   6.506   6.505
 7192WAT     H221819   9.739   6.537   6.564
 7193WAT      O21820   7.124   6.893   5.806
 7193WAT     H121821   7.214   6.863   5.838
 7193WAT     H221822   7.074   6.816   5.767
 7194WAT      O21823   3.904   4.813   9.752
 7194WAT     H121824   3.972   4.829   9.823
 7194WAT     H221825   3.812   4.811   9.793
 7195WAT      O21826   2.082   2.989   4.190
 7195WAT     H121827   2.088   2.945   4.101
 7195WAT     H221828   2.096   3.088   4.179
 7196WAT      O21829   9.688   8.648   2.608
 7196WAT     H121830   9.701   8.549   2.614
 7196WAT     H221831   9.698   8.677   2.513
 7197WAT      O21832   9.850   3.764   8.076
 7197WAT     H121833   9.884   3.793   8.165
 7197WAT     H221834   9.925   3.724   8.023
 7198WAT      O21835   4.657   2.049   8.269
 7198WAT     H121836   4.723   2.014   8.335
 7198WAT     H221837   4.704   2.105   8.201
 7199WAT      O21838   6.387   8.351   0.723
 7199WAT     H121839   6.409   8.262   0.764
 7199WAT     H221840   6.366   8.338   0.626
 7200WAT      O21841   4.655   5.467   7.804
 7200WAT     H121842   4.621   5.432   7.892
 7200WAT     H221843   4.753   5.482   7.811
 7201WAT      O21844   3.028   1.054   6.761
 7201WAT     H121845   3.103   0.991   6.740
 7201WAT     H221846   3.043   1.095   6.850
 7202WAT      O21847   7.445   5.907   5.188
 7202WAT     H121848   7.367   5.845   5.192
 7202WAT     H221849   7.516   5.868   5.130
 7203WAT      O21850   0.099   8.042   4.708
 7203WAT     H121851   0.008   8.013   4.740
 7203WAT     H221852   0.089   8.125   4.653
 7204WAT      O21853   4.593   3.542   4.886
 7204WAT     H121854   4.661   3.470   4.898
 7204WAT     H221855   4.577   3.588   4.973
 7205WAT      O21856   2.386   2.851   6.178
 7205WAT     H121857   2.451   2.776   6.166
 7205WAT     H221858   2.413   2.928   6.120
 7206WAT      O21859   8.711   2.506   1.271
 7206WAT     H121860   8.684   2.557   1.352
 7206WAT     H221861   8.782   2.556   1.221
 7207WAT      O21862   8.403   2.186   8.963
 7207WAT     H121863   8.335   2.113   8.967
 7207WAT     H221864   8.449   2.195   9.051
 7208WAT      O21865   0.865   9.241   2.136
 7208WAT     H121866   0.856   9.147   2.170
 7208WAT     H221867   0.774   9.276   2.111
 7209WAT      O21868   5.755   5.961   9.137
 7209WAT     H121869   5.774   5.993   9.229
 7209WAT     H221870   5.680   5.895   9.139
 7210WAT      O21871   7.436   0.589   4.004
 7210WAT     H121872   7.446   0.649   3.924
 7210WAT     H221873   7.494   0.509   3.993
 7211WAT      O21874   0.730   7.522   9.055
 7211WAT     H121875   0.731   7.422   9.055
 7211WAT     H221876   0.751   7.556   9.146
 7212WAT      O21877   5.776   1.159   1.674
 7212WAT     H121878   5.726   1.239   1.640
 7212WAT     H221879   5.757   1.146   1.771
 7213WAT      O21880   9.399   6.065   6.810
 7213WAT     H121881   9.424   6.099   6.719
 7213WAT     H221882   9.468   6.092   6.877
 7214WAT      O21883   1.167   2.893   3.977
 7214WAT     H121884   1.199   2.945   3.897
 7214WAT     H221885   1.113   2.815   3.946
 7215WAT      O21886   8.455   1.689   2.325
 7215WAT     H121887   8.481   1.749   2.248
 7215WAT     H221888   8.368   1.645   2.304
 7216WAT      O21889   2.828   4.641   5.858
 7216WAT     H121890   2.795   4.582   5.932
 7216WAT     H221891   2.763   4.637   5.781
 7217WAT      O21892   9.258   6.047   7.923
 7217WAT     H121893   9.174   6.008   7.885
 7217WAT     H221894   9.312   6.088   7.849
 7218WAT      O21895   6.600   9.190   6.183
 7218WAT     H121896   6.628   9.226   6.272
 7218WAT     H221897   6.502   9.202   6.171
 7219WAT      O21898   7.750   3.058   3.774
 7219WAT     H121899   7.831   3.112   3.752
 7219WAT     H221900   7.672   3.092   3.721
 7220WAT      O21901   8.260   7.416   5.454
 7220WAT     H121902   8.357   7.407   5.433
 7220WAT     H221903   8.240   7.509   5.483
 7221WAT      O21904   5.507   8.872   5.061
 7221WAT     H121905   5.437   8.817   5.106
 7221WAT     H221906   5.481   8.968   5.064
 7222WAT      O21907   3.346   1.817   6.161
 7222WAT     H121908   3.348   1.882   6.085
 7222WAT     H221909   3.295   1.735   6.134
 7223WAT      O21910   0.612   9.051   0.098
 7223WAT     H121911   0.680   8.986   0.131
 7223WAT     H221912   0.520   9.013   0.109
 7224WAT      O21913   3.731   3.238   2.694
 7224WAT     H121914   3.683   3.318   2.660
 7224WAT     H221915   3.673   3.157   2.686
 7225WAT      O21916   2.265   4.504   8.520
 7225WAT     H121917   2.183   4.561   8.527
 7225WAT     H221918   2.295   4.477   8.611
 7226WAT      O21919   3.000   0.248   7.108
 7226WAT     H121920   3.097   0.230   7.091
 7226WAT     H221921   2.976   0.338   7.073
 7227WAT      O21922   8.491   3.297   6.772
 7227WAT     H121923   8.482   3.379   6.829
 7227WAT     H221924   8.547   3.319   6.692
 7228WAT      O21925   2.420   8.185   6.640
 7228WAT     H121926   2.418   8.094   6.681
 7228WAT     H221927   2.433   8.176   6.541
 7229WAT      O21928   1.751   3.313   3.893
 7229WAT     H121929   1.826   3.265   3.848
 7229WAT     H221930   1.706   3.374   3.827
 7230WAT      O21931   9.715   0.662   1.504
 7230WAT     H121932   9.760   0.573   1.512
 7230WAT     H221933   9.634   0.664   1.563
 7231WAT      O21934   8.932   7.766   5.946
 7231WAT     H121935   8.905   7.742   6.040
 7231WAT     H221936   8.889   7.852   5.920
 7232WAT      O21937   4.646   7.363   8.579
 7232WAT     H121938   4.704   7.339   8.502
 7232WAT     H221939   4.664   7.302   8.656
 7233WAT      O21940   2.891   7.791   5.887
 7233WAT     H121941   2.839   7.706   5.898
 7233WAT     H221942   2.830   7.869   5.901
 7234WAT      O21943   3.028   5.298   8.431
 7234WAT     H121944   3.068   5.340   8.513
 7234WAT     H221945   3.097   5.245   8.383
 7235WAT      O21946   0.498   5.713   6.899
 7235WAT     H121947   0.418   5.757   6.940
 7235WAT     H221948   0.577   5.774   6.906
 7236WAT      O21949   9.188   6.241   1.806
 7236WAT     H121950   9.230   6.215   1.893
 7236WAT     H221951   9.128   6.320   1.819
 7237WAT      O21952   0.231   0.246   7.683
 7237WAT     H121953   0.248   0.308   7.607
 7237WAT     H221954   0.187   0.163   7.649
 7238WAT      O21955   8.303   0.179   8.887
 7238WAT     H121956   8.235   0.114   8.921
 7238WAT     H221957   8.395   0.144   8.906
 7239WAT      O21958   9.211   4.150   5.800
 7239WAT     H121959   9.173   4.149   5.892
 7239WAT     H221960   9.218   4.244   5.767
 7240WAT      O21961   7.700   8.260   2.579
 7240WAT     H121962   7.697   8.182   2.516
 7240WAT     H221963   7.790   8.262   2.625
 7241WAT      O21964   5.679   1.113   5.746
 7241WAT     H121965   5.605   1.055   5.780
 7241WAT     H221966   5.742   1.135   5.821
 7242WAT      O21967   1.341   5.451   3.668
 7242WAT     H121968   1.431   5.474   3.707
 7242WAT     H221969   1.271   5.464   3.738
 7243WAT      O21970   8.991   4.874   4.293
 7243WAT     H121971   9.041   4.925   4.224
 7243WAT     H221972   8.899   4.854   4.260
 7244WAT      O21973   9.723   0.623   4.738
 7244WAT     H121974   9.625   0.623   4.717
 7244WAT     H221975   9.771   0.679   4.671
 7245WAT      O21976   1.562   9.370   8.225
 7245WAT     H121977   1.552   9.469   8.234
 7245WAT     H221978   1.631   9.349   8.156
 7246WAT      O21979   8.945   6.516   0.673
 7246WAT     H121980   9.002   6.582   0.624
 7246WAT     H221981   8.943   6.429   0.622
 7247WAT      O21982   4.843   0.187   4.433
 7247WAT     H121983   4.835   0.128   4.352
 7247WAT     H221984   4.823   0.282   4.407
 7248WAT      O21985   2.006   1.174   8.020
 7248WAT     H121986   2.094   1.211   7.991
 7248WAT     H221987   1.956   1.140   7.940
 7249WAT      O21988   5.912   0.339   4.350
 7249WAT     H121989   5.958   0.275   4.412
 7249WAT     H221990   5.913   0.431   4.390
 7250WAT      O21991   4.841   0.939   2.471
 7250WAT     H121992   4.852   0.962   2.374
 7250WAT     H221993   4.845   1.022   2.525
 7251WAT      O21994   7.813   4.643   3.452
 7251WAT     H121995   7.897   4.600   3.485
 7251WAT     H221996   7.834   4.734   3.417
 7252WAT      O21997   1.308   2.077   4.799
 7252WAT     H121998   1.406   2.092   4.811
 7252WAT     H221999   1.271   2.145   4.736
 7253WAT      O22000   9.816   2.166   2.171
 7253WAT     H122001   9.847   2.140   2.263
 7253WAT     H222002   9.809   2.085   2.114
 7254WAT      O22003   6.893   8.468   4.953
 7254WAT     H122004   6.861   8.489   4.862
 7254WAT     H222005   6.857   8.535   5.018
 7255WAT      O22006   2.054   6.675   8.480
 7255WAT     H122007   2.061   6.770   8.510
 7255WAT     H222008   1.957   6.650   8.472
 7256WAT      O22009   3.203   3.827   2.289
 7256WAT     H122010   3.280   3.887   2.267
 7256WAT     H222011   3.196   3.817   2.388
 7257WAT      O22012   7.915   8.490   6.091
 7257WAT     H122013   7.893   8.532   6.003
 7257WAT     H222014   7.929   8.562   6.159
 7258WAT      O22015   1.471   9.281   2.881
 7258WAT     H122016   1.398   9.270   2.948
 7258WAT     H222017   1.509   9.192   2.858
 7259WAT      O22018   4.147   1.174   9.426
 7259WAT     H122019   4.162   1.101   9.361
 7259WAT     H222020   4.234   1.218   9.449
 7260WAT      O22021   3.602   0.011   8.603
 7260WAT     H122022   3.611  -0.033   8.514
 7260WAT     H222023   3.688   0.056   8.627
 7261WAT      O22024   4.998   6.698   6.245
 7261WAT     H122025   4.966   6.633   6.314
 7261WAT     H222026   5.035   6.648   6.167
 7262WAT      O22027   2.761   8.944   2.100
 7262WAT     H122028   2.760   8.966   2.003
 7262WAT     H222029   2.671   8.961   2.140
 7263WAT      O22030   2.343   2.286   1.149
 7263WAT     H122031   2.320   2.224   1.224
 7263WAT     H222032   2.439   2.272   1.122
 7264WAT      O22033   5.127   2.375   1.830
 7264WAT     H122034   5.067   2.355   1.753
 7264WAT     H222035   5.194   2.302   1.840
 7265WAT      O22036   8.093   7.585   3.415
 7265WAT     H122037   8.110   7.649   3.341
 7265WAT     H222038   8.148   7.503   3.401
 7266WAT      O22039   3.602   8.065   8.070
 7266WAT     H122040   3.577   8.009   8.149
 7266WAT     H222041   3.577   8.160   8.088
 7267WAT      O22042   3.450   5.785   4.961
 7267WAT     H122043   3.528   5.790   4.899
 7267WAT     H222044   3.462   5.851   5.036
 7268WAT      O22045   0.248   4.943   7.722
 7268WAT     H122046   0.253   5.033   7.679
 7268WAT     H222047   0.311   4.880   7.675
 7269WAT      O22048   8.679   5.403   3.645
 7269WAT     H122049   8.617   5.475   3.675
 7269WAT     H222050   8.718   5.427   3.556
 7270WAT      O22051   6.432   5.556   3.085
 7270WAT     H122052   6.426   5.621   3.009
 7270WAT     H222053   6.414   5.464   3.052
 7271WAT      O22054   1.978   2.379   6.448
 7271WAT     H122055   1.991   2.475   6.472
 7271WAT     H222056   1.967   2.325   6.531
 7272WAT      O22057   5.234   8.018   5.049
 7272WAT     H122058   5.211   7.930   5.089
 7272WAT     H222059   5.329   8.042   5.072
 7273WAT      O22060   3.185   0.856   6.148
 7273WAT     H122061   3.221   0.923   6.083
 7273WAT     H222062   3.260   0.810   6.195
 7274WAT      O22063   4.907   9.145   5.047
 7274WAT     H122064   4.938   9.237   5.070
 7274WAT     H222065   4.897   9.091   5.130
 7275WAT      O22066   2.499   7.564   0.843
 7275WAT     H122067   2.568   7.544   0.912
 7275WAT     H222068   2.436   7.633   0.877
 7276WAT      O22069   0.912   8.212   5.990
 7276WAT     H122070   0.940   8.126   6.033
 7276WAT     H222071   0.865   8.192   5.904
 7277WAT      O22072   4.933   6.338   4.998
 7277WAT     H122073   5.026   6.373   4.989
 7277WAT     H222074   4.895   6.368   5.086
 7278WAT      O22075   3.207   3.646   8.364
 7278WAT     H122076   3.180   3.653   8.268
 7278WAT     H222077   3.135   3.686   8.422
 7279WAT      O22078   5.430   6.820   1.285
 7279WAT     H122079   5.432   6.914   1.320
 7279WAT     H222080   5.466   6.818   1.192
 7280WAT      O22081   6.724   6.537   4.945
 7280WAT     H122082   6.675   6.461   4.901
 7280WAT     H222083   6.786   6.500   5.014
 7281WAT      O22084   4.122   5.693   8.240
 7281WAT     H122085   4.108   5.787   8.209
 7281WAT     H222086   4.177   5.644   8.172
 7282WAT      O22087   4.472   2.886   8.962
 7282WAT     H122088   4.558   2.837   8.974
 7282WAT     H222089   4.442   2.877   8.867
 7283WAT      O22090   5.635   8.954   5.452
 7283WAT     H122091   5.705   9.005   5.403
 7283WAT     H222092   5.556   9.012   5.469
 7284WAT      O22093   6.661   6.584   5.323
 7284WAT     H122094   6.644   6.679   5.349
 7284WAT     H222095   6.728   6.580   5.249
 7285WAT      O22096   4.030   9.647   8.146
 7285WAT     H122097   4.067   9.618   8.234
 7285WAT     H222098   4.031   9.571   8.082
 7286WAT      O22099   6.134   5.215   0.549
 7286WAT     H122100   6.124   5.292   0.612
 7286WAT     H222101   6.140   5.249   0.455
 7287WAT      O22102   0.899   3.106   7.905
 7287WAT     H122103   0.829   3.170   7.938
 7287WAT     H222104   0.982   3.117   7.959
 7288WAT      O22105   1.967   2.288   6.730
 7288WAT     H122106   1.994   2.193   6.721
 7288WAT     H222107   1.914   2.300   6.814
 7289WAT      O22108   8.331   9.222   9.647
 7289WAT     H122109   8.320   9.131   9.605
 7289WAT     H222110   8.334   9.213   9.746
 7290WAT      O22111   9.097   8.896   1.048
 7290WAT     H122112   9.172   8.961   1.039
 7290WAT     H222113   9.111   8.839   1.129
 7291WAT      O22114   6.295   1.403   6.350
 7291WAT     H122115   6.230   1.479   6.345
 7291WAT     H222116   6.311   1.367   6.258
 7292WAT      O22117   6.267   6.091   2.335
 7292WAT     H122118   6.262   5.992   2.328
 7292WAT     H222119   6.183   6.132   2.299
 7293WAT      O22120   8.812   8.468   4.382
 7293WAT     H122121   8.760   8.399   4.432
 7293WAT     H222122   8.835   8.544   4.443
 7294WAT      O22123   8.051   1.969   1.136
 7294WAT     H122124   8.145   1.992   1.113
 7294WAT     H222125   7.997   2.053   1.146
 7295WAT      O22126   6.140   5.108   0.013
 7295WAT     H122127   6.129   5.016  -0.025
 7295WAT     H222128   6.170   5.171  -0.059
 7296WAT      O22129   0.005   3.746   1.598
 7296WAT     H122130   0.071   3.811   1.560
 7296WAT     H222131   0.045   3.655   1.600
 7297WAT      O22132   0.555   4.012   9.559
 7297WAT     H122133   0.638   4.009   9.504
 7297WAT     H222134   0.514   3.921   9.563
 7298WAT      O22135   1.729   4.736   8.599
 7298WAT     H122136   1.678   4.661   8.556
 7298WAT     H222137   1.819   4.702   8.628
 7299WAT      O22138   1.031   3.405   1.029
 7299WAT     H122139   1.072   3.471   1.092
 7299WAT     H222140   1.042   3.436   0.935
 7300WAT      O22141   4.828   8.838   4.728
 7300WAT     H122142   4.777   8.924   4.725
 7300WAT     H222143   4.793   8.776   4.658
 7301WAT      O22144   1.444   1.969   6.828
 7301WAT     H122145   1.528   2.003   6.786
 7301WAT     H222146   1.436   2.004   6.921
 7302WAT      O22147   0.294   3.665   0.433
 7302WAT     H122148   0.259   3.573   0.451
 7302WAT     H222149   0.285   3.685   0.335
 7303WAT      O22150   4.274   7.416   0.072
 7303WAT     H122151   4.179   7.385   0.079
 7303WAT     H222152   4.317   7.372  -0.007
 7304WAT      O22153   4.740   3.425   4.168
 7304WAT     H122154   4.816   3.389   4.222
 7304WAT     H222155   4.762   3.517   4.136
 7305WAT      O22156   0.631   2.791   1.766
 7305WAT     H122157   0.636   2.730   1.845
 7305WAT     H222158   0.680   2.750   1.689
 7306WAT      O22159   0.795   0.520   1.374
 7306WAT     H122160   0.768   0.595   1.313
 7306WAT     H222161   0.714   0.481   1.417
 7307WAT      O22162   3.355   9.674   3.433
 7307WAT     H122163   3.324   9.650   3.341
 7307WAT     H222164   3.276   9.693   3.491
 7308WAT      O22165   6.221   9.210   9.134
 7308WAT     H122166   6.154   9.272   9.174
 7308WAT     H222167   6.313   9.232   9.169
 7309WAT      O22168   8.098   3.199   4.772
 7309WAT     H122169   8.075   3.207   4.675
 7309WAT     H222170   8.055   3.274   4.823
 7310WAT      O22171   1.269   4.943   9.306
 7310WAT     H122172   1.357   4.900   9.325
 7310WAT     H222173   1.234   4.985   9.390
 7311WAT      O22174   7.804   3.585   0.432
 7311WAT     H122175   7.743   3.628   0.498
 7311WAT     H222176   7.898   3.614   0.450
 7312WAT      O22177   9.127   8.402   7.360
 7312WAT     H122178   9.212   8.442   7.325
 7312WAT     H222179   9.052   8.467   7.348
 7313WAT      O22180   1.291   3.282   1.958
 7313WAT     H122181   1.293   3.262   2.056
 7313WAT     H222182   1.364   3.232   1.912
 7314WAT      O22183   9.874   4.491   9.013
 7314WAT     H122184   9.875   4.522   9.108
 7314WAT     H222185   9.967   4.483   8.979
 7315WAT      O22186   6.616   6.805   5.910
 7315WAT     H122187   6.572   6.722   5.875
 7315WAT     H222188   6.627   6.871   5.836
 7316WAT      O22189   8.385   5.239   7.938
 7316WAT     H122190   8.366   5.141   7.932
 7316WAT     H222191   8.457   5.256   8.005
 7317WAT      O22192   1.300   5.805   5.349
 7317WAT     H122193   1.228   5.842   5.291
 7317WAT     H222194   1.308   5.860   5.432
 7318WAT      O22195   8.798   1.837   7.538
 7318WAT     H122196   8.737   1.768   7.576
 7318WAT     H222197   8.874   1.853   7.602
 7319WAT      O22198   8.790   4.202   5.299
 7319WAT     H122199   8.713   4.213   5.235
 7319WAT     H222200   8.756   4.167   5.386
 7320WAT      O22201   2.861   5.211   0.546
 7320WAT     H122202   2.892   5.189   0.454
 7320WAT     H222203   2.799   5.139   0.578
 7321WAT      O22204   1.923   5.823   5.592
 7321WAT     H122205   1.833   5.822   5.548
 7321WAT     H222206   1.946   5.731   5.622
 7322WAT      O22207   8.927   5.120   5.535
 7322WAT     H122208   8.987   5.078   5.603
 7322WAT     H222209   8.938   5.073   5.447
 7323WAT      O22210   6.186   1.096   1.399
 7323WAT     H122211   6.168   1.027   1.470
 7323WAT     H222212   6.121   1.171   1.409
 7324WAT      O22213   8.260   5.892   0.803
 7324WAT     H122214   8.330   5.848   0.746
 7324WAT     H222215   8.247   5.839   0.887
 7325WAT      O22216   9.256   2.180   5.108
 7325WAT     H122217   9.233   2.121   5.185
 7325WAT     H222218   9.207   2.151   5.026
 7326WAT      O22219   8.304   3.763   3.605
 7326WAT     H122220   8.315   3.839   3.541
 7326WAT     H222221   8.267   3.797   3.691
 7327WAT      O22222   6.789   7.145   2.213
 7327WAT     H122223   6.887   7.122   2.210
 7327WAT     H222224   6.758   7.170   2.122
 7328WAT      O22225   9.276   7.509   6.755
 7328WAT     H122226   9.311   7.428   6.707
 7328WAT     H222227   9.275   7.492   6.853
 7329WAT      O22228   3.135   1.655   7.467
 7329WAT     H122229   3.090   1.663   7.378
 7329WAT     H222230   3.142   1.746   7.509
 7330WAT      O22231   6.165   0.586   0.062
 7330WAT     H122232   6.246   0.626   0.105
 7330WAT     H222233   6.179   0.579  -0.037
 7331WAT      O22234   8.664   2.907   7.308
 7331WAT     H122235   8.762   2.925   7.321
 7331WAT     H222236   8.615   2.994   7.298
 7332WAT      O22237   8.303   0.358   4.942
 7332WAT     H122238   8.342   0.413   5.016
 7332WAT     H222239   8.366   0.283   4.920
 7333WAT      O22240   4.682   8.472   0.397
 7333WAT     H122241   4.670   8.525   0.481
 7333WAT     H222242   4.670   8.374   0.418
 7334WAT      O22243   6.570   3.779   9.623
 7334WAT     H122244   6.616   3.723   9.554
 7334WAT     H222245   6.475   3.794   9.595
 7335WAT      O22246   4.447   1.975   1.909
 7335WAT     H122247   4.443   2.075   1.910
 7335WAT     H222248   4.515   1.946   1.842
 7336WAT      O22249   3.049   3.574   9.353
 7336WAT     H122250   3.072   3.494   9.409
 7336WAT     H222251   2.994   3.545   9.275
 7337WAT      O22252   0.342   2.711   8.693
 7337WAT     H122253   0.439   2.694   8.713
 7337WAT     H222254   0.327   2.808   8.679
 7338WAT      O22255   6.584   1.204   6.860
 7338WAT     H122256   6.557   1.300   6.859
 7338WAT     H222257   6.667   1.193   6.913
 7339WAT      O22258   3.913   9.393   9.638
 7339WAT     H122259   3.882   9.464   9.701
 7339WAT     H222260   3.835   9.340   9.606
 7340WAT      O22261   9.625   2.620   0.418
 7340WAT     H122262   9.697   2.586   0.479
 7340WAT     H222263   9.623   2.564   0.334
 7341WAT      O22264   4.254   0.064   7.434
 7341WAT     H122265   4.216  -0.027   7.447
 7341WAT     H222266   4.344   0.069   7.477
 7342WAT      O22267   3.350   7.883   2.533
 7342WAT     H122268   3.271   7.943   2.547
 7342WAT     H222269   3.329   7.792   2.568
 7343WAT      O22270   6.031   3.283   9.706
 7343WAT     H122271   6.108   3.340   9.735
 7343WAT     H222272   6.038   3.265   9.608
 7344WAT      O22273   5.132   3.618   1.782
 7344WAT     H122274   5.189   3.694   1.751
 7344WAT     H222275   5.117   3.553   1.707
 7345WAT      O22276   7.405   2.184   5.507
 7345WAT     H122277   7.433   2.261   5.564
 7345WAT     H222278   7.451   2.189   5.419
 7346WAT      O22279   5.506   6.970   4.690
 7346WAT     H122280   5.595   6.996   4.653
 7346WAT     H222281   5.437   7.036   4.660
 7347WAT      O22282   8.852   6.118   7.280
 7347WAT     H122283   8.890   6.089   7.368
 7347WAT     H222284   8.811   6.208   7.289
 7348WAT      O22285   4.320   0.702   4.638
 7348WAT     H122286   4.236   0.654   4.662
 7348WAT     H222287   4.319   0.723   4.540
 7349WAT      O22288   1.057   6.673   5.828
 7349WAT     H122289   1.155   6.692   5.831
 7349WAT     H222290   1.025   6.675   5.733
 7350WAT      O22291   6.809   9.100   9.774
 7350WAT     H122292   6.724   9.068   9.734
 7350WAT     H222293   6.851   9.027   9.828
 7351WAT      O22294   0.097   4.807   3.625
 7351WAT     H122295   0.156   4.740   3.670
 7351WAT     H222296   0.138   4.898   3.632
 7352WAT      O22297   0.031   0.791   0.269
 7352WAT     H122298  -0.055   0.840   0.285
 7352WAT     H222299   0.074   0.769   0.357
 7353WAT      O22300   0.630   2.757   0.943
 7353WAT     H122301   0.622   2.665   0.982
 7353WAT     H222302   0.592   2.823   1.007
 7354WAT      O22303   2.168   3.693   3.173
 7354WAT     H122304   2.123   3.643   3.100
 7354WAT     H222305   2.266   3.673   3.172
 7355WAT      O22306   8.327   5.957   9.125
 7355WAT     H122307   8.262   5.946   9.201
 7355WAT     H222308   8.289   6.021   9.058
 7356WAT      O22309   5.669   3.889   9.017
 7356WAT     H122310   5.716   3.857   9.099
 7356WAT     H222311   5.723   3.960   8.973
 7357WAT      O22312   6.550   0.096   3.636
 7357WAT     H122313   6.504   0.160   3.574
 7357WAT     H222314   6.643   0.078   3.605
 7358WAT      O22315   3.049   8.261   3.091
 7358WAT     H122316   2.959   8.229   3.119
 7358WAT     H222317   3.094   8.305   3.170
 7359WAT      O22318   0.460   0.167   5.124
 7359WAT     H122319   0.467   0.071   5.150
 7359WAT     H222320   0.406   0.217   5.193
 7360WAT      O22321   3.473   6.718   9.596
 7360WAT     H122322   3.390   6.684   9.639
 7360WAT     H222323   3.449   6.776   9.518
 7361WAT      O22324   8.154   5.060   7.587
 7361WAT     H122325   8.141   5.140   7.646
 7361WAT     H222326   8.087   5.062   7.513
 7362WAT      O22327   5.101   1.419   6.773
 7362WAT     H122328   5.096   1.389   6.868
 7362WAT     H222329   5.195   1.411   6.741
 7363WAT      O22330   4.821   2.632   3.719
 7363WAT     H122331   4.920   2.623   3.722
 7363WAT     H222332   4.797   2.729   3.713
 7364WAT      O22333   8.481   8.814   7.966
 7364WAT     H122334   8.575   8.846   7.971
 7364WAT     H222335   8.420   8.890   7.941
 7365WAT      O22336   5.619   6.774   8.851
 7365WAT     H122337   5.568   6.744   8.770
 7365WAT     H222338   5.686   6.705   8.876
 7366WAT      O22339   6.934   3.669   7.601
 7366WAT     H122340   7.000   3.634   7.534
 7366WAT     H222341   6.935   3.611   7.682
 7367WAT      O22342   9.405   9.486   2.865
 7367WAT     H122343   9.479   9.544   2.833
 7367WAT     H222344   9.318   9.523   2.832
 7368WAT      O22345   7.034   4.394   9.254
 7368WAT     H122346   7.071   4.317   9.202
 7368WAT     H222347   6.936   4.382   9.266
 7369WAT      O22348   0.774   4.843   9.517
 7369WAT     H122349   0.741   4.843   9.611
 7369WAT     H222350   0.700   4.876   9.457
 7370WAT      O22351   0.013   0.179   1.721
 7370WAT     H122352   0.024   0.202   1.817
 7370WAT     H222353   0.102   0.181   1.675
 7371WAT      O22354   0.039   4.612   8.303
 7371WAT     H122355   0.137   4.612   8.282
 7371WAT     H222356   0.012   4.520   8.333
 7372WAT      O22357   7.484   3.023   1.203
 7372WAT     H122358   7.508   3.004   1.107
 7372WAT     H222359   7.412   2.960   1.232
 7373WAT      O22360   8.611   8.257   1.448
 7373WAT     H122361   8.588   8.303   1.534
 7373WAT     H222362   8.680   8.187   1.466
 7374WAT      O22363   3.909   2.848   6.142
 7374WAT     H122364   3.984   2.894   6.190
 7374WAT     H222365   3.940   2.818   6.052
 7375WAT      O22366   7.532   5.898   3.071
 7375WAT     H122367   7.474   5.899   2.989
 7375WAT     H222368   7.518   5.983   3.122
 7376WAT      O22369   3.406   4.866   7.066
 7376WAT     H122370   3.315   4.873   7.107
 7376WAT     H222371   3.451   4.783   7.099
 7377WAT      O22372   8.313   2.436   8.919
 7377WAT     H122373   8.313   2.336   8.914
 7377WAT     H222374   8.402   2.468   8.953
 7378WAT      O22375   6.319   1.692   9.786
 7378WAT     H122376   6.242   1.628   9.781
 7378WAT     H222377   6.400   1.649   9.746
 7379WAT      O22378   1.291   5.549   4.565
 7379WAT     H122379   1.262   5.625   4.624
 7379WAT     H222380   1.332   5.586   4.482
 7380WAT      O22381   5.943   8.337   5.230
 7380WAT     H122382   5.884   8.298   5.301
 7380WAT     H222383   5.899   8.325   5.141
 7381WAT      O22384   4.633   8.810   8.354
 7381WAT     H122385   4.692   8.735   8.386
 7381WAT     H222386   4.689   8.881   8.313
 7382WAT      O22387   2.657   9.192   3.588
 7382WAT     H122388   2.728   9.147   3.533
 7382WAT     H222389   2.623   9.127   3.656
 7383WAT      O22390   6.569   1.789   5.012
 7383WAT     H122391   6.590   1.845   4.932
 7383WAT     H222392   6.653   1.765   5.060
 7384WAT      O22393   1.091   5.354   6.195
 7384WAT     H122394   1.007   5.371   6.247
 7384WAT     H222395   1.170   5.386   6.247
 7385WAT      O22396   7.444   1.606   6.636
 7385WAT     H122397   7.429   1.587   6.733
 7385WAT     H222398   7.360   1.590   6.585
 7386WAT      O22399   8.404   3.785   0.793
 7386WAT     H122400   8.367   3.823   0.708
 7386WAT     H222401   8.486   3.732   0.773
 7387WAT      O22402   8.227   5.597   6.363
 7387WAT     H122403   8.211   5.501   6.338
 7387WAT     H222404   8.179   5.657   6.299
 7388WAT      O22405   6.665   2.063   9.456
 7388WAT     H122406   6.619   2.018   9.532
 7388WAT     H222407   6.645   2.014   9.371
 7389WAT      O22408   5.794   3.790   6.318
 7389WAT     H122409   5.873   3.735   6.346
 7389WAT     H222410   5.711   3.756   6.362
 7390WAT      O22411   1.622   2.545   6.560
 7390WAT     H122412   1.674   2.492   6.628
 7390WAT     H222413   1.669   2.631   6.542
 7391WAT      O22414   6.424   8.354   2.045
 7391WAT     H122415   6.451   8.260   2.066
 7391WAT     H222416   6.394   8.359   1.949
 7392WAT      O22417   7.685   2.624   2.803
 7392WAT     H122418   7.589   2.619   2.833
 7392WAT     H222419   7.739   2.669   2.874
 7393WAT      O22420   1.224   9.806   0.679
 7393WAT     H122421   1.243   9.789   0.776
 7393WAT     H222422   1.267   9.891   0.650
 7394WAT      O22423   1.655   7.554   8.087
 7394WAT     H122424   1.641   7.496   8.167
 7394WAT     H222425   1.748   7.541   8.052
 7395WAT      O22426   8.164   4.088   7.541
 7395WAT     H122427   8.123   4.002   7.511
 7395WAT     H222428   8.209   4.074   7.629
 7396WAT      O22429   3.868   1.795   7.624
 7396WAT     H122430   3.887   1.708   7.578
 7396WAT     H222431   3.954   1.845   7.637
 7397WAT      O22432   6.226   8.855   1.360
 7397WAT     H122433   6.251   8.880   1.453
 7397WAT     H222434   6.295   8.793   1.322
 7398WAT      O22435   5.915   9.711   3.292
 7398WAT     H122436   5.819   9.724   3.315
 7398WAT     H222437   5.968   9.699   3.376
 7399WAT      O22438   8.484   3.893   4.683
 7399WAT     H122439   8.473   3.980   4.633
 7399WAT     H222440   8.577   3.860   4.670
 7400WAT      O22441   2.981   7.525   6.714
 7400WAT     H122442   3.073   7.486   6.709
 7400WAT     H222443   2.986   7.625   6.712
 7401WAT      O22444   0.266   4.610   2.998
 7401WAT     H122445   0.323   4.690   3.016
 7401WAT     H222446   0.220   4.621   2.910
 7402WAT      O22447   6.018   3.098   7.961
 7402WAT     H122448   5.968   3.128   7.880
 7402WAT     H222449   5.972   3.019   8.002
 7403WAT      O22450   8.263   5.249   5.428
 7403WAT     H122451   8.212   5.177   5.382
 7403WAT     H222452   8.270   5.229   5.525
 7404WAT      O22453   6.395   8.683   9.101
 7404WAT     H122454   6.400   8.598   9.154
 7404WAT     H222455   6.486   8.723   9.093
 7405WAT      O22456   2.489   1.330   1.979
 7405WAT     H122457   2.427   1.397   1.937
 7405WAT     H222458   2.554   1.298   1.910
 7406WAT      O22459   7.322   9.687   5.856
 7406WAT     H122460   7.275   9.771   5.831
 7406WAT     H222461   7.286   9.652   5.942
 7407WAT      O22462   1.372   6.149   5.333
 7407WAT     H122463   1.348   6.114   5.424
 7407WAT     H222464   1.471   6.147   5.322
 7408WAT      O22465   2.793   5.363   6.771
 7408WAT     H122466   2.698   5.390   6.757
 7408WAT     H222467   2.833   5.332   6.684
 7409WAT      O22468   8.229   4.258   5.694
 7409WAT     H122469   8.172   4.205   5.632
 7409WAT     H222470   8.208   4.234   5.789
 7410WAT      O22471   9.461   2.819   2.975
 7410WAT     H122472   9.409   2.766   2.908
 7410WAT     H222473   9.479   2.762   3.055
 7411WAT      O22474   0.787   1.707   1.888
 7411WAT     H122475   0.706   1.650   1.898
 7411WAT     H222476   0.759   1.802   1.874
 7412WAT      O22477   7.089   6.731   1.701
 7412WAT     H122478   6.994   6.713   1.676
 7412WAT     H222479   7.150   6.683   1.638
 7413WAT      O22480   1.496   1.784   5.687
 7413WAT     H122481   1.494   1.836   5.773
 7413WAT     H222482   1.526   1.843   5.613
 7414WAT      O22483   4.582   9.114   2.661
 7414WAT     H122484   4.631   9.054   2.598
 7414WAT     H222485   4.487   9.083   2.669
 7415WAT      O22486   4.925   3.921   1.840
 7415WAT     H122487   4.911   3.887   1.933
 7415WAT     H222488   4.909   3.846   1.775
 7416WAT      O22489   2.721   6.621   8.039
 7416WAT     H122490   2.709   6.533   8.086
 7416WAT     H222491   2.790   6.611   7.967
 7417WAT      O22492   4.133   3.871   9.294
 7417WAT     H122493   4.156   3.888   9.198
 7417WAT     H222494   4.153   3.953   9.348
 7418WAT      O22495   2.602   7.574   4.586
 7418WAT     H122496   2.611   7.617   4.496
 7418WAT     H222497   2.520   7.608   4.631
 7419WAT      O22498   2.558   1.674   9.301
 7419WAT     H122499   2.530   1.736   9.228
 7419WAT     H222500   2.517   1.584   9.285
 7420WAT      O22501   9.357   7.844   7.205
 7420WAT     H122502   9.373   7.875   7.111
 7420WAT     H222503   9.270   7.879   7.237
 7421WAT      O22504   4.701   1.554   2.311
 7421WAT     H122505   4.675   1.520   2.401
 7421WAT     H222506   4.777   1.619   2.321
 7422WAT      O22507   1.010   2.228   7.252
 7422WAT     H122508   0.916   2.194   7.244
 7422WAT     H222509   1.064   2.165   7.308
 7423WAT      O22510   7.814   6.624   3.309
 7423WAT     H122511   7.734   6.565   3.312
 7423WAT     H222512   7.876   6.602   3.384
 7424WAT      O22513   0.686   3.998   6.377
 7424WAT     H122514   0.606   3.942   6.358
 7424WAT     H222515   0.760   3.973   6.315
 7425WAT      O22516   6.324   8.153   6.135
 7425WAT     H122517   6.373   8.089   6.195
 7425WAT     H222518   6.253   8.200   6.186
 7426WAT      O22519   5.490   8.738   8.131
 7426WAT     H122520   5.398   8.776   8.140
 7426WAT     H222521   5.485   8.641   8.110
 7427WAT      O22522   5.779   6.392   0.395
 7427WAT     H122523   5.855   6.333   0.423
 7427WAT     H222524   5.752   6.450   0.471
 7428WAT      O22525   4.562   8.413   1.286
 7428WAT     H122526   4.513   8.326   1.290
 7428WAT     H222527   4.652   8.403   1.330
 7429WAT      O22528   8.359   0.338   6.187
 7429WAT     H122529   8.408   0.411   6.141
 7429WAT     H222530   8.271   0.372   6.219
 7430WAT      O22531   1.115   6.135   8.556
 7430WAT     H122532   1.084   6.054   8.605
 7430WAT     H222533   1.094   6.124   8.458
 7431WAT      O22534   4.605   8.476   8.002
 7431WAT     H122535   4.542   8.517   8.068
 7431WAT     H222536   4.684   8.537   7.990
 7432WAT      O22537   2.794   1.341   1.088
 7432WAT     H122538   2.855   1.314   1.014
 7432WAT     H222539   2.733   1.413   1.056
 7433WAT      O22540   3.041   7.920   0.996
 7433WAT     H122541   3.126   7.881   1.032
 7433WAT     H222542   3.018   8.002   1.048
 7434WAT      O22543   0.117   6.345   9.656
 7434WAT     H122544   0.038   6.401   9.683
 7434WAT     H222545   0.148   6.292   9.734
 7435WAT      O22546   1.937   3.564   8.790
 7435WAT     H122547   1.865   3.518   8.843
 7435WAT     H222548   1.927   3.539   8.694
 7436WAT      O22549   7.130   1.627   7.120
 7436WAT     H122550   7.078   1.695   7.068
 7436WAT     H222551   7.069   1.554   7.150
 7437WAT      O22552   4.138   1.571   8.904
 7437WAT     H122553   4.046   1.550   8.869
 7437WAT     H222554   4.198   1.596   8.828
 7438WAT      O22555   5.145   9.067   1.994
 7438WAT     H122556   5.159   9.166   1.989
 7438WAT     H222557   5.233   9.020   1.988
 7439WAT      O22558   3.888   4.919   4.877
 7439WAT     H122559   3.832   4.920   4.794
 7439WAT     H222560   3.981   4.891   4.854
 7440WAT      O22561   5.830   9.160   3.607
 7440WAT     H122562   5.814   9.084   3.669
 7440WAT     H222563   5.905   9.217   3.642
 7441WAT      O22564   4.014   2.128   4.215
 7441WAT     H122565   4.003   2.054   4.148
 7441WAT     H222566   4.102   2.174   4.199
 7442WAT      O22567   5.292   7.250   1.031
 7442WAT     H122568   5.321   7.283   1.121
 7442WAT     H222569   5.192   7.256   1.024
 7443WAT      O22570   0.320   7.983   5.216
 7443WAT     H122571   0.330   8.011   5.312
 7443WAT     H222572   0.379   8.039   5.158
 7444WAT      O22573   3.480   1.904   9.780
 7444WAT     H122574   3.547   1.972   9.751
 7444WAT     H222575   3.528   1.822   9.812
 7445WAT      O22576   4.310   9.188   0.783
 7445WAT     H122577   4.331   9.274   0.829
 7445WAT     H222578   4.389   9.127   0.790
 7446WAT      O22579   2.647   7.192   5.104
 7446WAT     H122580   2.671   7.095   5.097
 7446WAT     H222581   2.556   7.201   5.145
 7447WAT      O22582   3.916   8.544   1.885
 7447WAT     H122583   3.828   8.578   1.918
 7447WAT     H222584   3.916   8.542   1.785
 7448WAT      O22585   1.432   2.710   5.272
 7448WAT     H122586   1.485   2.737   5.192
 7448WAT     H222587   1.450   2.774   5.347
 7449WAT      O22588   4.843   4.230   2.101
 7449WAT     H122589   4.785   4.307   2.123
 7449WAT     H222590   4.803   4.146   2.138
 7450WAT      O22591   3.600   8.180   0.984
 7450WAT     H122592   3.547   8.244   0.929
 7450WAT     H222593   3.653   8.230   1.052
 7451WAT      O22594   1.234   8.116   1.916
 7451WAT     H122595   1.278   8.092   2.002
 7451WAT     H222596   1.237   8.215   1.903
 7452WAT      O22597   0.254   9.567   7.998
 7452WAT     H122598   0.198   9.492   8.032
 7452WAT     H222599   0.337   9.531   7.956
 7453WAT      O22600   7.247   2.135   4.799
 7453WAT     H122601   7.202   2.173   4.719
 7453WAT     H222602   7.220   2.039   4.810
 7454WAT      O22603   1.838   7.065   2.561
 7454WAT     H122604   1.837   6.977   2.609
 7454WAT     H222605   1.910   7.063   2.491
 7455WAT      O22606   8.658   6.513   5.205
 7455WAT     H122607   8.662   6.415   5.187
 7455WAT     H222608   8.617   6.559   5.127
 7456WAT      O22609   3.201   5.308   5.491
 7456WAT     H122610   3.206   5.230   5.428
 7456WAT     H222611   3.234   5.390   5.445
 7457WAT      O22612   7.679   2.637   4.759
 7457WAT     H122613   7.606   2.700   4.734
 7457WAT     H222614   7.705   2.650   4.854
 7458WAT      O22615   8.091   9.454   6.536
 7458WAT     H122616   8.166   9.508   6.574
 7458WAT     H222617   8.024   9.515   6.495
 7459WAT      O22618   3.113   5.662   7.759
 7459WAT     H122619   3.073   5.656   7.851
 7459WAT     H222620   3.194   5.604   7.755
 7460WAT      O22621   7.477   1.102   0.153
 7460WAT     H122622   7.472   1.059   0.243
 7460WAT     H222623   7.459   1.033   0.083
 7461WAT      O22624   7.273   8.554   3.345
 7461WAT     H122625   7.210   8.498   3.291
 7461WAT     H222626   7.360   8.561   3.298
 7462WAT      O22627   3.428   8.859   2.166
 7462WAT     H122628   3.418   8.811   2.078
 7462WAT     H222629   3.520   8.845   2.201
 7463WAT      O22630   2.572   2.007   1.887
 7463WAT     H122631   2.596   1.939   1.818
 7463WAT     H222632   2.626   2.090   1.872
 7464WAT      O22633   7.594   8.641   5.618
 7464WAT     H122634   7.494   8.647   5.616
 7464WAT     H222635   7.622   8.546   5.635
 7465WAT      O22636   9.232   0.586   9.202
 7465WAT     H122637   9.269   0.501   9.240
 7465WAT     H222638   9.134   0.592   9.224
 7466WAT      O22639   2.644   2.301   9.730
 7466WAT     H122640   2.566   2.272   9.675
 7466WAT     H222641   2.729   2.278   9.682
 7467WAT      O22642   1.133   9.515   2.441
 7467WAT     H122643   1.227   9.482   2.434
 7467WAT     H222644   1.110   9.532   2.537
 7468WAT      O22645   9.564   4.444   3.872
 7468WAT     H122646   9.520   4.523   3.913
 7468WAT     H222647   9.502   4.401   3.806
 7469WAT      O22648   6.602   1.475   7.511
 7469WAT     H122649   6.539   1.507   7.439
 7469WAT     H222650   6.576   1.516   7.598
 7470WAT      O22651   3.242   4.511   6.424
 7470WAT     H122652   3.147   4.489   6.448
 7470WAT     H222653   3.304   4.468   6.490
 7471WAT      O22654   2.688   1.517   0.019
 7471WAT     H122655   2.638   1.598   0.048
 7471WAT     H222656   2.735   1.536  -0.068
 7472WAT      O22657   5.488   4.616   7.720
 7472WAT     H122658   5.585   4.616   7.697
 7472WAT     H222659   5.463   4.527   7.760
 7473WAT      O22660   9.076   4.985   8.302
 7473WAT     H122661   9.027   5.029   8.378
 7473WAT     H222662   9.053   4.888   8.300
 7474WAT      O22663   9.093   0.208   2.975
 7474WAT     H122664   9.136   0.167   3.055
 7474WAT     H222665   9.114   0.306   2.972
 7475WAT      O22666   9.188   2.535   9.322
 7475WAT     H122667   9.158   2.605   9.257
 7475WAT     H222668   9.173   2.567   9.415
 7476WAT      O22669   1.158   6.563   5.473
 7476WAT     H122670   1.142   6.607   5.384
 7476WAT     H222671   1.173   6.633   5.543
 7477WAT      O22672   0.453   0.468   3.716
 7477WAT     H122673   0.472   0.467   3.618
 7477WAT     H222674   0.448   0.562   3.748
 7478WAT      O22675   0.069   6.094   7.631
 7478WAT     H122676   0.063   6.187   7.667
 7478WAT     H222677   0.139   6.090   7.560
 7479WAT      O22678   1.240   8.846   6.602
 7479WAT     H122679   1.271   8.753   6.622
 7479WAT     H222680   1.151   8.843   6.558
 7480WAT      O22681   8.782   6.949   8.144
 7480WAT     H122682   8.828   7.030   8.107
 7480WAT     H222683   8.847   6.894   8.196
 7481WAT      O22684   0.969   3.907   8.865
 7481WAT     H122685   0.923   3.820   8.877
 7481WAT     H222686   1.068   3.892   8.856
 7482WAT      O22687   0.314   4.966   0.753
 7482WAT     H122688   0.244   5.012   0.699
 7482WAT     H222689   0.377   5.034   0.790
 7483WAT      O22690   0.033   1.306   5.276
 7483WAT     H122691  -0.052   1.286   5.325
 7483WAT     H222692   0.020   1.388   5.220
 7484WAT      O22693   1.794   3.417   6.835
 7484WAT     H122694   1.755   3.330   6.808
 7484WAT     H222695   1.758   3.490   6.777
 7485WAT      O22696   6.104   7.762   5.312
 7485WAT     H122697   6.031   7.752   5.244
 7485WAT     H222698   6.109   7.857   5.343
 7486WAT      O22699   5.337   2.113   4.290
 7486WAT     H122700   5.280   2.195   4.281
 7486WAT     H222701   5.324   2.056   4.209
 7487WAT      O22702   7.839   6.935   5.109
 7487WAT     H122703   7.898   6.855   5.113
 7487WAT     H222704   7.874   7.005   5.172
 7488WAT      O22705   2.769   6.449   4.327
 7488WAT     H122706   2.774   6.421   4.231
 7488WAT     H222707   2.860   6.446   4.368
 7489WAT      O22708   4.276   3.753   7.802
 7489WAT     H122709   4.357   3.739   7.746
 7489WAT     H222710   4.216   3.820   7.758
 7490WAT      O22711   5.722   1.161   2.284
 7490WAT     H122712   5.748   1.148   2.380
 7490WAT     H222713   5.639   1.216   2.279
 7491WAT      O22714   9.773   4.994   0.738
 7491WAT     H122715   9.728   4.918   0.692
 7491WAT     H222716   9.793   4.970   0.833
 7492WAT      O22717   1.021   8.882   6.338
 7492WAT     H122718   1.087   8.880   6.263
 7492WAT     H222719   0.953   8.810   6.324
 7493WAT      O22720   4.443   2.035   7.461
 7493WAT     H122721   4.453   2.048   7.363
 7493WAT     H222722   4.482   1.946   7.487
 7494WAT      O22723   9.819   4.872   9.173
 7494WAT     H122724   9.805   4.788   9.226
 7494WAT     H222725   9.735   4.927   9.175
 7495WAT      O22726   1.780   7.751   3.981
 7495WAT     H122727   1.843   7.750   4.059
 7495WAT     H222728   1.812   7.816   3.912
 7496WAT      O22729   5.742   7.301   8.653
 7496WAT     H122730   5.790   7.284   8.738
 7496WAT     H222731   5.782   7.246   8.580
 7497WAT      O22732   4.003   3.223   7.256
 7497WAT     H122733   4.087   3.277   7.248
 7497WAT     H222734   4.027   3.126   7.260
 7498WAT      O22735   7.921   4.599   1.984
 7498WAT     H122736   7.901   4.505   1.958
 7498WAT     H222737   7.909   4.659   1.905
 7499WAT      O22738   4.084   3.062   2.325
 7499WAT     H122739   4.153   2.993   2.303
 7499WAT     H222740   4.063   3.116   2.243
 7500WAT      O22741   5.123   1.854   5.294
 7500WAT     H122742   5.144   1.870   5.391
 7500WAT     H222743   5.149   1.760   5.270
 7501WAT      O22744   7.746   3.725   7.090
 7501WAT     H122745   7.784   3.778   7.166
 7501WAT     H222746   7.794   3.749   7.006
 7502WAT      O22747   8.053   6.000   3.748
 7502WAT     H122748   8.049   6.080   3.807
 7502WAT     H222749   8.095   5.924   3.797
 7503WAT      O22750   8.537   5.164   6.739
 7503WAT     H122751   8.586   5.135   6.821
 7503WAT     H222752   8.533   5.089   6.673
 7504WAT      O22753   3.472   9.360   9.314
 7504WAT     H122754   3.475   9.268   9.274
 7504WAT     H222755   3.410   9.361   9.392
 7505WAT      O22756   3.812   1.909   1.610
 7505WAT     H122757   3.883   1.977   1.629
 7505WAT     H222758   3.837   1.822   1.653
 7506WAT      O22759   2.416   1.594   8.950
 7506WAT     H122760   2.405   1.507   8.997
 7506WAT     H222761   2.417   1.579   8.851
 7507WAT      O22762   4.247   2.617   0.678
 7507WAT     H122763   4.245   2.706   0.723
 7507WAT     H222764   4.339   2.599   0.643
 7508WAT      O22765   5.814   5.810   5.450
 7508WAT     H122766   5.866   5.834   5.533
 7508WAT     H222767   5.774   5.893   5.411
 7509WAT      O22768   6.845   0.930   2.411
 7509WAT     H122769   6.857   1.028   2.427
 7509WAT     H222770   6.854   0.881   2.497
 7510WAT      O22771   9.374   9.793   7.165
 7510WAT     H122772   9.424   9.865   7.117
 7510WAT     H222773   9.346   9.826   7.255
 7511WAT      O22774   5.803   3.957   3.122
 7511WAT     H122775   5.850   4.029   3.172
 7511WAT     H222776   5.739   3.998   3.057
 7512WAT      O22777   5.488   5.527   0.013
 7512WAT     H122778   5.398   5.564   0.038
 7512WAT     H222779   5.477   5.440  -0.034
 7513WAT      O22780   2.523   5.884   7.683
 7513WAT     H122781   2.598   5.939   7.717
 7513WAT     H222782   2.557   5.794   7.653
 7514WAT      O22783   2.747   4.739   8.086
 7514WAT     H122784   2.755   4.708   8.180
 7514WAT     H222785   2.721   4.836   8.084
 7515WAT      O22786   9.301   1.701   9.383
 7515WAT     H122787   9.365   1.777   9.394
 7515WAT     H222788   9.230   1.707   9.454
 7516WAT      O22789   5.116   9.329   3.456
 7516WAT     H122790   5.142   9.402   3.393
 7516WAT     H222791   5.064   9.368   3.532
 7517WAT      O22792   3.665   0.681   3.758
 7517WAT     H122793   3.680   0.583   3.774
 7517WAT     H222794   3.753   0.726   3.744
 7518WAT      O22795   9.626   9.441   9.587
 7518WAT     H122796   9.559   9.502   9.629
 7518WAT     H222797   9.598   9.346   9.603
 7519WAT      O22798   1.444   5.723   8.302
 7519WAT     H122799   1.347   5.709   8.281
 7519WAT     H222800   1.464   5.821   8.301
 7520WAT      O22801   1.662   5.138   6.947
 7520WAT     H122802   1.707   5.223   6.920
 7520WAT     H222803   1.584   5.120   6.886
 7521WAT      O22804   1.925   5.865   8.543
 7521WAT     H122805   1.900   5.824   8.630
 7521WAT     H222806   1.842   5.886   8.491
 7522WAT      O22807   9.041   6.285   4.462
 7522WAT     H122808   8.988   6.299   4.378
 7522WAT     H222809   9.006   6.205   4.510
 7523WAT      O22810   8.654   7.368   8.274
 7523WAT     H122811   8.577   7.374   8.338
 7523WAT     H222812   8.737   7.401   8.320
 7524WAT      O22813   7.338   6.936   4.380
 7524WAT     H122814   7.379   6.907   4.293
 7524WAT     H222815   7.360   6.869   4.451
 7525WAT      O22816   0.943   4.731   7.006
 7525WAT     H122817   1.004   4.686   7.071
 7525WAT     H222818   0.923   4.824   7.037
 7526WAT      O22819   3.928   3.199   2.114
 7526WAT     H122820   3.879   3.163   2.035
 7526WAT     H222821   3.988   3.274   2.085
 7527WAT      O22822   5.284   7.236   4.850
 7527WAT     H122823   5.225   7.234   4.931
 7527WAT     H222824   5.376   7.207   4.875
 7528WAT      O22825   3.002   3.558   7.994
 7528WAT     H122826   3.069   3.633   7.996
 7528WAT     H222827   2.980   3.530   8.087
 7529WAT      O22828   8.792   7.483   2.215
 7529WAT     H122829   8.770   7.580   2.203
 7529WAT     H222830   8.846   7.451   2.137
 7530WAT      O22831   3.141   4.888   7.048
 7530WAT     H122832   3.086   4.805   7.058
 7530WAT     H222833   3.140   4.917   6.952
 7531WAT      O22834   9.126   0.720   4.709
 7531WAT     H122835   9.164   0.691   4.796
 7531WAT     H222836   9.035   0.760   4.724
 7532WAT      O22837   8.741   7.125   7.721
 7532WAT     H122838   8.712   7.058   7.653
 7532WAT     H222839   8.775   7.207   7.674
 7533WAT      O22840   6.633   5.046   7.145
 7533WAT     H122841   6.534   5.036   7.132
 7533WAT     H222842   6.651   5.073   7.239
 7534WAT      O22843   3.906   2.879   2.406
 7534WAT     H122844   3.926   2.784   2.383
 7534WAT     H222845   3.986   2.936   2.383
 7535WAT      O22846   9.023   8.179   7.912
 7535WAT     H122847   8.995   8.228   7.994
 7535WAT     H222848   9.116   8.145   7.923
 7536WAT      O22849   7.317   0.520   5.042
 7536WAT     H122850   7.387   0.470   4.990
 7536WAT     H222851   7.326   0.498   5.139
 7537WAT      O22852   4.340   2.302   3.866
 7537WAT     H122853   4.379   2.219   3.825
 7537WAT     H222854   4.292   2.354   3.796
 7538WAT      O22855   6.207   5.796   3.016
 7538WAT     H122856   6.177   5.892   3.013
 7538WAT     H222857   6.290   5.786   2.961
 7539WAT      O22858   3.220   8.491   4.228
 7539WAT     H122859   3.132   8.458   4.194
 7539WAT     H222860   3.294   8.437   4.188
 7540WAT      O22861   6.790   9.302   1.927
 7540WAT     H122862   6.810   9.377   1.990
 7540WAT     H222863   6.842   9.221   1.954
 7541WAT      O22864   7.259   1.215   5.723
 7541WAT     H122865   7.172   1.166   5.712
 7541WAT     H222866   7.249   1.284   5.794
 7542WAT      O22867   6.991   6.449   1.513
 7542WAT     H122868   6.989   6.353   1.483
 7542WAT     H222869   6.900   6.488   1.504
 7543WAT      O22870   3.118   1.313   9.116
 7543WAT     H122871   3.218   1.307   9.117
 7543WAT     H222872   3.082   1.244   9.053
 7544WAT      O22873   0.810   8.598   1.338
 7544WAT     H122874   0.751   8.638   1.408
 7544WAT     H222875   0.894   8.565   1.380
 7545WAT      O22876   3.555   2.171   5.838
 7545WAT     H122877   3.486   2.237   5.868
 7545WAT     H222878   3.568   2.102   5.910
 7546WAT      O22879   3.290   7.093   3.974
 7546WAT     H122880   3.225   7.029   4.014
 7546WAT     H222881   3.264   7.187   3.999
 7547WAT      O22882   1.919   9.236   6.773
 7547WAT     H122883   1.826   9.228   6.736
 7547WAT     H222884   1.947   9.149   6.813
 7548WAT      O22885   2.291   9.044   3.438
 7548WAT     H122886   2.369   9.103   3.414
 7548WAT     H222887   2.242   9.084   3.516
 7549WAT      O22888   0.924   7.027   0.824
 7549WAT     H122889   0.957   6.937   0.797
 7549WAT     H222890   0.829   7.021   0.853
 7550WAT      O22891   7.448   5.920   3.821
 7550WAT     H122892   7.510   5.981   3.773
 7550WAT     H222893   7.386   5.877   3.755
 7551WAT      O22894   0.292   8.363   3.192
 7551WAT     H122895   0.387   8.373   3.162
 7551WAT     H222896   0.247   8.292   3.137
 7552WAT      O22897   4.202   6.257   5.250
 7552WAT     H122898   4.165   6.192   5.316
 7552WAT     H222899   4.299   6.235   5.233
 7553WAT      O22900   7.959   3.395   4.072
 7553WAT     H122901   7.867   3.386   4.110
 7553WAT     H222902   7.953   3.414   3.974
 7554WAT      O22903   9.793   6.572   2.789
 7554WAT     H122904   9.713   6.623   2.758
 7554WAT     H222905   9.763   6.487   2.833
 7555WAT      O22906   5.793   9.137   7.137
 7555WAT     H122907   5.801   9.140   7.037
 7555WAT     H222908   5.810   9.228   7.174
 7556WAT      O22909   0.410   8.269   7.299
 7556WAT     H122910   0.425   8.354   7.349
 7556WAT     H222911   0.314   8.261   7.274
 7557WAT      O22912   2.465   8.681   3.233
 7557WAT     H122913   2.509   8.612   3.176
 7557WAT     H222914   2.492   8.772   3.202
 7558WAT      O22915   0.703   2.106   2.109
 7558WAT     H122916   0.786   2.148   2.145
 7558WAT     H222917   0.642   2.178   2.075
 7559WAT      O22918   9.229   2.548   7.909
 7559WAT     H122919   9.223   2.601   7.994
 7559WAT     H222920   9.209   2.452   7.929
 7560WAT      O22921   9.765   2.475   3.018
 7560WAT     H122922   9.804   2.416   3.089
 7560WAT     H222923   9.809   2.454   2.930
 7561WAT      O22924   7.385   1.192   7.182
 7561WAT     H122925   7.398   1.102   7.141
 7561WAT     H222926   7.366   1.182   7.280
 7562WAT      O22927   1.001   2.266   9.624
 7562WAT     H122928   1.000   2.360   9.660
 7562WAT     H222929   0.929   2.213   9.668
 7563WAT      O22930   0.078   4.602   4.540
 7563WAT     H122931   0.033   4.596   4.451
 7563WAT     H222932   0.081   4.698   4.569
 7564WAT      O22933   9.480   9.493   7.273
 7564WAT     H122934   9.440   9.515   7.185
 7564WAT     H222935   9.481   9.574   7.331
 7565WAT      O22936   4.282   5.163   1.188
 7565WAT     H122937   4.339   5.239   1.157
 7565WAT     H222938   4.199   5.159   1.133
 7566WAT      O22939   0.791   4.440   7.109
 7566WAT     H122940   0.768   4.411   7.016
 7566WAT     H222941   0.726   4.399   7.173
 7567WAT      O22942   4.632   1.524   6.166
 7567WAT     H122943   4.704   1.552   6.103
 7567WAT     H222944   4.543   1.549   6.128
 7568WAT      O22945   8.791   0.930   2.995
 7568WAT     H122946   8.874   0.914   2.942
 7568WAT     H222947   8.764   1.026   2.987
 7569WAT      O22948   4.415   6.930   0.262
 7569WAT     H122949   4.376   6.982   0.186
 7569WAT     H222950   4.482   6.987   0.310
 7570WAT      O22951   9.575   8.314   6.795
 7570WAT     H122952   9.553   8.399   6.747
 7570WAT     H222953   9.508   8.244   6.770
 7571WAT      O22954   2.703   5.065   9.439
 7571WAT     H122955   2.679   4.968   9.438
 7571WAT     H222956   2.626   5.118   9.475
 7572WAT      O22957   0.349   5.696   8.998
 7572WAT     H122958   0.394   5.735   8.917
 7572WAT     H222959   0.395   5.728   9.080
 7573WAT      O22960   3.039   8.341   6.658
 7573WAT     H122961   2.976   8.307   6.589
 7573WAT     H222962   3.044   8.276   6.734
 7574WAT      O22963   9.223   7.546   4.145
 7574WAT     H122964   9.195   7.452   4.167
 7574WAT     H222965   9.268   7.547   4.056
 7575WAT      O22966   7.982   5.743   9.829
 7575WAT     H122967   7.920   5.818   9.852
 7575WAT     H222968   7.958   5.663   9.883
 7576WAT      O22969   8.810   8.789   0.707
 7576WAT     H122970   8.902   8.774   0.744
 7576WAT     H222971   8.775   8.704   0.670
 7577WAT      O22972   5.187   2.977   9.607
 7577WAT     H122973   5.181   2.990   9.706
 7577WAT     H222974   5.192   3.066   9.562
 7578WAT      O22975   8.363   8.969   7.087
 7578WAT     H122976   8.453   8.926   7.083
 7578WAT     H222977   8.352   9.032   7.010
 7579WAT      O22978   7.681   5.984   6.738
 7579WAT     H122979   7.732   5.953   6.818
 7579WAT     H222980   7.628   5.907   6.701
 7580WAT      O22981   2.606   9.710   6.133
 7580WAT     H122982   2.669   9.685   6.206
 7580WAT     H222983   2.512   9.708   6.168
 7581WAT      O22984   3.586   3.636   3.060
 7581WAT     H122985   3.682   3.653   3.038
 7581WAT     H222986   3.559   3.546   3.027
 7582WAT      O22987   4.426   6.921   9.346
 7582WAT     H122988   4.515   6.882   9.373
 7582WAT     H222989   4.441   7.003   9.291
 7583WAT      O22990   2.554   3.585   9.234
 7583WAT     H122991   2.586   3.583   9.139
 7583WAT     H222992   2.458   3.554   9.237
 7584WAT      O22993   5.838   3.154   3.345
 7584WAT     H122994   5.903   3.132   3.272
 7584WAT     H222995   5.752   3.106   3.329
 7585WAT      O22996   8.009   0.595   8.497
 7585WAT     H122997   8.100   0.588   8.538
 7585WAT     H222998   8.006   0.672   8.434
 7586WAT      O22999   8.408   8.405   0.795
 7586WAT     H123000   8.468   8.464   0.849
 7586WAT     H223001   8.318   8.401   0.839
 7587WAT      O23002   7.246   2.730   1.908
 7587WAT     H123003   7.229   2.667   1.984
 7587WAT     H223004   7.159   2.753   1.864
 7588WAT      O23005   4.919   8.130   1.020
 7588WAT     H123006   4.863   8.053   0.991
 7588WAT     H223007   4.909   8.144   1.119
 7589WAT      O23008   7.041   2.501   1.782
 7589WAT     H123009   7.028   2.506   1.881
 7589WAT     H223010   7.079   2.412   1.758
 7590WAT      O23011   6.785   5.951   2.247
 7590WAT     H123012   6.821   6.030   2.298
 7590WAT     H223013   6.829   5.868   2.281
 7591WAT      O23014   2.766   1.643   9.660
 7591WAT     H123015   2.711   1.696   9.596
 7591WAT     H223016   2.855   1.623   9.618
 7592WAT      O23017   5.644   2.355   4.418
 7592WAT     H123018   5.700   2.436   4.433
 7592WAT     H223019   5.588   2.368   4.336
 7593WAT      O23020   3.354   9.449   8.566
 7593WAT     H123021   3.404   9.533   8.543
 7593WAT     H223022   3.416   9.371   8.562
 7594WAT      O23023   9.503   3.427   5.124
 7594WAT     H123024   9.423   3.367   5.132
 7594WAT     H223025   9.502   3.495   5.197
 7595WAT      O23026   8.065   0.074   0.229
 7595WAT     H123027   8.093   0.094   0.135
 7595WAT     H223028   8.131   0.114   0.293
 7596WAT      O23029   6.491   2.423   1.916
 7596WAT     H123030   6.525   2.499   1.971
 7596WAT     H223031   6.400   2.447   1.880
 7597WAT      O23032   2.460   0.068   9.880
 7597WAT     H123033   2.519   0.116   9.944
 7597WAT     H223034   2.512  -0.003   9.833
 7598WAT      O23035   8.089   3.875   1.892
 7598WAT     H123036   8.133   3.951   1.941
 7598WAT     H223037   7.996   3.863   1.926
 7599WAT      O23038   5.293   6.675   7.305
 7599WAT     H123039   5.206   6.633   7.280
 7599WAT     H223040   5.368   6.626   7.260
 7600WAT      O23041   1.739   6.427   8.672
 7600WAT     H123042   1.693   6.342   8.647
 7600WAT     H223043   1.828   6.405   8.712
 7601WAT      O23044   7.985   9.120   2.733
 7601WAT     H123045   7.916   9.157   2.795
 7601WAT     H223046   8.069   9.173   2.741
 7602WAT      O23047   9.465   5.565   4.694
 7602WAT     H123048   9.451   5.490   4.759
 7602WAT     H223049   9.520   5.637   4.737
 7603WAT      O23050   5.020   7.146   9.396
 7603WAT     H123051   4.926   7.179   9.388
 7603WAT     H223052   5.081   7.205   9.343
 7604WAT      O23053   1.478   1.421   0.996
 7604WAT     H123054   1.471   1.512   0.954
 7604WAT     H223055   1.387   1.385   1.013
 7605WAT      O23056   7.891   3.072   9.868
 7605WAT     H123057   7.829   3.072   9.790
 7605WAT     H223058   7.976   3.025   9.844
 7606WAT      O23059   4.793   6.444   7.488
 7606WAT     H123060   4.860   6.470   7.558
 7606WAT     H223061   4.803   6.503   7.408
 7607WAT      O23062   7.217   6.515   6.830
 7607WAT     H123063   7.226   6.579   6.907
 7607WAT     H223064   7.121   6.499   6.810
 7608WAT      O23065   0.172   8.796   2.332
 7608WAT     H123066   0.190   8.806   2.429
 7608WAT     H223067   0.201   8.879   2.284
 7609WAT      O23068   4.289   3.639   7.289
 7609WAT     H123069   4.322   3.622   7.382
 7609WAT     H223070   4.195   3.606   7.281
 7610WAT      O23071   4.142   7.284   4.746
 7610WAT     H123072   4.089   7.357   4.788
 7610WAT     H223073   4.081   7.207   4.725
 7611WAT      O23074   1.302   3.229   5.453
 7611WAT     H123075   1.210   3.241   5.492
 7611WAT     H223076   1.344   3.319   5.441
 7612WAT      O23077   7.746   6.348   6.583
 7612WAT     H123078   7.773   6.443   6.598
 7612WAT     H223079   7.672   6.324   6.645
 7613WAT      O23080   4.018   8.365   6.589
 7613WAT     H123081   4.106   8.375   6.541
 7613WAT     H223082   4.017   8.426   6.668
 7614WAT      O23083   1.646   4.157   9.731
 7614WAT     H123084   1.600   4.222   9.671
 7614WAT     H223085   1.590   4.140   9.812
 7615WAT      O23086   2.298   3.194   9.845
 7615WAT     H123087   2.257   3.151   9.926
 7615WAT     H223088   2.397   3.179   9.845
 7616WAT      O23089   1.943   3.190   9.095
 7616WAT     H123090   2.021   3.165   9.154
 7616WAT     H223091   1.951   3.142   9.008
 7617WAT      O23092   8.802   8.114   2.274
 7617WAT     H123093   8.844   8.058   2.203
 7617WAT     H223094   8.749   8.188   2.231
 7618WAT      O23095   1.569   8.550   3.649
 7618WAT     H123096   1.667   8.554   3.627
 7618WAT     H223097   1.555   8.489   3.726
 7619WAT      O23098   5.483   0.558   7.741
 7619WAT     H123099   5.557   0.503   7.702
 7619WAT     H223100   5.489   0.651   7.705
 7620WAT      O23101   7.096   5.581   6.091
 7620WAT     H123102   7.127   5.674   6.069
 7620WAT     H223103   7.106   5.522   6.011
 7621WAT      O23104   0.854   0.274   6.384
 7621WAT     H123105   0.850   0.365   6.426
 7621WAT     H223106   0.941   0.230   6.408
 7622WAT      O23107   1.000   3.318   8.329
 7622WAT     H123108   0.955   3.239   8.369
 7622WAT     H223109   1.032   3.378   8.403
 7623WAT      O23110   2.216   0.163   5.810
 7623WAT     H123111   2.276   0.240   5.832
 7623WAT     H223112   2.267   0.077   5.817
 7624WAT      O23113   6.920   6.108   4.336
 7624WAT     H123114   6.848   6.065   4.281
 7624WAT     H223115   7.008   6.097   4.290
 7625WAT      O23116   3.486   8.711   3.381
 7625WAT     H123117   3.504   8.803   3.346
 7625WAT     H223118   3.413   8.668   3.326
 7626WAT      O23119   6.365   6.255   3.668
 7626WAT     H123120   6.303   6.287   3.596
 7626WAT     H223121   6.385   6.158   3.654
 7627WAT      O23122   2.957   0.090   0.282
 7627WAT     H123123   2.941   0.077   0.184
 7627WAT     H223124   2.873   0.121   0.326
 7628WAT      O23125   9.757   4.498   8.607
 7628WAT     H123126   9.722   4.589   8.582
 7628WAT     H223127   9.848   4.508   8.648
 7629WAT      O23128   3.008   4.654   9.581
 7629WAT     H123129   3.043   4.562   9.562
 7629WAT     H223130   2.980   4.697   9.496
 7630WAT      O23131   7.829   5.948   9.119
 7630WAT     H123132   7.888   5.890   9.061
 7630WAT     H223133   7.842   6.044   9.093
 7631WAT      O23134   8.675   8.605   5.519
 7631WAT     H123135   8.676   8.537   5.445
 7631WAT     H223136   8.581   8.621   5.548
 7632WAT      O23137   6.265   5.060   6.501
 7632WAT     H123138   6.248   5.007   6.584
 7632WAT     H223139   6.179   5.072   6.451
 7633WAT      O23140   2.963   3.686   8.792
 7633WAT     H123141   2.920   3.667   8.704
 7633WAT     H223142   2.938   3.777   8.823
 7634WAT      O23143   4.291   7.899   4.138
 7634WAT     H123144   4.272   7.888   4.040
 7634WAT     H223145   4.362   7.834   4.166
 7635WAT      O23146   4.144   2.465   4.252
 7635WAT     H123147   4.137   2.489   4.155
 7635WAT     H223148   4.181   2.373   4.261
 7636WAT      O23149   6.766   4.883   5.149
 7636WAT     H123150   6.803   4.795   5.179
 7636WAT     H223151   6.705   4.869   5.071
 7637WAT      O23152   4.299   7.424   1.431
 7637WAT     H123153   4.217   7.410   1.486
 7637WAT     H223154   4.316   7.343   1.374
 7638WAT      O23155   9.156   5.608   8.075
 7638WAT     H123156   9.089   5.536   8.057
 7638WAT     H223157   9.122   5.669   8.147
 7639WAT      O23158   8.478   8.749   5.921
 7639WAT     H123159   8.534   8.826   5.892
 7639WAT     H223160   8.393   8.747   5.868
 7640WAT      O23161   1.744   1.362   9.359
 7640WAT     H123162   1.787   1.412   9.284
 7640WAT     H223163   1.667   1.308   9.324
 7641WAT      O23164   5.939   2.532   5.731
 7641WAT     H123165   5.900   2.577   5.651
 7641WAT     H223166   5.875   2.537   5.807
 7642WAT      O23167   9.054   2.956   3.133
 7642WAT     H123168   9.122   2.956   3.060
 7642WAT     H223169   9.091   3.000   3.215
 7643WAT      O23170   9.447   4.667   3.675
 7643WAT     H123171   9.507   4.590   3.697
 7643WAT     H223172   9.402   4.650   3.588
 7644WAT      O23173   7.077   2.685   7.405
 7644WAT     H123174   6.986   2.686   7.446
 7644WAT     H223175   7.144   2.655   7.473
 7645WAT      O23176   9.842   2.704   1.083
 7645WAT     H123177   9.781   2.624   1.084
 7645WAT     H223178   9.803   2.774   1.024
 7646WAT      O23179   8.958   5.129   7.669
 7646WAT     H123180   8.861   5.110   7.650
 7646WAT     H223181   9.012   5.113   7.587
 7647WAT      O23182   3.341   7.120   1.214
 7647WAT     H123183   3.269   7.111   1.284
 7647WAT     H223184   3.300   7.113   1.123
 7648WAT      O23185   1.266   8.344   0.983
 7648WAT     H123186   1.365   8.343   0.992
 7648WAT     H223187   1.237   8.427   0.935
 7649WAT      O23188   4.160   9.104   7.905
 7649WAT     H123189   4.199   9.016   7.934
 7649WAT     H223190   4.196   9.127   7.814
 7650WAT      O23191   3.212   1.989   2.182
 7650WAT     H123192   3.282   1.964   2.249
 7650WAT     H223193   3.149   2.056   2.222
 7651WAT      O23194   8.855   6.786   0.381
 7651WAT     H123195   8.827   6.832   0.465
 7651WAT     H223196   8.781   6.791   0.313
 7652WAT      O23197   1.437   0.761   7.942
 7652WAT     H123198   1.523   0.788   7.986
 7652WAT     H223199   1.414   0.826   7.870
 7653WAT      O23200   8.157   2.495   1.287
 7653WAT     H123201   8.138   2.587   1.321
 7653WAT     H223202   8.101   2.429   1.337
 7654WAT      O23203   4.446   9.748   3.357
 7654WAT     H123204   4.513   9.793   3.416
 7654WAT     H223205   4.475   9.756   3.261
 7655WAT      O23206   4.804   4.433   4.935
 7655WAT     H123207   4.781   4.433   5.032
 7655WAT     H223208   4.842   4.345   4.909
 7656WAT      O23209   8.051   0.569   4.244
 7656WAT     H123210   8.073   0.516   4.326
 7656WAT     H223211   8.082   0.663   4.256
 7657WAT      O23212   3.639   4.546   2.558
 7657WAT     H123213   3.650   4.502   2.646
 7657WAT     H223214   3.572   4.620   2.565
 7658WAT      O23215   2.922   2.311   8.658
 7658WAT     H123216   2.906   2.307   8.757
 7658WAT     H223217   2.848   2.362   8.614
 7659WAT      O23218   0.833   5.375   0.801
 7659WAT     H123219   0.800   5.348   0.711
 7659WAT     H223220   0.782   5.325   0.871
 7660WAT      O23221   1.069   0.191   5.663
 7660WAT     H123222   1.103   0.173   5.755
 7660WAT     H223223   0.972   0.213   5.666
 7661WAT      O23224   2.690   6.478   2.053
 7661WAT     H123225   2.687   6.573   2.083
 7661WAT     H223226   2.715   6.474   1.956
 7662WAT      O23227   3.860   2.308   9.861
 7662WAT     H123228   3.841   2.393   9.910
 7662WAT     H223229   3.930   2.256   9.909
 7663WAT      O23230   4.766   4.781   3.053
 7663WAT     H123231   4.851   4.737   3.081
 7663WAT     H223232   4.785   4.848   2.981
 7664WAT      O23233   8.668   2.565   0.779
 7664WAT     H123234   8.761   2.597   0.797
 7664WAT     H223235   8.607   2.601   0.850
 7665WAT      O23236   5.435   1.318   1.823
 7665WAT     H123237   5.519   1.363   1.852
 7665WAT     H223238   5.377   1.300   1.902
 7666WAT      O23239   6.486   5.343   0.915
 7666WAT     H123240   6.586   5.354   0.918
 7666WAT     H223241   6.461   5.285   0.837
 7667WAT      O23242   7.247   6.952   1.761
 7667WAT     H123243   7.197   7.016   1.818
 7667WAT     H223244   7.186   6.878   1.732
 7668WAT      O23245   6.157   9.261   0.981
 7668WAT     H123246   6.104   9.280   0.898
 7668WAT     H223247   6.146   9.335   1.046
 7669WAT      O23248   4.842   0.752   8.268
 7669WAT     H123249   4.832   0.852   8.263
 7669WAT     H223250   4.827   0.722   8.363
 7670WAT      O23251   5.175   3.007  -0.003
 7670WAT     H123252   5.237   3.067   0.047
 7670WAT     H223253   5.178   2.916   0.037
 7671WAT      O23254   6.649   9.399   3.727
 7671WAT     H123255   6.739   9.377   3.688
 7671WAT     H223256   6.661   9.467   3.799
 7672WAT      O23257   8.700   5.568   0.510
 7672WAT     H123258   8.770   5.588   0.578
 7672WAT     H223259   8.666   5.653   0.470
 7673WAT      O23260   2.165   2.663   7.405
 7673WAT     H123261   2.147   2.738   7.469
 7673WAT     H223262   2.095   2.593   7.415
 7674WAT      O23263   3.381   0.180   3.667
 7674WAT     H123264   3.449   0.186   3.740
 7674WAT     H223265   3.299   0.229   3.694
 7675WAT      O23266   1.906   4.296   2.077
 7675WAT     H123267   1.965   4.267   2.002
 7675WAT     H223268   1.837   4.359   2.043
 7676WAT      O23269   9.274   0.469   0.157
 7676WAT     H123270   9.252   0.526   0.077
 7676WAT     H223271   9.304   0.527   0.232
 7677WAT      O23272   3.124   6.982   1.796
 7677WAT     H123273   3.203   7.009   1.742
 7677WAT     H223274   3.128   7.024   1.886
 7678WAT      O23275   2.161   1.692   6.119
 7678WAT     H123276   2.119   1.739   6.041
 7678WAT     H223277   2.095   1.626   6.156
 7679WAT      O23278   7.866   5.928   1.352
 7679WAT     H123279   7.917   5.918   1.267
 7679WAT     H223280   7.837   5.838   1.384
 7680WAT      O23281   3.912   2.047   6.115
 7680WAT     H123282   3.828   1.992   6.107
 7680WAT     H223283   3.991   1.987   6.125
 7681WAT      O23284   7.484   1.261   4.614
 7681WAT     H123285   7.490   1.170   4.574
 7681WAT     H223286   7.542   1.324   4.561
 7682WAT      O23287   9.355   5.975   8.170
 7682WAT     H123288   9.314   5.996   8.081
 7682WAT     H223289   9.376   5.877   8.174
 7683WAT      O23290   6.786   4.942   0.474
 7683WAT     H123291   6.867   5.000   0.474
 7683WAT     H223292   6.796   4.870   0.542
 7684WAT      O23293   1.457   6.177   6.133
 7684WAT     H123294   1.394   6.236   6.184
 7684WAT     H223295   1.519   6.132   6.197
 7685WAT      O23296   4.696   9.592   2.010
 7685WAT     H123297   4.623   9.579   1.942
 7685WAT     H223298   4.783   9.565   1.971
 7686WAT      O23299   2.224   2.233   0.547
 7686WAT     H123300   2.289   2.297   0.507
 7686WAT     H223301   2.254   2.139   0.528
 7687WAT      O23302   7.909   7.034   0.535
 7687WAT     H123303   7.967   6.955   0.516
 7687WAT     H223304   7.931   7.107   0.471
 7688WAT      O23305   1.295   0.943   1.673
 7688WAT     H123306   1.334   0.859   1.634
 7688WAT     H223307   1.354   0.975   1.747
 7689WAT      O23308   0.563   8.952   8.371
 7689WAT     H123309   0.496   8.889   8.411
 7689WAT     H223310   0.535   9.046   8.390
 7690WAT      O23311   4.802   3.211   5.853
 7690WAT     H123312   4.845   3.121   5.857
 7690WAT     H223313   4.707   3.204   5.883
 7691WAT      O23314   6.655   6.563   6.227
 7691WAT     H123315   6.581   6.581   6.162
 7691WAT     H223316   6.616   6.535   6.315
 7692WAT      O23317   9.327   5.615   3.414
 7692WAT     H123318   9.230   5.627   3.433
 7692WAT     H223319   9.365   5.548   3.478
 7693WAT      O23320   3.332   4.701   6.825
 7693WAT     H123321   3.390   4.752   6.761
 7693WAT     H223322   3.362   4.718   6.919
 7694WAT      O23323   6.686  -0.000   4.644
 7694WAT     H123324   6.640   0.083   4.675
 7694WAT     H223325   6.784   0.016   4.638
 7695WAT      O23326   1.745   3.838   0.777
 7695WAT     H123327   1.835   3.833   0.733
 7695WAT     H223328   1.750   3.898   0.856
 7696WAT      O23329   4.195   0.748   3.757
 7696WAT     H123330   4.232   0.802   3.832
 7696WAT     H223331   4.221   0.790   3.669
 7697WAT      O23332   5.554   3.631   3.021
 7697WAT     H123333   5.616   3.651   3.096
 7697WAT     H223334   5.607   3.606   2.940
 7698WAT      O23335   4.203   1.376   1.251
 7698WAT     H123336   4.282   1.336   1.204
 7698WAT     H223337   4.172   1.314   1.323
 7699WAT      O23338   6.337   6.069   2.600
 7699WAT     H123339   6.308   6.087   2.506
 7699WAT     H223340   6.405   6.136   2.628
 7700WAT      O23341   9.690   5.470   6.364
 7700WAT     H123342   9.781   5.456   6.404
 7700WAT     H223343   9.696   5.463   6.265
 7701WAT      O23344   1.664   9.623   6.559
 7701WAT     H123345   1.575   9.577   6.562
 7701WAT     H223346   1.673   9.682   6.639
 7702WAT      O23347   7.534   3.692   9.585
 7702WAT     H123348   7.480   3.753   9.527
 7702WAT     H223349   7.627   3.685   9.549
 7703WAT      O23350   8.444   8.057   3.375
 7703WAT     H123351   8.414   7.979   3.320
 7703WAT     H223352   8.376   8.077   3.445
 7704WAT      O23353   6.018   5.948   6.340
 7704WAT     H123354   6.031   5.910   6.432
 7704WAT     H223355   6.094   6.011   6.319
 7705WAT      O23356   9.581   6.498   2.966
 7705WAT     H123357   9.578   6.456   3.057
 7705WAT     H223358   9.594   6.596   2.975
 7706WAT      O23359   0.331   7.640   1.815
 7706WAT     H123360   0.407   7.703   1.830
 7706WAT     H223361   0.360   7.565   1.756
 7707WAT      O23362   8.922   1.852   4.648
 7707WAT     H123363   8.939   1.816   4.557
 7707WAT     H223364   8.961   1.791   4.716
 7708WAT      O23365   2.603   9.551   4.726
 7708WAT     H123366   2.625   9.571   4.630
 7708WAT     H223367   2.504   9.559   4.739
 7709WAT      O23368   8.026   9.815   7.521
 7709WAT     H123369   7.947   9.828   7.460
 7709WAT     H223370   8.081   9.899   7.522
 7710WAT      O23371   4.090   8.037   9.435
 7710WAT     H123372   4.127   8.111   9.490
 7710WAT     H223373   4.008   8.001   9.479
 7711WAT      O23374   1.629   9.333   1.036
 7711WAT     H123375   1.684   9.407   1.073
 7711WAT     H223376   1.596   9.275   1.111
 7712WAT      O23377   5.733   7.160   9.010
 7712WAT     H123378   5.692   7.105   9.083
 7712WAT     H223379   5.786   7.101   8.949
 7713WAT      O23380   7.400   7.154   6.821
 7713WAT     H123381   7.357   7.229   6.772
 7713WAT     H223382   7.333   7.081   6.835
 7714WAT      O23383   2.554   3.102   3.386
 7714WAT     H123384   2.632   3.095   3.448
 7714WAT     H223385   2.521   3.010   3.364
 7715WAT      O23386   7.134   3.414   3.360
 7715WAT     H123387   7.128   3.324   3.318
 7715WAT     H223388   7.045   3.441   3.395
 7716WAT      O23389   9.255   0.133   6.510
 7716WAT     H123390   9.338   0.096   6.550
 7716WAT     H223391   9.277   0.215   6.457
 7717WAT      O23392   0.158   5.288   3.003
 7717WAT     H123393   0.256   5.281   2.982
 7717WAT     H223394   0.107   5.301   2.918
 7718WAT      O23395   8.124   9.490   6.228
 7718WAT     H123396   8.091   9.533   6.312
 7718WAT     H223397   8.050   9.487   6.161
 7719WAT      O23398   4.625   9.787   9.170
 7719WAT     H123399   4.637   9.838   9.085
 7719WAT     H223400   4.665   9.840   9.246
 7720WAT      O23401   2.238   3.574   2.469
 7720WAT     H123402   2.199   3.655   2.511
 7720WAT     H223403   2.257   3.593   2.372
 7721WAT      O23404   8.046   1.393   0.511
 7721WAT     H123405   8.028   1.319   0.446
 7721WAT     H223406   8.106   1.360   0.584
 7722WAT      O23407   8.824   1.045   7.018
 7722WAT     H123408   8.897   1.005   6.962
 7722WAT     H223409   8.864   1.087   7.100
 7723WAT      O23410   4.956   6.371   8.327
 7723WAT     H123411   5.029   6.318   8.371
 7723WAT     H223412   4.896   6.309   8.275
 7724WAT      O23413   8.703   9.508   6.867
 7724WAT     H123414   8.697   9.599   6.826
 7724WAT     H223415   8.684   9.515   6.965
 7725WAT      O23416   7.882   0.198   9.533
 7725WAT     H123417   7.882   0.110   9.485
 7725WAT     H223418   7.954   0.257   9.495
 7726WAT      O23419   6.185   4.874   4.074
 7726WAT     H123420   6.119   4.946   4.052
 7726WAT     H223421   6.153   4.824   4.154
 7727WAT      O23422   4.215   2.932   2.656
 7727WAT     H123423   4.179   2.840   2.643
 7727WAT     H223424   4.143   2.990   2.694
 7728WAT      O23425   3.384   6.502   2.600
 7728WAT     H123426   3.439   6.421   2.618
 7728WAT     H223427   3.439   6.584   2.613
 7729WAT      O23428   1.046   0.523   6.238
 7729WAT     H123429   1.121   0.457   6.233
 7729WAT     H223430   0.960   0.477   6.218
 7730WAT      O23431   8.268   2.683   6.415
 7730WAT     H123432   8.341   2.744   6.383
 7730WAT     H223433   8.179   2.725   6.398
 7731WAT      O23434   5.312   3.265   4.929
 7731WAT     H123435   5.342   3.252   5.023
 7731WAT     H223436   5.379   3.320   4.880
 7732WAT      O23437   1.459   7.816   3.282
 7732WAT     H123438   1.541   7.870   3.264
 7732WAT     H223439   1.479   7.744   3.348
 7733WAT      O23440   5.327   5.015   4.986
 7733WAT     H123441   5.323   5.077   5.064
 7733WAT     H223442   5.360   5.065   4.905
 7734WAT      O23443   6.111   9.332   3.375
 7734WAT     H123444   6.153   9.251   3.334
 7734WAT     H223445   6.035   9.362   3.319
 7735WAT      O23446   1.081   6.290   0.211
 7735WAT     H123447   0.983   6.270   0.207
 7735WAT     H223448   1.116   6.301   0.118
 7736WAT      O23449   3.974   1.532   0.877
 7736WAT     H123450   4.016   1.575   0.957
 7736WAT     H223451   4.019   1.565   0.794
 7737WAT      O23452   0.638   7.487   3.203
 7737WAT     H123453   0.681   7.411   3.154
 7737WAT     H223454   0.701   7.565   3.205
 7738WAT      O23455   4.626   7.623   4.115
 7738WAT     H123456   4.572   7.547   4.078
 7738WAT     H223457   4.709   7.586   4.158
 7739WAT      O23458   0.673   7.310   8.220
 7739WAT     H123459   0.730   7.379   8.175
 7739WAT     H223460   0.650   7.341   8.312
 7740WAT      O23461   5.719   0.013   1.635
 7740WAT     H123462   5.800  -0.002   1.692
 7740WAT     H223463   5.663  -0.070   1.635
 7741WAT      O23464   1.208   7.436   9.016
 7741WAT     H123465   1.116   7.428   9.053
 7741WAT     H223466   1.219   7.374   8.938
 7742WAT      O23467   6.745   6.151   1.337
 7742WAT     H123468   6.737   6.081   1.408
 7742WAT     H223469   6.687   6.229   1.361
 7743WAT      O23470   7.157   8.168   5.507
 7743WAT     H123471   7.097   8.088   5.509
 7743WAT     H223472   7.215   8.169   5.589
 7744WAT      O23473   0.561   7.884   9.773
 7744WAT     H123474   0.495   7.934   9.830
 7744WAT     H223475   0.560   7.920   9.680
 7745WAT      O23476   6.556   3.228   8.025
 7745WAT     H123477   6.614   3.182   7.958
 7745WAT     H223478   6.460   3.220   7.997
 7746WAT      O23479   8.787   8.290   5.942
 7746WAT     H123480   8.793   8.261   6.038
 7746WAT     H223481   8.719   8.363   5.933
 7747WAT      O23482   8.055   8.580   1.091
 7747WAT     H123483   7.985   8.509   1.102
 7747WAT     H223484   8.035   8.635   1.011
 7748WAT      O23485   8.983   9.798   2.520
 7748WAT     H123486   8.913   9.862   2.487
 7748WAT     H223487   9.064   9.850   2.549
 7749WAT      O23488   5.984   5.477   4.818
 7749WAT     H123489   5.919   5.552   4.808
 7749WAT     H223490   5.945   5.406   4.877
 7750WAT      O23491   4.846   2.780   4.473
 7750WAT     H123492   4.812   2.782   4.379
 7750WAT     H223493   4.932   2.832   4.479
 7751WAT      O23494   4.193   5.193   2.082
 7751WAT     H123495   4.150   5.244   2.008
 7751WAT     H223496   4.123   5.152   2.140
 7752WAT      O23497   3.576   2.395   2.370
 7752WAT     H123498   3.607   2.432   2.282
 7752WAT     H223499   3.526   2.466   2.421
 7753WAT      O23500   7.827   8.129   7.220
 7753WAT     H123501   7.748   8.067   7.223
 7753WAT     H223502   7.905   8.082   7.179
 7754WAT      O23503   2.340   2.236   7.760
 7754WAT     H123504   2.292   2.231   7.847
 7754WAT     H223505   2.279   2.205   7.687
 7755WAT      O23506   4.393   5.918   4.960
 7755WAT     H123507   4.325   5.956   4.897
 7755WAT     H223508   4.352   5.843   5.012
 7756WAT      O23509   4.161   9.754   9.650
 7756WAT     H123510   4.193   9.668   9.610
 7756WAT     H223511   4.196   9.763   9.743
 7757WAT      O23512   0.387   7.041   1.387
 7757WAT     H123513   0.435   7.129   1.387
 7757WAT     H223514   0.403   6.995   1.475
 7758WAT      O23515   5.658   3.963   0.526
 7758WAT     H123516   5.650   3.865   0.543
 7758WAT     H223517   5.724   3.979   0.452
 7759WAT      O23518   0.522   3.348   0.243
 7759WAT     H123519   0.562   3.346   0.335
 7759WAT     H223520   0.423   3.340   0.250
 7760WAT      O23521   8.540   2.372   1.079
 7760WAT     H123522   8.460   2.348   1.134
 7760WAT     H223523   8.613   2.406   1.139
 7761WAT      O23524   5.115   8.324   3.651
 7761WAT     H123525   5.059   8.357   3.575
 7761WAT     H223526   5.068   8.249   3.697
 7762WAT      O23527   9.865   5.779   3.540
 7762WAT     H123528   9.963   5.780   3.521
 7762WAT     H223529   9.816   5.739   3.462
 7763WAT      O23530   7.209   7.003   0.142
 7763WAT     H123531   7.227   6.953   0.057
 7763WAT     H223532   7.119   6.980   0.177
 7764WAT      O23533   9.734   5.106   0.482
 7764WAT     H123534   9.742   5.039   0.556
 7764WAT     H223535   9.708   5.059   0.398
 7765WAT      O23536   5.577   5.501   5.355
 7765WAT     H123537   5.619   5.505   5.264
 7765WAT     H223538   5.619   5.427   5.408
 7766WAT      O23539   7.497   5.308   1.480
 7766WAT     H123540   7.469   5.383   1.540
 7766WAT     H223541   7.416   5.266   1.438
 7767WAT      O23542   7.111   7.515   7.210
 7767WAT     H123543   7.074   7.524   7.117
 7767WAT     H223544   7.037   7.496   7.274
 7768WAT      O23545   9.528   8.456   5.266
 7768WAT     H123546   9.502   8.526   5.200
 7768WAT     H223547   9.477   8.372   5.249
 7769WAT      O23548   5.156   9.127   4.505
 7769WAT     H123549   5.246   9.152   4.469
 7769WAT     H223550   5.120   9.201   4.561
 7770WAT      O23551   7.591   9.352   2.189
 7770WAT     H123552   7.644   9.270   2.208
 7770WAT     H223553   7.501   9.344   2.231
 7771WAT      O23554   9.606   3.065   1.282
 7771WAT     H123555   9.652   3.093   1.198
 7771WAT     H223556   9.549   3.139   1.316
 7772WAT      O23557   8.399   2.212   2.144
 7772WAT     H123558   8.453   2.281   2.193
 7772WAT     H223559   8.365   2.145   2.210
 7773WAT      O23560   7.521   6.804   9.830
 7773WAT     H123561   7.494   6.752   9.749
 7773WAT     H223562   7.616   6.783   9.854
 7774WAT      O23563   6.368   4.455   1.088
 7774WAT     H123564   6.318   4.523   1.035
 7774WAT     H223565   6.463   4.483   1.098
 7775WAT      O23566   2.665   0.481   1.831
 7775WAT     H123567   2.644   0.402   1.773
 7775WAT     H223568   2.597   0.487   1.904
 7776WAT      O23569   0.665   1.685   9.679
 7776WAT     H123570   0.642   1.722   9.769
 7776WAT     H223571   0.616   1.735   9.608
 7777WAT      O23572   3.754   1.801   4.196
 7777WAT     H123573   3.821   1.838   4.132
 7777WAT     H223574   3.699   1.732   4.150
 7778WAT      O23575   6.539   4.434   5.118
 7778WAT     H123576   6.513   4.372   5.043
 7778WAT     H223577   6.639   4.438   5.124
 7779WAT      O23578   8.575   8.633   3.928
 7779WAT     H123579   8.534   8.568   3.991
 7779WAT     H223580   8.667   8.601   3.903
 7780WAT      O23581   0.710   5.958   2.580
 7780WAT     H123582   0.682   5.902   2.502
 7780WAT     H223583   0.634   6.016   2.610
 7781WAT      O23584   7.114   7.486   8.165
 7781WAT     H123585   7.062   7.416   8.214
 7781WAT     H223586   7.209   7.483   8.195
 7782WAT      O23587   3.581   9.317   7.635
 7782WAT     H123588   3.671   9.291   7.671
 7782WAT     H223589   3.519   9.239   7.641
 7783WAT      O23590   8.859   4.592   3.930
 7783WAT     H123591   8.768   4.597   3.888
 7783WAT     H223592   8.873   4.673   3.987
 7784WAT      O23593   8.147   4.015   6.536
 7784WAT     H123594   8.076   4.063   6.589
 7784WAT     H223595   8.200   4.082   6.483
 7785WAT      O23596   2.356   2.672   0.135
 7785WAT     H123597   2.389   2.763   0.161
 7785WAT     H223598   2.428   2.624   0.083
 7786WAT      O23599   0.306   6.536   7.076
 7786WAT     H123600   0.270   6.555   6.984
 7786WAT     H223601   0.341   6.442   7.079
 7787WAT      O23602   3.289   3.112   2.225
 7787WAT     H123603   3.381   3.074   2.217
 7787WAT     H223604   3.276   3.149   2.317
 7788WAT      O23605   1.473   3.875   9.105
 7788WAT     H123606   1.508   3.830   9.023
 7788WAT     H223607   1.463   3.973   9.088
 7789WAT      O23608   7.651   9.207   3.605
 7789WAT     H123609   7.701   9.149   3.540
 7789WAT     H223610   7.563   9.166   3.625
 7790WAT      O23611   1.477   0.042   7.145
 7790WAT     H123612   1.436   0.130   7.170
 7790WAT     H223613   1.526   0.005   7.224
 7791WAT      O23614   0.350   3.310   6.124
 7791WAT     H123615   0.267   3.256   6.143
 7791WAT     H223616   0.324   3.398   6.085
 7792WAT      O23617   2.461   9.601   6.524
 7792WAT     H123618   2.492   9.596   6.619
 7792WAT     H223619   2.459   9.697   6.495
 7793WAT      O23620   3.460   6.723   8.165
 7793WAT     H123621   3.479   6.815   8.198
 7793WAT     H223622   3.493   6.713   8.072
 7794WAT      O23623   2.511   8.440   2.745
 7794WAT     H123624   2.590   8.448   2.684
 7794WAT     H223625   2.481   8.345   2.748
 7795WAT      O23626   2.484   5.489   0.129
 7795WAT     H123627   2.553   5.474   0.200
 7795WAT     H223628   2.519   5.458   0.041
 7796WAT      O23629   0.346   1.454   5.198
 7796WAT     H123630   0.347   1.484   5.294
 7796WAT     H223631   0.306   1.525   5.141
 7797WAT      O23632   6.385   9.493   3.679
 7797WAT     H123633   6.319   9.469   3.750
 7797WAT     H223634   6.476   9.458   3.705
 7798WAT      O23635   2.810   4.691   4.496
 7798WAT     H123636   2.888   4.688   4.558
 7798WAT     H223637   2.726   4.680   4.549
 7799WAT      O23638   7.531   4.853   8.005
 7799WAT     H123639   7.600   4.864   7.934
 7799WAT     H223640   7.524   4.938   8.058
 7800WAT      O23641   0.259   3.164   5.658
 7800WAT     H123642   0.185   3.097   5.653
 7800WAT     H223643   0.240   3.231   5.730
 7801WAT      O23644   6.407   4.376   5.632
 7801WAT     H123645   6.482   4.310   5.639
 7801WAT     H223646   6.355   4.376   5.717
 7802WAT      O23647   2.892   9.028   2.757
 7802WAT     H123648   2.816   9.087   2.782
 7802WAT     H223649   2.872   8.934   2.783
 7803WAT      O23650   1.503   1.818   3.781
 7803WAT     H123651   1.498   1.738   3.840
 7803WAT     H223652   1.476   1.899   3.833
 7804WAT      O23653   6.802   1.448   5.478
 7804WAT     H123654   6.825   1.545   5.479
 7804WAT     H223655   6.705   1.437   5.458
 7805WAT      O23656   6.235   3.757   6.888
 7805WAT     H123657   6.293   3.679   6.865
 7805WAT     H223658   6.277   3.841   6.852
 7806WAT      O23659   6.537   5.974   9.870
 7806WAT     H123660   6.636   5.960   9.861
 7806WAT     H223661   6.511   5.968   9.966
 7807WAT      O23662   1.233   1.055   5.838
 7807WAT     H123663   1.265   1.006   5.919
 7807WAT     H223664   1.147   1.102   5.859
 7808WAT      O23665   7.042   6.646   7.320
 7808WAT     H123666   7.109   6.687   7.382
 7808WAT     H223667   7.063   6.549   7.306
 7809WAT      O23668   7.160   5.580   6.547
 7809WAT     H123669   7.091   5.507   6.556
 7809WAT     H223670   7.117   5.668   6.565
 7810WAT      O23671   7.118   7.781   1.538
 7810WAT     H123672   7.085   7.847   1.605
 7810WAT     H223673   7.180   7.716   1.582
 7811WAT      O23674   7.634   8.938   6.911
 7811WAT     H123675   7.559   8.991   6.950
 7811WAT     H223676   7.647   8.855   6.965
 7812WAT      O23677   3.885   9.704   1.642
 7812WAT     H123678   3.799   9.667   1.607
 7812WAT     H223679   3.886   9.699   1.742
 7813WAT      O23680   5.577   6.541   0.747
 7813WAT     H123681   5.495   6.493   0.778
 7813WAT     H223682   5.632   6.567   0.827
 7814WAT      O23683   8.585   3.549   9.316
 7814WAT     H123684   8.530   3.470   9.287
 7814WAT     H223685   8.677   3.543   9.277
 7815WAT      O23686   4.614   5.854   7.915
 7815WAT     H123687   4.633   5.949   7.890
 7815WAT     H223688   4.595   5.801   7.832
 7816WAT      O23689   8.165   1.552   2.546
 7816WAT     H123690   8.133   1.458   2.537
 7816WAT     H223691   8.231   1.557   2.622
 7817WAT      O23692   6.505   5.405   7.429
 7817WAT     H123693   6.416   5.444   7.404
 7817WAT     H223694   6.575   5.436   7.365
 7818WAT      O23695   3.862   4.802   8.705
 7818WAT     H123696   3.896   4.870   8.770
 7818WAT     H223697   3.852   4.714   8.751
 7819WAT      O23698   4.474   0.193   6.183
 7819WAT     H123699   4.544   0.147   6.129
 7819WAT     H223700   4.467   0.289   6.155
 7820WAT      O23701   4.332   4.108   2.223
 7820WAT     H123702   4.325   4.167   2.304
 7820WAT     H223703   4.414   4.131   2.172
 7821WAT      O23704   1.355   5.115   4.979
 7821WAT     H123705   1.379   5.194   5.036
 7821WAT     H223706   1.291   5.056   5.027
 7822WAT      O23707   3.026   4.722   3.029
 7822WAT     H123708   3.075   4.787   2.972
 7822WAT     H223709   2.984   4.652   2.971
 7823WAT      O23710   6.143   9.601   8.490
 7823WAT     H123711   6.173   9.641   8.403
 7823WAT     H223712   6.052   9.634   8.513
 7824WAT      O23713   3.838   2.720   6.840
 7824WAT     H123714   3.887   2.648   6.889
 7824WAT     H223715   3.898   2.759   6.769
 7825WAT      O23716   5.564   2.715   3.338
 7825WAT     H123717   5.607   2.804   3.355
 7825WAT     H223718   5.512   2.719   3.253
 7826WAT      O23719   4.531   2.134   5.016
 7826WAT     H123720   4.475   2.051   5.026
 7826WAT     H223721   4.525   2.166   4.921
 7827WAT      O23722   2.605   7.233   8.173
 7827WAT     H123723   2.639   7.294   8.102
 7827WAT     H223724   2.637   7.140   8.155
 7828WAT      O23725   9.492   6.718   4.640
 7828WAT     H123726   9.565   6.669   4.592
 7828WAT     H223727   9.406   6.705   4.590
 7829WAT      O23728   8.751   4.493   9.219
 7829WAT     H123729   8.705   4.568   9.173
 7829WAT     H223730   8.693   4.412   9.217
 7830WAT      O23731   1.626   3.735   3.786
 7830WAT     H123732   1.627   3.791   3.702
 7830WAT     H223733   1.705   3.758   3.842
 7831WAT      O23734   1.499   1.304   1.740
 7831WAT     H123735   1.445   1.361   1.801
 7831WAT     H223736   1.499   1.210   1.774
 7832WAT      O23737   1.159   5.797   1.236
 7832WAT     H123738   1.068   5.795   1.195
 7832WAT     H223739   1.206   5.881   1.208
 7833WAT      O23740   0.463   2.340   6.050
 7833WAT     H123741   0.520   2.300   6.122
 7833WAT     H223742   0.373   2.361   6.088
 7834WAT      O23743   9.557   5.899   3.334
 7834WAT     H123744   9.625   5.826   3.342
 7834WAT     H223745   9.556   5.933   3.240
 7835WAT      O23746   1.258   4.203   3.056
 7835WAT     H123747   1.281   4.237   3.147
 7835WAT     H223748   1.203   4.120   3.065
 7836WAT      O23749   2.806   5.242   0.096
 7836WAT     H123750   2.792   5.317   0.031
 7836WAT     H223751   2.762   5.160   0.061
 7837WAT      O23752   6.464   6.206   2.163
 7837WAT     H123753   6.413   6.186   2.247
 7837WAT     H223754   6.552   6.247   2.186
 7838WAT      O23755   8.684   1.256   1.904
 7838WAT     H123756   8.618   1.183   1.886
 7838WAT     H223757   8.635   1.341   1.926
 7839WAT      O23758   1.565   5.502   0.459
 7839WAT     H123759   1.509   5.484   0.540
 7839WAT     H223760   1.538   5.440   0.386
 7840WAT      O23761   5.162   8.193   6.566
 7840WAT     H123762   5.194   8.279   6.605
 7840WAT     H223763   5.081   8.210   6.510
 7841WAT      O23764   8.841   9.827   7.486
 7841WAT     H123765   8.865   9.771   7.565
 7841WAT     H223766   8.894   9.912   7.488
 7842WAT      O23767   8.826   4.913   9.886
 7842WAT     H123768   8.849   4.819   9.860
 7842WAT     H223769   8.874   4.977   9.826
 7843WAT      O23770   1.551   4.861   3.653
 7843WAT     H123771   1.629   4.914   3.688
 7843WAT     H223772   1.474   4.923   3.638
 7844WAT      O23773   6.040   1.316   2.811
 7844WAT     H123774   6.093   1.269   2.881
 7844WAT     H223775   5.944   1.289   2.819
 7845WAT      O23776   9.742   6.697   3.224
 7845WAT     H123777   9.653   6.688   3.178
 7845WAT     H223778   9.807   6.634   3.182
 7846WAT      O23779   3.082   4.332   7.099
 7846WAT     H123780   2.996   4.382   7.100
 7846WAT     H223781   3.149   4.377   7.158
 7847WAT      O23782   9.244   8.033   9.416
 7847WAT     H123783   9.336   8.029   9.454
 7847WAT     H223784   9.220   7.945   9.376
 7848WAT      O23785   2.495   7.213   3.894
 7848WAT     H123786   2.480   7.116   3.915
 7848WAT     H223787   2.471   7.231   3.799
 7849WAT      O23788   6.779   3.562   4.299
 7849WAT     H123789   6.872   3.598   4.290
 7849WAT     H223790   6.773   3.473   4.253
 7850WAT      O23791   0.258   5.326   4.244
 7850WAT     H123792   0.190   5.274   4.192
 7850WAT     H223793   0.349   5.307   4.208
 7851WAT      O23794   8.266   4.646   5.399
 7851WAT     H123795   8.300   4.730   5.442
 7851WAT     H223796   8.256   4.575   5.468
 7852WAT      O23797   6.001   8.833   5.524
 7852WAT     H123798   6.051   8.885   5.594
 7852WAT     H223799   5.956   8.895   5.461
 7853WAT      O23800   7.566   2.399   7.877
 7853WAT     H123801   7.556   2.313   7.827
 7853WAT     H223802   7.622   2.462   7.824
 7854WAT      O23803   5.389   4.242   4.757
 7854WAT     H123804   5.456   4.296   4.808
 7854WAT     H223805   5.303   4.237   4.807
 7855WAT      O23806   0.330   2.228   2.292
 7855WAT     H123807   0.401   2.298   2.295
 7855WAT     H223808   0.366   2.142   2.329
 7856WAT      O23809   9.216   3.654   0.144
 7856WAT     H123810   9.255   3.710   0.217
 7856WAT     H223811   9.152   3.709   0.090
 7857WAT      O23812   2.951   2.430   2.662
 7857WAT     H123813   3.021   2.418   2.732
 7857WAT     H223814   2.994   2.460   2.577
 7858WAT      O23815   0.270   0.625   6.170
 7858WAT     H123816   0.335   0.579   6.230
 7858WAT     H223817   0.180   0.583   6.180
 7859WAT      O23818   3.644   0.724   8.681
 7859WAT     H123819   3.555   0.699   8.642
 7859WAT     H223820   3.631   0.794   8.751
 7860WAT      O23821   6.939   1.461   6.320
 7860WAT     H123822   6.986   1.526   6.260
 7860WAT     H223823   6.980   1.371   6.311
 7861WAT      O23824   6.959   3.681   5.201
 7861WAT     H123825   6.886   3.699   5.267
 7861WAT     H223826   7.037   3.741   5.221
 7862WAT      O23827   6.413   2.533   0.349
 7862WAT     H123828   6.357   2.612   0.324
 7862WAT     H223829   6.418   2.470   0.272
 7863WAT      O23830   6.927   9.486   6.916
 7863WAT     H123831   6.875   9.560   6.874
 7863WAT     H223832   7.024   9.510   6.919
 7864WAT      O23833   1.183   8.907   8.692
 7864WAT     H123834   1.202   8.956   8.607
 7864WAT     H223835   1.091   8.867   8.687
 7865WAT      O23836   8.750   4.740   0.630
 7865WAT     H123837   8.768   4.839   0.629
 7865WAT     H223838   8.791   4.699   0.548
 7866WAT      O23839   2.527   1.640   7.019
 7866WAT     H123840   2.580   1.684   6.947
 7866WAT     H223841   2.434   1.622   6.987
 7867WAT      O23842   4.592   0.430   9.783
 7867WAT     H123843   4.598   0.403   9.879
 7867WAT     H223844   4.547   0.357   9.731
 7868WAT      O23845   3.691   3.584   4.601
 7868WAT     H123846   3.722   3.605   4.694
 7868WAT     H223847   3.628   3.656   4.571
 7869WAT      O23848   0.625   0.306   0.390
 7869WAT     H123849   0.612   0.209   0.407
 7869WAT     H223850   0.662   0.319   0.298
 7870WAT      O23851   0.110   2.023   9.318
 7870WAT     H123852   0.187   1.981   9.270
 7870WAT     H223853   0.088   2.111   9.277
 7871WAT      O23854   9.638   6.929   0.584
 7871WAT     H123855   9.685   6.884   0.508
 7871WAT     H223856   9.583   7.005   0.550
 7872WAT      O23857   2.971   2.964   7.243
 7872WAT     H123858   2.953   2.874   7.282
 7872WAT     H223859   3.008   2.954   7.151
 7873WAT      O23860   5.934   0.557   9.566
 7873WAT     H123861   5.867   0.534   9.636
 7873WAT     H223862   5.910   0.510   9.481
 7874WAT      O23863   8.553   3.089   6.964
 7874WAT     H123864   8.546   3.166   6.900
 7874WAT     H223865   8.643   3.046   6.953
 7875WAT      O23866   1.871   0.279   2.317
 7875WAT     H123867   1.905   0.302   2.408
 7875WAT     H223868   1.903   0.187   2.292
 7876WAT      O23869   1.019   4.900   4.369
 7876WAT     H123870   1.081   4.822   4.370
 7876WAT     H223871   1.071   4.984   4.356
 7877WAT      O23872   9.222   4.140   3.263
 7877WAT     H123873   9.218   4.200   3.182
 7877WAT     H223874   9.262   4.053   3.237
 7878WAT      O23875   5.546   2.145   5.567
 7878WAT     H123876   5.517   2.063   5.517
 7878WAT     H223877   5.550   2.223   5.504
 7879WAT      O23878   2.834   5.252   4.571
 7879WAT     H123879   2.788   5.303   4.498
 7879WAT     H223880   2.932   5.250   4.554
 7880WAT      O23881   0.651   9.473   6.263
 7880WAT     H123882   0.710   9.504   6.338
 7880WAT     H223883   0.594   9.397   6.295
 7881WAT      O23884   6.654   8.227   5.772
 7881WAT     H123885   6.581   8.255   5.835
 7881WAT     H223886   6.634   8.135   5.738
 7882WAT      O23887   7.670   4.932   8.921
 7882WAT     H123888   7.674   4.966   8.827
 7882WAT     H223889   7.750   4.874   8.939
 7883WAT      O23890   2.401   2.233   6.245
 7883WAT     H123891   2.325   2.298   6.254
 7883WAT     H223892   2.378   2.165   6.175
 7884WAT      O23893   7.811   0.726   3.398
 7884WAT     H123894   7.751   0.779   3.338
 7884WAT     H223895   7.874   0.672   3.344
 7885WAT      O23896   0.988   5.798   5.409
 7885WAT     H123897   0.974   5.831   5.503
 7885WAT     H223898   0.998   5.699   5.411
 7886WAT      O23899   0.843   2.533   4.174
 7886WAT     H123900   0.909   2.608   4.177
 7886WAT     H223901   0.753   2.569   4.148
 7887WAT      O23902   6.911   8.810   9.892
 7887WAT     H123903   6.865   8.789   9.805
 7887WAT     H223904   7.007   8.785   9.886
 7888WAT      O23905   3.472   7.077   9.780
 7888WAT     H123906   3.524   6.991   9.786
 7888WAT     H223907   3.524   7.150   9.824
 7889WAT      O23908   6.910   7.166   1.721
 7889WAT     H123909   6.910   7.089   1.657
 7889WAT     H223910   6.858   7.242   1.682
 7890WAT      O23911   9.024   0.469   6.389
 7890WAT     H123912   8.946   0.470   6.327
 7890WAT     H223913   8.999   0.515   6.475
 7891WAT      O23914   4.386   0.418   6.907
 7891WAT     H123915   4.465   0.479   6.901
 7891WAT     H223916   4.416   0.323   6.898
 7892WAT      O23917   2.487   8.424   0.613
 7892WAT     H123918   2.445   8.438   0.523
 7892WAT     H223919   2.493   8.326   0.632
 7893WAT      O23920   8.287   2.353   3.441
 7893WAT     H123921   8.198   2.373   3.482
 7893WAT     H223922   8.315   2.431   3.385
 7894WAT      O23923   3.179   8.909   3.648
 7894WAT     H123924   3.160   8.814   3.623
 7894WAT     H223925   3.273   8.917   3.681
 7895WAT      O23926   6.691   8.680   2.079
 7895WAT     H123927   6.689   8.665   2.178
 7895WAT     H223928   6.779   8.650   2.043
 7896WAT      O23929   3.035   2.610   7.123
 7896WAT     H123930   2.978   2.546   7.071
 7896WAT     H223931   3.067   2.683   7.063
 7897WAT      O23932   0.249   8.384   9.522
 7897WAT     H123933   0.205   8.294   9.525
 7897WAT     H223934   0.297   8.395   9.435
 7898WAT      O23935   3.243   1.598   9.259
 7898WAT     H123936   3.246   1.505   9.295
 7898WAT     H223937   3.206   1.596   9.166
 7899WAT      O23938   1.258   5.784   4.705
 7899WAT     H123939   1.242   5.852   4.633
 7899WAT     H223940   1.328   5.818   4.768
 7900WAT      O23941   4.864   0.748   6.284
 7900WAT     H123942   4.852   0.810   6.206
 7900WAT     H223943   4.818   0.786   6.364
 7901WAT      O23944   9.853   5.668   3.980
 7901WAT     H123945   9.763   5.683   3.938
 7901WAT     H223946   9.847   5.592   4.044
 7902WAT      O23947   2.673   5.977   5.465
 7902WAT     H123948   2.771   5.960   5.457
 7902WAT     H223949   2.649   6.059   5.413
 7903WAT      O23950   7.182   3.776   9.550
 7903WAT     H123951   7.170   3.757   9.453
 7903WAT     H223952   7.117   3.722   9.603
 7904WAT      O23953   1.182   8.543   7.220
 7904WAT     H123954   1.184   8.467   7.155
 7904WAT     H223955   1.188   8.629   7.170
 7905WAT      O23956   0.542   6.108   3.492
 7905WAT     H123957   0.530   6.203   3.521
 7905WAT     H223958   0.592   6.106   3.406
 7906WAT      O23959   3.402   3.852   7.274
 7906WAT     H123960   3.456   3.854   7.357
 7906WAT     H223961   3.436   3.920   7.210
 7907WAT      O23962   6.541   6.244   2.678
 7907WAT     H123963   6.600   6.164   2.692
 7907WAT     H223964   6.542   6.300   2.761
 7908WAT      O23965   2.322   0.853   6.250
 7908WAT     H123966   2.401   0.903   6.216
 7908WAT     H223967   2.339   0.823   6.344
 7909WAT      O23968   1.902   7.462   8.025
 7909WAT     H123969   1.871   7.392   7.960
 7909WAT     H223970   1.965   7.420   8.091
 7910WAT      O23971   4.785   8.507   2.963
 7910WAT     H123972   4.849   8.432   2.981
 7910WAT     H223973   4.703   8.494   3.018
 7911WAT      O23974   5.434   7.510   6.249
 7911WAT     H123975   5.528   7.492   6.217
 7911WAT     H223976   5.408   7.440   6.315
 7912WAT      O23977   1.547   4.143   6.367
 7912WAT     H123978   1.583   4.206   6.298
 7912WAT     H223979   1.460   4.177   6.402
 7913WAT      O23980   9.794   2.404   2.402
 7913WAT     H123981   9.874   2.356   2.435
 7913WAT     H223982   9.797   2.499   2.433
 7914WAT      O23983   6.431   4.144   6.045
 7914WAT     H123984   6.503   4.132   6.113
 7914WAT     H223985   6.428   4.065   5.985
 7915WAT      O23986   2.967   1.356   3.350
 7915WAT     H123987   2.932   1.263   3.339
 7915WAT     H223988   3.060   1.352   3.387
 7916WAT      O23989   3.199   8.505   1.376
 7916WAT     H123990   3.122   8.569   1.381
 7916WAT     H223991   3.282   8.555   1.351
 7917WAT      O23992   9.073   5.446   1.887
 7917WAT     H123993   9.046   5.540   1.904
 7917WAT     H223994   8.996   5.385   1.903
 7918WAT      O23995   1.058   3.376   2.948
 7918WAT     H123996   1.068   3.320   3.030
 7918WAT     H223997   0.961   3.390   2.928
 7919WAT      O23998   1.200   8.288   3.947
 7919WAT     H123999   1.149   8.366   3.983
 7919WAT     H224000   1.195   8.288   3.847
 7920WAT      O24001   7.868   0.114   4.091
 7920WAT     H124002   7.955   0.162   4.088
 7920WAT     H224003   7.793   0.180   4.095
 7921WAT      O24004   1.861   8.032   3.085
 7921WAT     H124005   1.785   8.005   3.144
 7921WAT     H224006   1.867   8.132   3.082
 7922WAT      O24007   1.071   3.234   5.953
 7922WAT     H124008   1.065   3.331   5.932
 7922WAT     H224009   1.041   3.181   5.874
 7923WAT      O24010   5.567   7.252   2.468
 7923WAT     H124011   5.599   7.243   2.562
 7923WAT     H224012   5.555   7.348   2.446
 7924WAT      O24013   5.946   3.276   0.190
 7924WAT     H124014   6.002   3.246   0.113
 7924WAT     H224015   5.940   3.203   0.258
 7925WAT      O24016   3.069   2.613   0.615
 7925WAT     H124017   3.063   2.565   0.528
 7925WAT     H224018   2.985   2.665   0.631
 7926WAT      O24019   3.772   3.341   5.933
 7926WAT     H124020   3.837   3.273   5.966
 7926WAT     H224021   3.806   3.433   5.955
 7927WAT      O24022   8.422   5.901   8.743
 7927WAT     H124023   8.471   5.982   8.773
 7927WAT     H224024   8.346   5.928   8.684
 7928WAT      O24025   0.865   2.834   0.833
 7928WAT     H124026   0.780   2.813   0.882
 7928WAT     H224027   0.943   2.809   0.891
 7929WAT      O24028   2.345   1.669   3.836
 7929WAT     H124029   2.367   1.584   3.884
 7929WAT     H224030   2.262   1.709   3.875
 7930WAT      O24031   0.370   6.448   5.835
 7930WAT     H124032   0.319   6.472   5.917
 7930WAT     H224033   0.306   6.421   5.763
 7931WAT      O24034   3.813   9.576   9.813
 7931WAT     H124035   3.753   9.532   9.880
 7931WAT     H224036   3.852   9.659   9.853
 7932WAT      O24037   2.327   3.010   1.633
 7932WAT     H124038   2.342   3.034   1.537
 7932WAT     H224039   2.249   3.062   1.668
 7933WAT      O24040   6.380   2.066   9.488
 7933WAT     H124041   6.412   2.160   9.494
 7933WAT     H224042   6.372   2.040   9.392
 7934WAT      O24043   4.373   7.845   8.730
 7934WAT     H124044   4.278   7.831   8.701
 7934WAT     H224045   4.383   7.937   8.766
 7935WAT      O24046   6.159   1.083   2.359
 7935WAT     H124047   6.150   1.097   2.260
 7935WAT     H224048   6.115   1.159   2.407
 7936WAT      O24049   3.939   7.017   0.944
 7936WAT     H124050   3.976   7.110   0.948
 7936WAT     H224051   3.933   6.979   1.036
 7937WAT      O24052   8.905   5.526   3.851
 7937WAT     H124053   8.955   5.521   3.765
 7937WAT     H224054   8.827   5.463   3.848
 7938WAT      O24055   3.916   1.018   5.710
 7938WAT     H124056   3.857   1.016   5.791
 7938WAT     H224057   4.000   1.069   5.731
 7939WAT      O24058   6.574   0.526   6.831
 7939WAT     H124059   6.562   0.623   6.806
 7939WAT     H224060   6.520   0.469   6.769
 7940WAT      O24061   1.339   7.218   7.403
 7940WAT     H124062   1.338   7.180   7.495
 7940WAT     H224063   1.422   7.191   7.356
 7941WAT      O24064   8.337   9.572   6.615
 7941WAT     H124065   8.347   9.640   6.543
 7941WAT     H224066   8.389   9.490   6.591
 7942WAT      O24067   6.300   8.578   8.859
 7942WAT     H124068   6.320   8.623   8.946
 7942WAT     H224069   6.322   8.481   8.867
 7943WAT      O24070   9.203   8.332   0.753
 7943WAT     H124071   9.217   8.426   0.784
 7943WAT     H224072   9.290   8.292   0.724
 7944WAT      O24073   1.177   5.937   5.781
 7944WAT     H124074   1.257   5.877   5.772
 7944WAT     H224075   1.094   5.882   5.780
 7945WAT      O24076   4.829   9.477   0.759
 7945WAT     H124077   4.885   9.439   0.685
 7945WAT     H224078   4.771   9.405   0.798
 7946WAT      O24079   5.159   5.903   0.675
 7946WAT     H124080   5.112   5.875   0.759
 7946WAT     H224081   5.121   5.991   0.644
 7947WAT      O24082   8.518   3.736   5.229
 7947WAT     H124083   8.549   3.818   5.277
 7947WAT     H224084   8.505   3.757   5.132
 7948WAT      O24085   2.767   0.232   4.108
 7948WAT     H124086   2.790   0.266   4.016
 7948WAT     H224087   2.797   0.137   4.115
 7949WAT      O24088   2.576   1.461   2.216
 7949WAT     H124089   2.559   1.401   2.138
 7949WAT     H224090   2.617   1.546   2.185
 7950WAT      O24091   2.735   9.708   3.047
 7950WAT     H124092   2.698   9.680   2.959
 7950WAT     H224093   2.733   9.808   3.055
 7951WAT      O24094   8.831   7.707   3.085
 7951WAT     H124095   8.813   7.710   2.986
 7951WAT     H224096   8.811   7.615   3.119
 7952WAT      O24097   9.653   7.206   7.437
 7952WAT     H124098   9.705   7.250   7.510
 7952WAT     H224099   9.715   7.156   7.377
 7953WAT      O24100   8.135   8.116   0.623
 7953WAT     H124101   8.107   8.206   0.657
 7953WAT     H224102   8.224   8.124   0.579
 7954WAT      O24103   7.000   5.467   7.438
 7954WAT     H124104   6.970   5.504   7.526
 7954WAT     H224105   6.982   5.534   7.366
 7955WAT      O24106   3.076   0.804   0.679
 7955WAT     H124107   3.157   0.862   0.687
 7955WAT     H224108   3.068   0.746   0.760
 7956WAT      O24109   3.392   7.813   7.394
 7956WAT     H124110   3.327   7.863   7.452
 7956WAT     H224111   3.380   7.841   7.299
 7957WAT      O24112   6.235   3.236   2.192
 7957WAT     H124113   6.258   3.286   2.108
 7957WAT     H224114   6.248   3.138   2.178
 7958WAT      O24115   1.528   1.676   1.125
 7958WAT     H124116   1.598   1.633   1.068
 7958WAT     H224117   1.437   1.652   1.091
 7959WAT      O24118   9.146   1.567   1.490
 7959WAT     H124119   9.071   1.502   1.476
 7959WAT     H224120   9.194   1.544   1.575
 7960WAT      O24121   3.203   7.839   9.682
 7960WAT     H124122   3.295   7.808   9.707
 7960WAT     H224123   3.139   7.816   9.756
 7961WAT      O24124   7.290   1.858   9.649
 7961WAT     H124125   7.278   1.897   9.557
 7961WAT     H224126   7.273   1.928   9.718
 7962WAT      O24127   3.934   8.630   0.592
 7962WAT     H124128   3.890   8.695   0.654
 7962WAT     H224129   3.898   8.538   0.609
 7963WAT      O24130   3.023   6.387   0.883
 7963WAT     H124131   3.040   6.432   0.970
 7963WAT     H224132   2.966   6.447   0.825
 7964WAT      O24133   1.470   4.851   8.131
 7964WAT     H124134   1.374   4.822   8.129
 7964WAT     H224135   1.492   4.897   8.045
 7965WAT      O24136   9.623   5.790   6.729
 7965WAT     H124137   9.643   5.709   6.784
 7965WAT     H224138   9.677   5.867   6.763
 7966WAT      O24139   7.604   1.978   2.584
 7966WAT     H124140   7.548   1.915   2.529
 7966WAT     H224141   7.591   1.957   2.681
 7967WAT      O24142   0.773   6.688   7.164
 7967WAT     H124143   0.722   6.749   7.225
 7967WAT     H224144   0.739   6.594   7.174
 7968WAT      O24145   5.300   2.711   2.596
 7968WAT     H124146   5.355   2.630   2.577
 7968WAT     H224147   5.221   2.686   2.653
 7969WAT      O24148   9.770   8.228   1.952
 7969WAT     H124149   9.705   8.268   1.887
 7969WAT     H224150   9.768   8.129   1.944
 7970WAT      O24151   6.057   2.149   0.705
 7970WAT     H124152   6.121   2.088   0.659
 7970WAT     H224153   6.095   2.242   0.706
 7971WAT      O24154   6.876   0.343   5.705
 7971WAT     H124155   6.836   0.306   5.789
 7971WAT     H224156   6.803   0.357   5.638
 7972WAT      O24157   2.889   8.202   5.958
 7972WAT     H124158   2.928   8.122   6.004
 7972WAT     H224159   2.926   8.286   5.998
 7973WAT      O24160   6.658   8.838   8.615
 7973WAT     H124161   6.607   8.752   8.613
 7973WAT     H224162   6.704   8.852   8.527
 7974WAT      O24163   1.905   9.561   7.834
 7974WAT     H124164   1.909   9.522   7.743
 7974WAT     H224165   1.813   9.596   7.852
 7975WAT      O24166   4.860   0.089   0.114
 7975WAT     H124167   4.846  -0.007   0.092
 7975WAT     H224168   4.937   0.099   0.176
 7976WAT      O24169   5.618   4.242   9.656
 7976WAT     H124170   5.527   4.266   9.623
 7976WAT     H224171   5.644   4.303   9.731
 7977WAT      O24172   9.413   8.322   2.095
 7977WAT     H124173   9.441   8.388   2.025
 7977WAT     H224174   9.488   8.309   2.160
 7978WAT      O24175   2.533   9.389   7.213
 7978WAT     H124176   2.464   9.338   7.264
 7978WAT     H224177   2.623   9.375   7.255
 7979WAT      O24178   8.809   3.523   6.891
 7979WAT     H124179   8.884   3.585   6.914
 7979WAT     H224180   8.772   3.546   6.801
 7980WAT      O24181   8.776   6.478   9.123
 7980WAT     H124182   8.785   6.447   9.217
 7980WAT     H224183   8.679   6.486   9.099
 7981WAT      O24184   9.522   9.596   6.036
 7981WAT     H124185   9.533   9.679   5.982
 7981WAT     H224186   9.442   9.545   6.004
 7982WAT      O24187   0.819   7.347   2.586
 7982WAT     H124188   0.825   7.404   2.668
 7982WAT     H224189   0.882   7.382   2.516
 7983WAT      O24190   2.960   0.576   9.354
 7983WAT     H124191   3.038   0.538   9.303
 7983WAT     H224192   2.964   0.676   9.352
 7984WAT      O24193   7.524   4.795   0.977
 7984WAT     H124194   7.481   4.837   1.058
 7984WAT     H224195   7.574   4.864   0.926
 7985WAT      O24196   5.451   5.958   8.689
 7985WAT     H124197   5.461   5.901   8.608
 7985WAT     H224198   5.519   5.932   8.758
 7986WAT      O24199   2.550   4.619   4.601
 7986WAT     H124200   2.518   4.532   4.638
 7986WAT     H224201   2.518   4.628   4.506
 7987WAT      O24202   7.346   6.224   3.727
 7987WAT     H124203   7.446   6.215   3.733
 7987WAT     H224204   7.303   6.160   3.791
 7988WAT      O24205   3.362   3.643   0.932
 7988WAT     H124206   3.398   3.554   0.905
 7988WAT     H224207   3.417   3.716   0.890
 7989WAT      O24208   4.545   7.791   1.889
 7989WAT     H124209   4.586   7.814   1.801
 7989WAT     H224210   4.455   7.750   1.873
 7990WAT      O24211   1.633   2.781   5.074
 7990WAT     H124212   1.573   2.793   4.995
 7990WAT     H224213   1.697   2.858   5.079
 7991WAT      O24214   7.824   1.900   1.868
 7991WAT     H124215   7.877   1.975   1.827
 7991WAT     H224216   7.802   1.924   1.963
 7992WAT      O24217   3.340   3.106   7.357
 7992WAT     H124218   3.433   3.087   7.326
 7992WAT     H224219   3.290   3.021   7.368
 7993WAT      O24220   1.679   9.430   3.944
 7993WAT     H124221   1.739   9.506   3.967
 7993WAT     H224222   1.705   9.393   3.855
 7994WAT      O24223   8.984   9.086   7.692
 7994WAT     H124224   9.038   9.075   7.608
 7994WAT     H224225   8.938   9.000   7.714
 7995WAT      O24226   3.300   6.798   7.506
 7995WAT     H124227   3.333   6.823   7.597
 7995WAT     H224228   3.234   6.866   7.474
 7996WAT      O24229   9.501   7.676   3.536
 7996WAT     H124230   9.499   7.717   3.445
 7996WAT     H224231   9.435   7.723   3.595
 7997WAT      O24232   5.791   6.971   0.045
 7997WAT     H124233   5.761   6.883   0.007
 7997WAT     H224234   5.836   6.956   0.132
 7998WAT      O24235   4.716   9.511   4.781
 7998WAT     H124236   4.775   9.432   4.765
 7998WAT     H224237   4.772   9.592   4.794
 7999WAT      O24238   3.418   3.768   6.748
 7999WAT     H124239   3.516   3.780   6.767
 7999WAT     H224240   3.380   3.701   6.812
 8000WAT      O24241   4.338   2.575   0.287
 8000WAT     H124242   4.347   2.639   0.211
 8000WAT     H224243   4.262   2.603   0.346
 8001WAT      O24244   3.816   3.186   6.285
 8001WAT     H124245   3.786   3.130   6.208
 8001WAT     H224246   3.867   3.264   6.252
 8002WAT      O24247   0.397   7.802   0.622
 8002WAT     H124248   0.488   7.841   0.613
 8002WAT     H224249   0.358   7.826   0.711
 8003WAT      O24250   3.004   8.890   5.336
 8003WAT     H124251   3.003   8.981   5.377
 8003WAT     H224252   2.969   8.896   5.242
 8004WAT      O24253   7.942   5.909   8.722
 8004WAT     H124254   7.896   5.822   8.703
 8004WAT     H224255   7.875   5.974   8.757
 8005WAT      O24256   7.208   8.715   3.553
 8005WAT     H124257   7.242   8.677   3.466
 8005WAT     H224258   7.243   8.808   3.564
 8006WAT      O24259   3.470   9.530   6.397
 8006WAT     H124260   3.505   9.592   6.468
 8006WAT     H224261   3.545   9.476   6.360
 8007WAT      O24262   3.121   6.409   8.896
 8007WAT     H124263   3.102   6.487   8.835
 8007WAT     H224264   3.082   6.428   8.986
 8008WAT      O24265   4.576   4.404   3.214
 8008WAT     H124266   4.578   4.422   3.115
 8008WAT     H224267   4.667   4.377   3.245
 8009WAT      O24268   9.822   2.578   8.226
 8009WAT     H124269   9.840   2.643   8.152
 8009WAT     H224270   9.726   2.586   8.253
 8010WAT      O24271   1.410   6.882   1.266
 8010WAT     H124272   1.448   6.804   1.315
 8010WAT     H224273   1.422   6.965   1.321
 8011WAT      O24274   5.811   2.874   3.643
 8011WAT     H124275   5.813   2.850   3.546
 8011WAT     H224276   5.838   2.970   3.654
 8012WAT      O24277   3.164   9.545   4.415
 8012WAT     H124278   3.210   9.456   4.417
 8012WAT     H224279   3.145   9.570   4.321
 8013WAT      O24280   5.131   3.798   7.687
 8013WAT     H124281   5.034   3.778   7.688
 8013WAT     H224282   5.172   3.770   7.774
 8014WAT      O24283   2.231   4.001   7.963
 8014WAT     H124284   2.319   4.025   7.922
 8014WAT     H224285   2.157   4.018   7.897
 8015WAT      O24286   7.465   1.054   8.344
 8015WAT     H124287   7.381   1.093   8.380
 8015WAT     H224288   7.462   1.054   8.244
 8016WAT      O24289   1.876   0.903   5.705
 8016WAT     H124290   1.974   0.920   5.718
 8016WAT     H224291   1.841   0.848   5.781
 8017WAT      O24292   8.834   7.168   2.206
 8017WAT     H124293   8.824   7.179   2.305
 8017WAT     H224294   8.746   7.183   2.161
 8018WAT      O24295   0.047   5.801   4.921
 8018WAT     H124296   0.015   5.756   5.004
 8018WAT     H224297   0.007   5.893   4.916
 8019WAT      O24298   4.133   4.515   9.026
 8019WAT     H124299   4.143   4.420   8.997
 8019WAT     H224300   4.037   4.533   9.047
 8020WAT      O24301   4.268   5.834   5.785
 8020WAT     H124302   4.194   5.780   5.745
 8020WAT     H224303   4.285   5.803   5.878
 8021WAT      O24304   8.445   3.793   1.599
 8021WAT     H124305   8.446   3.711   1.542
 8021WAT     H224306   8.358   3.841   1.585
 8022WAT      O24307   1.947   1.820   2.358
 8022WAT     H124308   1.931   1.821   2.260
 8022WAT     H224309   1.964   1.914   2.390
 8023WAT      O24310   0.513   7.649   5.376
 8023WAT     H124311   0.456   7.730   5.367
 8023WAT     H224312   0.610   7.675   5.368
 8024WAT      O24313   3.402   9.613   7.495
 8024WAT     H124314   3.483   9.590   7.441
 8024WAT     H224315   3.343   9.532   7.501
 8025WAT      O24316   3.393   1.632   4.315
 8025WAT     H124317   3.419   1.664   4.224
 8025WAT     H224318   3.471   1.585   4.357
 8026WAT      O24319   6.988   5.877   7.334
 8026WAT     H124320   6.966   5.784   7.302
 8026WAT     H224321   7.059   5.916   7.276
 8027WAT      O24322   6.521   3.180   6.118
 8027WAT     H124323   6.512   3.146   6.212
 8027WAT     H224324   6.439   3.159   6.067
 8028WAT      O24325   5.051   6.147   0.630
 8028WAT     H124326   5.115   6.223   0.632
 8028WAT     H224327   4.973   6.170   0.571
 8029WAT      O24328   4.288   8.890   1.791
 8029WAT     H124329   4.314   8.794   1.781
 8029WAT     H224330   4.364   8.941   1.831
 8030WAT      O24331   6.512   0.003   5.334
 8030WAT     H124332   6.451  -0.067   5.299
 8030WAT     H224333   6.486   0.027   5.428
 8031WAT      O24334   4.869   8.172   9.151
 8031WAT     H124335   4.845   8.082   9.115
 8031WAT     H224336   4.785   8.223   9.170
 8032WAT      O24337   6.398   4.891   6.318
 8032WAT     H124338   6.435   4.810   6.364
 8032WAT     H224339   6.348   4.947   6.385
 8033WAT      O24340   5.719   3.203   4.371
 8033WAT     H124341   5.799   3.144   4.364
 8033WAT     H224342   5.733   3.286   4.317
 8034WAT      O24343   4.538   1.995   7.148
 8034WAT     H124344   4.635   1.973   7.152
 8034WAT     H224345   4.494   1.939   7.078
 8035WAT      O24346   0.116   1.328   0.531
 8035WAT     H124347   0.136   1.259   0.601
 8035WAT     H224348   0.142   1.418   0.565
 8036WAT      O24349   8.412   8.346   8.228
 8036WAT     H124350   8.470   8.272   8.196
 8036WAT     H224351   8.394   8.410   8.153
 8037WAT      O24352   1.864   5.536   1.747
 8037WAT     H124353   1.821   5.446   1.741
 8037WAT     H224354   1.799   5.601   1.786
 8038WAT      O24355   8.410   3.016   8.001
 8038WAT     H124356   8.452   3.069   7.928
 8038WAT     H224357   8.399   3.073   8.082
 8039WAT      O24358   9.082   8.507   5.811
 8039WAT     H124359   9.143   8.532   5.736
 8039WAT     H224360   8.994   8.554   5.799
 8040WAT      O24361   8.944   8.990   7.186
 8040WAT     H124362   8.952   9.086   7.213
 8040WAT     H224363   9.010   8.970   7.114
 8041WAT      O24364   0.642   9.778   1.295
 8041WAT     H124365   0.666   9.780   1.198
 8041WAT     H224366   0.621   9.871   1.326
 8042WAT      O24367   2.539   9.606   9.266
 8042WAT     H124368   2.487   9.679   9.310
 8042WAT     H224369   2.616   9.580   9.324
 8043WAT      O24370   1.190   1.525   5.245
 8043WAT     H124371   1.243   1.469   5.309
 8043WAT     H224372   1.199   1.621   5.269
 8044WAT      O24373   2.406   8.086   7.827
 8044WAT     H124374   2.463   8.100   7.908
 8044WAT     H224375   2.440   8.006   7.777
 8045WAT      O24376   3.769   3.971   9.225
 8045WAT     H124377   3.753   3.939   9.319
 8045WAT     H224378   3.765   3.893   9.163
 8046WAT      O24379   0.577   0.863   8.803
 8046WAT     H124380   0.572   0.908   8.713
 8046WAT     H224381   0.639   0.914   8.862
 8047WAT      O24382   5.375   1.771   2.509
 8047WAT     H124383   5.435   1.850   2.522
 8047WAT     H224384   5.353   1.731   2.598
 8048WAT      O24385   0.350   0.390   2.715
 8048WAT     H124386   0.345   0.343   2.803
 8048WAT     H224387   0.442   0.380   2.677
 8049WAT      O24388   0.660   5.729   8.558
 8049WAT     H124389   0.713   5.645   8.568
 8049WAT     H224390   0.721   5.808   8.567
 8050WAT      O24391   9.445   2.125   7.232
 8050WAT     H124392   9.533   2.077   7.234
 8050WAT     H224393   9.383   2.083   7.297
 8051WAT      O24394   4.326   7.393   9.149
 8051WAT     H124395   4.357   7.428   9.238
 8051WAT     H224396   4.346   7.461   9.078
 8052WAT      O24397   6.096   2.380   7.627
 8052WAT     H124398   6.165   2.308   7.618
 8052WAT     H224399   6.020   2.361   7.565
 8053WAT      O24400   2.387   3.625   7.931
 8053WAT     H124401   2.459   3.626   8.002
 8053WAT     H224402   2.400   3.703   7.870
 8054WAT      O24403   1.945   6.681   6.657
 8054WAT     H124404   1.983   6.652   6.569
 8054WAT     H224405   1.975   6.618   6.729
 8055WAT      O24406   6.243   7.821   5.053
 8055WAT     H124407   6.156   7.825   5.102
 8055WAT     H224408   6.232   7.767   4.970
 8056WAT      O24409   9.020   0.197   6.717
 8056WAT     H124410   9.108   0.199   6.669
 8056WAT     H224411   8.947   0.177   6.652
 8057WAT      O24412   3.936   0.987   2.688
 8057WAT     H124413   3.842   0.964   2.664
 8057WAT     H224414   3.936   1.057   2.759
 8058WAT      O24415   4.184   1.943   2.493
 8058WAT     H124416   4.196   2.014   2.423
 8058WAT     H224417   4.269   1.891   2.501
 8059WAT      O24418   8.168   9.583   7.523
 8059WAT     H124419   8.241   9.577   7.591
 8059WAT     H224420   8.106   9.657   7.546
 8060WAT      O24421   8.429   0.145   0.000
 8060WAT     H124422   8.449   0.204  -0.078
 8060WAT     H224423   8.450   0.195   0.085
 8061WAT      O24424   5.371   7.796   7.830
 8061WAT     H124425   5.297   7.837   7.882
 8061WAT     H224426   5.412   7.865   7.770
 8062WAT      O24427   7.078   7.276   5.291
 8062WAT     H124428   7.056   7.372   5.302
 8062WAT     H224429   7.061   7.228   5.377
 8063WAT      O24430   9.515   6.706   1.398
 8063WAT     H124431   9.609   6.703   1.431
 8063WAT     H224432   9.459   6.642   1.451
 8064WAT      O24433   1.224   2.602   7.657
 8064WAT     H124434   1.132   2.618   7.621
 8064WAT     H224435   1.291   2.624   7.587
 8065WAT      O24436   6.379   3.159   8.824
 8065WAT     H124437   6.309   3.161   8.894
 8065WAT     H224438   6.429   3.246   8.824
 8066WAT      O24439   1.851   6.163   1.555
 8066WAT     H124440   1.844   6.177   1.654
 8066WAT     H224441   1.772   6.111   1.523
 8067WAT      O24442   8.501   7.987   7.537
 8067WAT     H124443   8.449   8.050   7.595
 8067WAT     H224444   8.440   7.946   7.469
 8068WAT      O24445   2.095   8.050   7.280
 8068WAT     H124446   2.007   8.065   7.323
 8068WAT     H224447   2.163   8.113   7.318
 8069WAT      O24448   7.872   2.182   9.114
 8069WAT     H124449   7.798   2.118   9.096
 8069WAT     H224450   7.847   2.240   9.193
 8070WAT      O24451   5.529   1.209   7.175
 8070WAT     H124452   5.580   1.216   7.089
 8070WAT     H224453   5.593   1.196   7.251
 8071WAT      O24454   7.479   5.195   5.177
 8071WAT     H124455   7.449   5.210   5.083
 8071WAT     H224456   7.576   5.216   5.185
 8072WAT      O24457   6.028   6.364   5.056
 8072WAT     H124458   6.068   6.358   5.148
 8072WAT     H224459   5.985   6.277   5.033
 8073WAT      O24460   6.557   5.588   3.613
 8073WAT     H124461   6.461   5.580   3.641
 8073WAT     H224462   6.562   5.607   3.515
 8074WAT      O24463   1.857   9.661   3.913
 8074WAT     H124464   1.940   9.636   3.862
 8074WAT     H224465   1.804   9.727   3.861
 8075WAT      O24466   6.168   3.041   0.386
 8075WAT     H124467   6.187   3.094   0.303
 8075WAT     H224468   6.177   3.100   0.466
 8076WAT      O24469   1.858   9.660   8.672
 8076WAT     H124470   1.931   9.593   8.686
 8076WAT     H224471   1.821   9.650   8.580
 8077WAT      O24472   7.666   7.765   3.242
 8077WAT     H124473   7.697   7.803   3.330
 8077WAT     H224474   7.704   7.674   3.229
 8078WAT      O24475   5.655   7.016   9.641
 8078WAT     H124476   5.754   7.010   9.628
 8078WAT     H224477   5.629   7.112   9.651
 8079WAT      O24478   1.271   4.983   7.321
 8079WAT     H124479   1.294   5.031   7.237
 8079WAT     H224480   1.181   5.013   7.353
 8080WAT      O24481   9.587   7.122   2.528
 8080WAT     H124482   9.562   7.209   2.570
 8080WAT     H224483   9.600   7.053   2.599
 8081WAT      O24484   6.519   3.913   3.217
 8081WAT     H124485   6.427   3.951   3.228
 8081WAT     H224486   6.572   3.931   3.300
 8082WAT      O24487   1.078   2.560   5.816
 8082WAT     H124488   1.003   2.500   5.790
 8082WAT     H224489   1.070   2.647   5.766
 8083WAT      O24490   4.540   0.521   8.600
 8083WAT     H124491   4.443   0.544   8.591
 8083WAT     H224492   4.588   0.545   8.516
 8084WAT      O24493   8.142   7.334   2.975
 8084WAT     H124494   8.058   7.339   2.921
 8084WAT     H224495   8.119   7.337   3.072
 8085WAT      O24496   7.021   4.875   3.064
 8085WAT     H124497   7.043   4.783   3.094
 8085WAT     H224498   6.944   4.910   3.117
 8086WAT      O24499   7.743   3.459   7.149
 8086WAT     H124500   7.756   3.441   7.246
 8086WAT     H224501   7.747   3.557   7.132
 8087WAT      O24502   1.534   3.869   3.027
 8087WAT     H124503   1.437   3.887   3.010
 8087WAT     H224504   1.584   3.955   3.031
 8088WAT      O24505   9.309   7.728   9.057
 8088WAT     H124506   9.375   7.778   9.001
 8088WAT     H224507   9.227   7.784   9.071
 8089WAT      O24508   7.779   8.749   0.792
 8089WAT     H124509   7.819   8.664   0.757
 8089WAT     H224510   7.702   8.775   0.734
 8090WAT      O24511   5.587   5.492   1.383
 8090WAT     H124512   5.648   5.455   1.314
 8090WAT     H224513   5.629   5.571   1.427
 8091WAT      O24514   2.783   9.559   3.765
 8091WAT     H124515   2.857   9.615   3.802
 8091WAT     H224516   2.797   9.464   3.789
 8092WAT      O24517   1.186   2.997   3.035
 8092WAT     H124518   1.205   2.900   3.054
 8092WAT     H224519   1.191   3.013   2.936
 8093WAT      O24520   4.210   2.101   2.149
 8093WAT     H124521   4.302   2.114   2.114
 8093WAT     H224522   4.154   2.055   2.081
 8094WAT      O24523   1.384   6.657   3.151
 8094WAT     H124524   1.325   6.580   3.173
 8094WAT     H224525   1.395   6.664   3.052
 8095WAT      O24526   3.349   9.820   5.131
 8095WAT     H124527   3.262   9.866   5.148
 8095WAT     H224528   3.357   9.740   5.191
 8096WAT      O24529   0.392   0.724   9.655
 8096WAT     H124530   0.476   0.685   9.616
 8096WAT     H224531   0.327   0.744   9.581
 8097WAT      O24532   5.343   8.240   9.819
 8097WAT     H124533   5.415   8.220   9.885
 8097WAT     H224534   5.359   8.188   9.735
 8098WAT      O24535   6.701   6.784   8.927
 8098WAT     H124536   6.653   6.752   9.009
 8098WAT     H224537   6.667   6.874   8.902
 8099WAT      O24538   5.552   5.957   8.391
 8099WAT     H124539   5.532   5.891   8.319
 8099WAT     H224540   5.616   5.916   8.457
 8100WAT      O24541   7.576   5.880   1.367
 8100WAT     H124542   7.656   5.930   1.401
 8100WAT     H224543   7.595   5.848   1.274
 8101WAT      O24544   3.773   9.775   4.070
 8101WAT     H124545   3.846   9.785   4.137
 8101WAT     H224546   3.687   9.810   4.108
 8102WAT      O24547   8.889   2.768   8.877
 8102WAT     H124548   8.889   2.831   8.954
 8102WAT     H224549   8.957   2.695   8.893
 8103WAT      O24550   5.722   7.738   5.893
 8103WAT     H124551   5.657   7.811   5.912
 8103WAT     H224552   5.815   7.773   5.905
 8104WAT      O24553   2.796   1.512   3.487
 8104WAT     H124554   2.853   1.592   3.508
 8104WAT     H224555   2.848   1.448   3.431
 8105WAT      O24556   8.070   2.595   2.504
 8105WAT     H124557   8.137   2.636   2.567
 8105WAT     H224558   7.998   2.551   2.557
 8106WAT      O24559   0.755   3.460   3.919
 8106WAT     H124560   0.851   3.449   3.945
 8106WAT     H224561   0.746   3.448   3.820
 8107WAT      O24562   0.582   6.898   8.098
 8107WAT     H124563   0.611   6.984   8.055
 8107WAT     H224564   0.537   6.919   8.185
 8108WAT      O24565   6.425   6.153   8.743
 8108WAT     H124566   6.348   6.212   8.763
 8108WAT     H224567   6.430   6.079   8.811
 8109WAT      O24568   7.023   3.151   4.481
 8109WAT     H124569   6.937   3.151   4.532
 8109WAT     H224570   7.075   3.068   4.503
 8110WAT      O24571   6.995   1.110   6.864
 8110WAT     H124572   7.013   1.208   6.862
 8110WAT     H224573   6.974   1.078   6.771
 8111WAT      O24574   6.217   7.908   1.912
 8111WAT     H124575   6.310   7.936   1.891
 8111WAT     H224576   6.152   7.969   1.867
 8112WAT      O24577   8.390   8.555   2.617
 8112WAT     H124578   8.428   8.633   2.667
 8112WAT     H224579   8.290   8.555   2.628
 8113WAT      O24580   3.204   3.491   1.233
 8113WAT     H124581   3.297   3.467   1.204
 8113WAT     H224582   3.195   3.479   1.331
 8114WAT      O24583   5.800   5.458   2.170
 8114WAT     H124584   5.869   5.387   2.185
 8114WAT     H224585   5.813   5.531   2.236
 8115WAT      O24586   2.507   0.751   1.089
 8115WAT     H124587   2.520   0.848   1.105
 8115WAT     H224588   2.503   0.702   1.176
 8116WAT      O24589   7.118   1.652   1.910
 8116WAT     H124590   7.165   1.684   1.828
 8116WAT     H224591   7.024   1.625   1.887
 8117WAT      O24592   7.634   8.806   1.998
 8117WAT     H124593   7.549   8.858   2.001
 8117WAT     H224594   7.703   8.857   1.947
 8118WAT      O24595   9.865   5.757   7.877
 8118WAT     H124596   9.832   5.665   7.853
 8118WAT     H224597   9.853   5.818   7.799
 8119WAT      O24598   1.970   9.726   5.041
 8119WAT     H124599   1.952   9.671   4.959
 8119WAT     H224600   1.974   9.823   5.015
 8120WAT      O24601   4.280   9.184   7.673
 8120WAT     H124602   4.345   9.202   7.747
 8120WAT     H224603   4.304   9.239   7.593
 8121WAT      O24604   4.466   1.025   3.515
 8121WAT     H124605   4.450   1.046   3.418
 8121WAT     H224606   4.549   1.070   3.546
 8122WAT      O24607   5.940   6.849   8.293
 8122WAT     H124608   5.861   6.883   8.344
 8122WAT     H224609   5.930   6.750   8.280
 8123WAT      O24610   6.546   2.376   8.218
 8123WAT     H124611   6.582   2.453   8.271
 8123WAT     H224612   6.514   2.305   8.281
 8124WAT      O24613   2.897   7.840   5.269
 8124WAT     H124614   2.941   7.760   5.311
 8124WAT     H224615   2.826   7.874   5.330
 8125WAT      O24616   5.586   3.869   8.733
 8125WAT     H124617   5.642   3.862   8.816
 8125WAT     H224618   5.628   3.933   8.669
 8126WAT      O24619   0.797   3.897   8.642
 8126WAT     H124620   0.820   3.921   8.736
 8126WAT     H224621   0.705   3.929   8.620
 8127WAT      O24622   1.168   6.449   2.998
 8127WAT     H124623   1.171   6.536   2.949
 8127WAT     H224624   1.246   6.393   2.971
 8128WAT      O24625   7.932   0.692   9.471
 8128WAT     H124626   7.930   0.592   9.477
 8128WAT     H224627   7.846   0.729   9.508
 8129WAT      O24628   0.802   9.515   7.772
 8129WAT     H124629   0.776   9.563   7.688
 8129WAT     H224630   0.775   9.570   7.851
 8130WAT      O24631   2.564   3.094   0.015
 8130WAT     H124632   2.633   3.166   0.025
 8130WAT     H224633   2.570   3.054  -0.076
 8131WAT      O24634   5.252   6.586   7.951
 8131WAT     H124635   5.263   6.683   7.974
 8131WAT     H224636   5.190   6.543   8.017
 8132WAT      O24637   0.133   1.726   4.059
 8132WAT     H124638   0.149   1.783   4.140
 8132WAT     H224639   0.220   1.690   4.026
 8133WAT      O24640   2.309   9.521   1.173
 8133WAT     H124641   2.329   9.466   1.254
 8133WAT     H224642   2.333   9.469   1.091
 8134WAT      O24643   7.547   3.673   6.463
 8134WAT     H124644   7.555   3.588   6.410
 8134WAT     H224645   7.557   3.652   6.561
 8135WAT      O24646   7.772   5.535   3.372
 8135WAT     H124647   7.865   5.539   3.408
 8135WAT     H224648   7.736   5.442   3.384
 8136WAT      O24649   9.163   8.258   5.768
 8136WAT     H124650   9.256   8.261   5.733
 8136WAT     H224651   9.134   8.349   5.796
 8137WAT      O24652   1.716   0.098   2.668
 8137WAT     H124653   1.624   0.095   2.706
 8137WAT     H224654   1.718   0.048   2.582
 8138WAT      O24655   7.388   6.711   0.955
 8138WAT     H124656   7.308   6.652   0.964
 8138WAT     H224657   7.466   6.656   0.924
 8139WAT      O24658   4.280   6.180   6.516
 8139WAT     H124659   4.197   6.128   6.537
 8139WAT     H224660   4.278   6.267   6.564
 8140WAT      O24661   8.031   5.788   8.965
 8140WAT     H124662   8.128   5.795   8.989
 8140WAT     H224663   8.015   5.835   8.878
 8141WAT      O24664   5.398   6.758   5.314
 8141WAT     H124665   5.307   6.766   5.355
 8141WAT     H224666   5.460   6.716   5.379
 8142WAT      O24667   0.182   3.774   4.873
 8142WAT     H124668   0.261   3.816   4.827
 8142WAT     H224669   0.167   3.683   4.835
 8143WAT      O24670   5.390   4.762   3.864
 8143WAT     H124671   5.346   4.722   3.784
 8143WAT     H224672   5.419   4.855   3.844
 8144WAT      O24673   5.873   7.069   2.794
 8144WAT     H124674   5.901   7.049   2.888
 8144WAT     H224675   5.892   6.991   2.736
 8145WAT      O24676   7.673   6.307   2.299
 8145WAT     H124677   7.665   6.226   2.241
 8145WAT     H224678   7.582   6.338   2.326
 8146WAT      O24679   2.729   9.143   0.039
 8146WAT     H124680   2.707   9.046   0.022
 8146WAT     H224681   2.664   9.200  -0.011
 8147WAT      O24682   6.432   4.020   4.413
 8147WAT     H124683   6.405   3.943   4.470
 8147WAT     H224684   6.510   4.067   4.455
 8148WAT      O24685   1.113   4.668   4.150
 8148WAT     H124686   1.186   4.716   4.102
 8148WAT     H224687   1.113   4.693   4.247
 8149WAT      O24688   7.351   9.456   0.910
 8149WAT     H124689   7.257   9.458   0.944
 8149WAT     H224690   7.392   9.547   0.922
 8150WAT      O24691   5.311   4.120   3.428
 8150WAT     H124692   5.407   4.124   3.399
 8150WAT     H224693   5.276   4.028   3.413
 8151WAT      O24694   4.023   7.010   5.097
 8151WAT     H124695   4.103   7.067   5.079
 8151WAT     H224696   3.964   7.056   5.164
 8152WAT      O24697   4.076   2.503   1.793
 8152WAT     H124698   4.132   2.472   1.870
 8152WAT     H224699   4.126   2.487   1.707
 8153WAT      O24700   7.532   5.070   6.184
 8153WAT     H124701   7.440   5.056   6.148
 8153WAT     H224702   7.597   5.015   6.132
 8154WAT      O24703   3.845   3.000   8.556
 8154WAT     H124704   3.926   2.944   8.541
 8154WAT     H224705   3.763   2.947   8.532
 8155WAT      O24706   3.493   2.062   0.124
 8155WAT     H124707   3.462   1.999   0.054
 8155WAT     H224708   3.566   2.020   0.178
 8156WAT      O24709   8.602   5.852   5.150
 8156WAT     H124710   8.674   5.883   5.213
 8156WAT     H224711   8.626   5.762   5.114
 8157WAT      O24712   6.688   0.049   9.283
 8157WAT     H124713   6.651   0.125   9.337
 8157WAT     H224714   6.756   0.001   9.337
 8158WAT      O24715   9.372   0.706   5.511
 8158WAT     H124716   9.379   0.628   5.449
 8158WAT     H224717   9.447   0.770   5.494
 8159WAT      O24718   8.330   4.913   8.518
 8159WAT     H124719   8.256   4.943   8.577
 8159WAT     H224720   8.350   4.984   8.451
 8160WAT      O24721   4.722   5.588   0.626
 8160WAT     H124722   4.725   5.634   0.538
 8160WAT     H224723   4.676   5.500   0.616
 8161WAT      O24724   9.643   1.169   4.444
 8161WAT     H124725   9.630   1.260   4.484
 8161WAT     H224726   9.608   1.168   4.351
 8162WAT      O24727   3.173   3.897   6.096
 8162WAT     H124728   3.266   3.903   6.133
 8162WAT     H224729   3.107   3.903   6.170
 8163WAT      O24730   2.883   9.603   5.267
 8163WAT     H124731   2.902   9.655   5.351
 8163WAT     H224732   2.910   9.658   5.188
 8164WAT      O24733   3.623   5.252   4.694
 8164WAT     H124734   3.575   5.334   4.662
 8164WAT     H224735   3.713   5.248   4.650
 8165WAT      O24736   8.678   8.571   6.359
 8165WAT     H124737   8.775   8.559   6.338
 8165WAT     H224738   8.640   8.485   6.392
 8166WAT      O24739   4.239   3.057   4.166
 8166WAT     H124740   4.181   2.979   4.144
 8166WAT     H224741   4.204   3.103   4.247
 8167WAT      O24742   1.555   3.573   1.206
 8167WAT     H124743   1.506   3.489   1.185
 8167WAT     H224744   1.567   3.580   1.305
 8168WAT      O24745   8.327   5.613   0.286
 8168WAT     H124746   8.337   5.520   0.251
 8168WAT     H224747   8.355   5.615   0.382
 8169WAT      O24748   2.157   1.768   7.738
 8169WAT     H124749   2.150   1.730   7.646
 8169WAT     H224750   2.237   1.828   7.743
 8170WAT      O24751   2.426   4.526   2.277
 8170WAT     H124752   2.523   4.518   2.255
 8170WAT     H224753   2.407   4.620   2.307
 8171WAT      O24754   0.287   9.283   0.372
 8171WAT     H124755   0.282   9.229   0.288
 8171WAT     H224756   0.324   9.373   0.353
 8172WAT      O24757   7.567   0.512   5.490
 8172WAT     H124758   7.567   0.589   5.554
 8172WAT     H224759   7.580   0.427   5.540
 8173WAT      O24760   1.620   8.042   8.338
 8173WAT     H124761   1.526   8.066   8.314
 8173WAT     H224762   1.628   7.943   8.348
 8174WAT      O24763   5.358   2.597   0.201
 8174WAT     H124764   5.454   2.568   0.195
 8174WAT     H224765   5.303   2.520   0.233
 8175WAT      O24766   8.234   8.175   6.653
 8175WAT     H124767   8.287   8.209   6.730
 8175WAT     H224768   8.141   8.153   6.684
 8176WAT      O24769   7.523   6.496   0.135
 8176WAT     H124770   7.453   6.454   0.078
 8176WAT     H224771   7.603   6.436   0.140
 8177WAT      O24772   0.144   3.580   5.334
 8177WAT     H124773   0.180   3.569   5.242
 8177WAT     H224774   0.044   3.585   5.330
 8178WAT      O24775   5.165   9.249   1.349
 8178WAT     H124776   5.124   9.238   1.440
 8178WAT     H224777   5.253   9.201   1.346
 8179WAT      O24778   8.193   1.876   4.045
 8179WAT     H124779   8.224   1.812   4.115
 8179WAT     H224780   8.161   1.825   3.965
 8180WAT      O24781   7.241   6.619   3.131
 8180WAT     H124782   7.273   6.637   3.224
 8180WAT     H224783   7.262   6.697   3.073
 8181WAT      O24784   3.993   3.241   8.528
 8181WAT     H124785   4.067   3.240   8.460
 8181WAT     H224786   3.938   3.158   8.519
 8182WAT      O24787   8.977   2.716   1.586
 8182WAT     H124788   9.000   2.733   1.682
 8182WAT     H224789   9.055   2.675   1.539
 8183WAT      O24790   7.334   8.380   3.551
 8183WAT     H124791   7.283   8.434   3.483
 8183WAT     H224792   7.417   8.344   3.509
 8184WAT      O24793   8.638   8.235   9.750
 8184WAT     H124794   8.733   8.254   9.777
 8184WAT     H224795   8.627   8.251   9.652
 8185WAT      O24796   8.797   1.400   4.441
 8185WAT     H124797   8.702   1.400   4.412
 8185WAT     H224798   8.836   1.309   4.428
 8186WAT      O24799   7.143   4.658   4.028
 8186WAT     H124800   7.117   4.711   3.946
 8186WAT     H224801   7.216   4.707   4.076
 8187WAT      O24802   5.389   5.120   7.228
 8187WAT     H124803   5.335   5.067   7.163
 8187WAT     H224804   5.332   5.144   7.307
 8188WAT      O24805   2.267   8.033   1.099
 8188WAT     H124806   2.183   7.989   1.067
 8188WAT     H224807   2.269   8.031   1.199
 8189WAT      O24808   0.532   3.793   5.337
 8189WAT     H124809   0.496   3.712   5.292
 8189WAT     H224810   0.632   3.793   5.331
 8190WAT      O24811   3.614   2.309   9.585
 8190WAT     H124812   3.565   2.365   9.650
 8190WAT     H224813   3.596   2.341   9.492
 8191WAT      O24814   3.676   9.147   5.502
 8191WAT     H124815   3.612   9.219   5.475
 8191WAT     H224816   3.628   9.079   5.558
 8192WAT      O24817   9.321   5.393   2.029
 8192WAT     H124818   9.379   5.474   2.021
 8192WAT     H224819   9.238   5.406   1.975
 8193WAT      O24820   9.685   3.711   9.744
 8193WAT     H124821   9.606   3.706   9.804
 8193WAT     H224822   9.721   3.804   9.743
 8194WAT      O24823   5.568   4.375   4.918
 8194WAT     H124824   5.560   4.464   4.873
 8194WAT     H224825   5.509   4.373   4.998
 8195WAT      O24826   7.105   2.944   3.055
 8195WAT     H124827   7.061   2.858   3.028
 8195WAT     H224828   7.161   2.977   2.980
 8196WAT      O24829   8.278   3.108   8.923
 8196WAT     H124830   8.260   3.047   8.845
 8196WAT     H224831   8.191   3.143   8.957
 8197WAT      O24832   8.609   3.980   9.474
 8197WAT     H124833   8.650   4.063   9.437
 8197WAT     H224834   8.681   3.917   9.504
 8198WAT      O24835   9.551   1.058   9.625
 8198WAT     H124836   9.602   1.019   9.702
 8198WAT     H224837   9.594   1.143   9.596
 8199WAT      O24838   4.151   4.552   5.639
 8199WAT     H124839   4.155   4.465   5.590
 8199WAT     H224840   4.187   4.625   5.580
 8200WAT      O24841   3.738   3.166   8.208
 8200WAT     H124842   3.648   3.210   8.208
 8200WAT     H224843   3.808   3.233   8.182
 8201WAT      O24844   2.394   3.357   0.387
 8201WAT     H124845   2.345   3.444   0.393
 8201WAT     H224846   2.491   3.373   0.406
 8202WAT      O24847   3.879   8.921   7.128
 8202WAT     H124848   3.831   8.839   7.094
 8202WAT     H224849   3.868   8.995   7.062
 8203WAT      O24850   7.878   2.893   4.300
 8203WAT     H124851   7.957   2.901   4.361
 8203WAT     H224852   7.910   2.881   4.206
 8204WAT      O24853   7.380   5.201   6.897
 8204WAT     H124854   7.302   5.249   6.857
 8204WAT     H224855   7.348   5.130   6.959
 8205WAT      O24856   9.412   9.106   0.209
 8205WAT     H124857   9.329   9.127   0.158
 8205WAT     H224858   9.490   9.101   0.146
 8206WAT      O24859   1.578   2.962   4.661
 8206WAT     H124860   1.649   2.991   4.598
 8206WAT     H224861   1.579   2.862   4.670
 8207WAT      O24862   2.208   6.270   5.289
 8207WAT     H124863   2.130   6.310   5.337
 8207WAT     H224864   2.174   6.201   5.224
 8208WAT      O24865   5.240   2.771   3.854
 8208WAT     H124866   5.173   2.812   3.916
 8208WAT     H224867   5.333   2.790   3.887
 8209WAT      O24868   6.903   2.488   5.289
 8209WAT     H124869   6.923   2.586   5.291
 8209WAT     H224870   6.989   2.437   5.284
 8210WAT      O24871   3.358   0.692   4.486
 8210WAT     H124872   3.281   0.637   4.453
 8210WAT     H224873   3.444   0.645   4.466
 8211WAT      O24874   9.246   6.396   7.690
 8211WAT     H124875   9.292   6.308   7.683
 8211WAT     H224876   9.216   6.411   7.785
 8212WAT      O24877   5.077   8.166   9.601
 8212WAT     H124878   5.134   8.087   9.622
 8212WAT     H224879   5.075   8.180   9.502
 8213WAT      O24880   5.914   8.857   3.925
 8213WAT     H124881   5.920   8.904   4.014
 8213WAT     H224882   5.918   8.758   3.939
 8214WAT      O24883   1.351   1.855   2.119
 8214WAT     H124884   1.423   1.876   2.053
 8214WAT     H224885   1.305   1.769   2.093
 8215WAT      O24886   7.535   8.410   7.862
 8215WAT     H124887   7.499   8.461   7.784
 8215WAT     H224888   7.474   8.333   7.883
 8216WAT      O24889   1.077   3.566   0.079
 8216WAT     H124890   1.176   3.556   0.089
 8216WAT     H224891   1.031   3.486   0.117
 8217WAT      O24892   1.863   8.517   6.995
 8217WAT     H124893   1.897   8.579   6.925
 8217WAT     H224894   1.834   8.431   6.952
 8218WAT      O24895   9.378   0.251   3.183
 8218WAT     H124896   9.469   0.227   3.215
 8218WAT     H224897   9.341   0.178   3.126
 8219WAT      O24898   4.721   6.648   8.239
 8219WAT     H124899   4.707   6.638   8.141
 8219WAT     H224900   4.635   6.629   8.287
 8220WAT      O24901   4.032   0.478   0.866
 8220WAT     H124902   3.987   0.389   0.859
 8220WAT     H224903   3.987   0.544   0.807
 8221WAT      O24904   1.631   3.360   3.494
 8221WAT     H124905   1.687   3.280   3.519
 8221WAT     H224906   1.605   3.409   3.577
 8222WAT      O24907   3.886   3.574   3.868
 8222WAT     H124908   3.983   3.563   3.888
 8222WAT     H224909   3.846   3.639   3.933
 8223WAT      O24910   5.179   4.206   8.735
 8223WAT     H124911   5.138   4.141   8.799
 8223WAT     H224912   5.136   4.197   8.645
 8224WAT      O24913   7.544   1.344   2.309
 8224WAT     H124914   7.573   1.336   2.213
 8224WAT     H224915   7.455   1.388   2.314
 8225WAT      O24916   4.920   6.268   5.534
 8225WAT     H124917   4.986   6.196   5.555
 8225WAT     H224918   4.882   6.254   5.442
 8226WAT      O24919   4.181   2.527   4.869
 8226WAT     H124920   4.192   2.564   4.961
 8226WAT     H224921   4.085   2.500   4.855
 8227WAT      O24922   8.489   5.030   3.422
 8227WAT     H124923   8.465   5.120   3.458
 8227WAT     H224924   8.518   5.039   3.327
 8228WAT      O24925   6.193   1.704   1.711
 8228WAT     H124926   6.141   1.789   1.725
 8228WAT     H224927   6.262   1.719   1.640
 8229WAT      O24928   9.178   3.305   2.939
 8229WAT     H124929   9.239   3.323   2.862
 8229WAT     H224930   9.212   3.228   2.992
 8230WAT      O24931   1.032   1.566   8.621
 8230WAT     H124932   1.019   1.483   8.567
 8230WAT     H224933   0.952   1.580   8.680
 8231WAT      O24934   8.206   1.215   8.815
 8231WAT     H124935   8.215   1.117   8.835
 8231WAT     H224936   8.246   1.267   8.890
 8232WAT      O24937   6.936   1.844   6.954
 8232WAT     H124938   6.837   1.856   6.947
 8232WAT     H224939   6.981   1.930   6.929
 8233WAT      O24940   4.325   6.815   3.206
 8233WAT     H124941   4.321   6.767   3.118
 8233WAT     H224942   4.394   6.887   3.201
 8234WAT      O24943   9.152   7.095   9.549
 8234WAT     H124944   9.147   7.012   9.603
 8234WAT     H224945   9.088   7.089   9.472
 8235WAT      O24946   4.327   4.329   8.510
 8235WAT     H124947   4.281   4.323   8.422
 8235WAT     H224948   4.322   4.240   8.556
 8236WAT      O24949   3.167   6.153   6.244
 8236WAT     H124950   3.107   6.202   6.307
 8236WAT     H224951   3.150   6.185   6.151
 8237WAT      O24952   4.485   1.160   8.550
 8237WAT     H124953   4.452   1.158   8.645
 8237WAT     H224954   4.506   1.067   8.520
 8238WAT      O24955   4.669   6.348   1.803
 8238WAT     H124956   4.612   6.429   1.788
 8238WAT     H224957   4.690   6.305   1.715
 8239WAT      O24958   5.935   4.002   0.363
 8239WAT     H124959   6.002   3.938   0.328
 8239WAT     H224960   5.866   4.021   0.292
 8240WAT      O24961   8.356   2.586   5.377
 8240WAT     H124962   8.403   2.674   5.367
 8240WAT     H224963   8.346   2.565   5.475
 8241WAT      O24964   3.010   2.784   9.027
 8241WAT     H124965   3.046   2.850   9.093
 8241WAT     H224966   2.914   2.766   9.047
 8242WAT      O24967   6.305   8.011   2.927
 8242WAT     H124968   6.344   8.089   2.877
 8242WAT     H224969   6.378   7.946   2.949
 8243WAT      O24970   4.215   4.114   0.698
 8243WAT     H124971   4.297   4.107   0.755
 8243WAT     H224972   4.224   4.051   0.621
 8244WAT      O24973   5.859   2.293   6.544
 8244WAT     H124974   5.907   2.331   6.465
 8244WAT     H224975   5.852   2.194   6.535
 8245WAT      O24976   1.999   1.982   4.494
 8245WAT     H124977   2.053   1.910   4.537
 8245WAT     H224978   1.919   2.002   4.551
 8246WAT      O24979   8.725   6.169   4.425
 8246WAT     H124980   8.787   6.148   4.501
 8246WAT     H224981   8.775   6.223   4.356
 8247WAT      O24982   3.990   3.120   3.738
 8247WAT     H124983   3.970   3.117   3.836
 8247WAT     H224984   3.947   3.201   3.698
 8248WAT      O24985   1.862   3.909   8.208
 8248WAT     H124986   1.790   3.859   8.255
 8248WAT     H224987   1.867   3.878   8.113
 8249WAT      O24988   2.083   3.165   9.524
 8249WAT     H124989   2.055   3.252   9.563
 8249WAT     H224990   2.047   3.157   9.431
 8250WAT      O24991   8.380   9.831   9.110
 8250WAT     H124992   8.403   9.923   9.141
 8250WAT     H224993   8.282   9.816   9.122
 8251WAT      O24994   8.683   4.722   9.396
 8251WAT     H124995   8.598   4.679   9.366
 8251WAT     H224996   8.717   4.782   9.324
 8252WAT      O24997   7.994   1.295   7.073
 8252WAT     H124998   7.946   1.372   7.115
 8252WAT     H224999   8.085   1.287   7.113
 8253WAT      O25000   1.829   6.993   8.416
 8253WAT     H125001   1.842   7.079   8.366
 8253WAT     H225002   1.810   6.919   8.351
 8254WAT      O25003   9.679   8.652   6.904
 8254WAT     H125004   9.631   8.690   6.825
 8254WAT     H225005   9.776   8.679   6.899
 8255WAT      O25006   0.700   0.768   0.386
 8255WAT     H125007   0.706   0.817   0.299
 8255WAT     H225008   0.693   0.833   0.461
 8256WAT      O25009   2.324   4.968   0.270
 8256WAT     H125010   2.380   4.888   0.247
 8256WAT     H225011   2.384   5.043   0.298
 8257WAT      O25012   2.482   4.101   2.568
 8257WAT     H125013   2.383   4.110   2.559
 8257WAT     H225014   2.513   4.150   2.649
 8258WAT      O25015   0.758   1.240   3.565
 8258WAT     H125016   0.825   1.273   3.631
 8258WAT     H225017   0.790   1.154   3.526
 8259WAT      O25018   0.027   6.374   2.975
 8259WAT     H125019  -0.031   6.306   3.020
 8259WAT     H225020   0.067   6.335   2.892
 8260WAT      O25021   9.392   1.604   2.068
 8260WAT     H125022   9.453   1.552   2.127
 8260WAT     H225023   9.321   1.544   2.032
 8261WAT      O25024   2.964   7.981   9.574
 8261WAT     H125025   3.053   7.950   9.605
 8261WAT     H225026   2.904   7.901   9.560
 8262WAT      O25027   5.751   8.529   4.441
 8262WAT     H125028   5.728   8.547   4.536
 8262WAT     H225029   5.847   8.550   4.425
 8263WAT      O25030   3.803   2.838   5.147
 8263WAT     H125031   3.903   2.848   5.145
 8263WAT     H225032   3.762   2.914   5.097
 8264WAT      O25033   1.114   8.065   6.332
 8264WAT     H125034   1.016   8.059   6.317
 8264WAT     H225035   1.150   7.975   6.356
 8265WAT      O25036   6.489   3.262   0.489
 8265WAT     H125037   6.472   3.226   0.398
 8265WAT     H225038   6.403   3.275   0.538
 8266WAT      O25039   4.450   3.317   5.584
 8266WAT     H125040   4.401   3.257   5.647
 8266WAT     H225041   4.456   3.409   5.623
 8267WAT      O25042   0.255   3.341   2.253
 8267WAT     H125043   0.281   3.295   2.338
 8267WAT     H225044   0.331   3.395   2.218
 8268WAT      O25045   3.259   9.450   2.774
 8268WAT     H125046   3.258   9.406   2.684
 8268WAT     H225047   3.165   9.467   2.803
 8269WAT      O25048   1.703   4.230   8.908
 8269WAT     H125049   1.716   4.286   8.826
 8269WAT     H225050   1.782   4.170   8.920
 8270WAT      O25051   7.813   4.665   3.142
 8270WAT     H125052   7.746   4.640   3.212
 8270WAT     H225053   7.766   4.710   3.066
 8271WAT      O25054   2.284   6.199   0.546
 8271WAT     H125055   2.315   6.112   0.583
 8271WAT     H225056   2.231   6.249   0.615
 8272WAT      O25057   4.110   7.087   3.386
 8272WAT     H125058   4.047   7.106   3.461
 8272WAT     H225059   4.183   7.155   3.386
 8273WAT      O25060   5.710   2.005   8.320
 8273WAT     H125061   5.764   2.008   8.235
 8273WAT     H225062   5.762   1.956   8.390
 8274WAT      O25063   5.446   9.345   3.046
 8274WAT     H125064   5.422   9.305   3.134
 8274WAT     H225065   5.468   9.271   2.981
 8275WAT      O25066   2.241   2.401   6.590
 8275WAT     H125067   2.273   2.320   6.541
 8275WAT     H225068   2.144   2.416   6.569
 8276WAT      O25069   9.188   5.674   5.375
 8276WAT     H125070   9.108   5.702   5.427
 8276WAT     H225071   9.225   5.752   5.324
 8277WAT      O25072   8.547   9.282   1.643
 8277WAT     H125073   8.528   9.380   1.644
 8277WAT     H225074   8.532   9.246   1.551
 8278WAT      O25075   6.873   7.263   0.534
 8278WAT     H125076   6.834   7.236   0.446
 8278WAT     H225077   6.814   7.331   0.577
 8279WAT      O25078   7.477   3.728   6.958
 8279WAT     H125079   7.531   3.743   7.042
 8279WAT     H225080   7.417   3.806   6.944
 8280WAT      O25081   0.760   9.540   3.632
 8280WAT     H125082   0.819   9.605   3.680
 8280WAT     H225083   0.666   9.550   3.665
 8281WAT      O25084   8.982   3.024   4.705
 8281WAT     H125085   8.988   3.038   4.606
 8281WAT     H225086   9.004   3.109   4.752
 8282WAT      O25087   2.709   8.258   1.372
 8282WAT     H125088   2.798   8.261   1.418
 8282WAT     H225089   2.654   8.184   1.411
 8283WAT      O25090   7.249   8.318   6.534
 8283WAT     H125091   7.310   8.239   6.537
 8283WAT     H225092   7.296   8.395   6.492
 8284WAT      O25093   1.230   6.700   6.969
 8284WAT     H125094   1.310   6.690   7.027
 8284WAT     H225095   1.227   6.794   6.933
 8285WAT      O25096   1.202   6.044   6.036
 8285WAT     H125097   1.295   6.079   6.048
 8285WAT     H225098   1.198   5.986   5.954
 8286WAT      O25099   0.439   3.074   7.559
 8286WAT     H125100   0.361   3.099   7.617
 8286WAT     H225101   0.500   3.013   7.610
 8287WAT      O25102   2.924   0.327   1.972
 8287WAT     H125103   2.967   0.417   1.985
 8287WAT     H225104   2.966   0.281   1.893
 8288WAT      O25105   7.528   0.827   2.895
 8288WAT     H125106   7.543   0.917   2.935
 8288WAT     H225107   7.445   0.829   2.839
 8289WAT      O25108   5.573   3.650   1.925
 8289WAT     H125109   5.520   3.609   1.999
 8289WAT     H225110   5.540   3.743   1.908
 8290WAT      O25111   8.133   9.101   5.400
 8290WAT     H125112   8.120   9.196   5.429
 8290WAT     H225113   8.184   9.099   5.314
 8291WAT      O25114   3.761   2.578   9.057
 8291WAT     H125115   3.761   2.637   8.977
 8291WAT     H225116   3.668   2.547   9.077
 8292WAT      O25117   0.495   2.017   0.930
 8292WAT     H125118   0.480   2.026   1.028
 8292WAT     H225119   0.445   1.938   0.895
 8293WAT      O25120   6.538   2.821   8.973
 8293WAT     H125121   6.553   2.912   9.011
 8293WAT     H225122   6.535   2.826   8.873
 8294WAT      O25123   5.673   5.233   2.729
 8294WAT     H125124   5.646   5.294   2.654
 8294WAT     H225125   5.741   5.278   2.786
 8295WAT      O25126   2.939   6.573   7.861
 8295WAT     H125127   2.938   6.609   7.768
 8295WAT     H225128   2.985   6.484   7.862
 8296WAT      O25129   2.837   2.463   6.141
 8296WAT     H125130   2.872   2.482   6.049
 8296WAT     H225131   2.738   2.454   6.138
 8297WAT      O25132   8.451   0.964   0.354
 8297WAT     H125133   8.356   0.995   0.363
 8297WAT     H225134   8.508   1.011   0.421
 8298WAT      O25135   8.587   4.690   6.791
 8298WAT     H125136   8.612   4.593   6.782
 8298WAT     H225137   8.488   4.697   6.806
 8299WAT      O25138   7.985   4.883   7.441
 8299WAT     H125139   7.936   4.811   7.391
 8299WAT     H225140   8.017   4.847   7.529
 8300WAT      O25141   8.081   6.777   1.942
 8300WAT     H125142   8.134   6.745   1.863
 8300WAT     H225143   8.118   6.735   2.025
 8301WAT      O25144   8.436   6.022   1.389
 8301WAT     H125145   8.364   6.016   1.459
 8301WAT     H225146   8.434   5.940   1.332
 8302WAT      O25147   8.912   9.353   9.833
 8302WAT     H125148   8.917   9.386   9.927
 8302WAT     H225149   8.966   9.269   9.824
 8303WAT      O25150   6.514   9.782   4.989
 8303WAT     H125151   6.528   9.704   4.928
 8303WAT     H225152   6.603   9.817   5.019
 8304WAT      O25153   5.137   4.471   6.244
 8304WAT     H125154   5.157   4.556   6.195
 8304WAT     H225155   5.038   4.462   6.256
 8305WAT      O25156   0.181   9.775   2.766
 8305WAT     H125157   0.239   9.724   2.702
 8305WAT     H225158   0.114   9.714   2.807
 8306WAT      O25159   2.083   1.770   4.647
 8306WAT     H125160   2.177   1.768   4.614
 8306WAT     H225161   2.068   1.854   4.699
 8307WAT      O25162   0.528   6.863   2.337
 8307WAT     H125163   0.592   6.802   2.383
 8307WAT     H225164   0.508   6.828   2.246
 8308WAT      O25165   5.027   0.515   8.208
 8308WAT     H125166   4.979   0.602   8.208
 8308WAT     H225167   5.125   0.531   8.197
 8309WAT      O25168   6.036   2.003   5.086
 8309WAT     H125169   6.101   2.079   5.090
 8309WAT     H225170   6.042   1.949   5.170
 8310WAT      O25171   1.334   3.071   3.839
 8310WAT     H125172   1.277   3.087   3.758
 8310WAT     H225173   1.390   2.989   3.825
 8311WAT      O25174   1.624   6.695   0.369
 8311WAT     H125175   1.629   6.679   0.468
 8311WAT     H225176   1.529   6.715   0.343
 8312WAT      O25177   4.949   9.738   2.229
 8312WAT     H125178   4.892   9.690   2.162
 8312WAT     H225179   4.903   9.823   2.256
 8313WAT      O25180   8.887   1.249   4.846
 8313WAT     H125181   8.883   1.229   4.944
 8313WAT     H225182   8.976   1.220   4.810
 8314WAT      O25183   3.924   8.574   8.169
 8314WAT     H125184   3.924   8.497   8.234
 8314WAT     H225185   3.918   8.538   8.076
 8315WAT      O25186   7.478   1.689   6.239
 8315WAT     H125187   7.568   1.655   6.267
 8315WAT     H225188   7.436   1.738   6.315
 8316WAT      O25189   0.081   3.083   9.602
 8316WAT     H125190   0.048   3.172   9.632
 8316WAT     H225191   0.139   3.094   9.521
 8317WAT      O25192   3.751   1.536   9.228
 8317WAT     H125193   3.760   1.460   9.163
 8317WAT     H225194   3.829   1.598   9.217
 8318WAT      O25195   1.051   4.898   8.621
 8318WAT     H125196   0.974   4.895   8.557
 8318WAT     H225197   1.077   4.994   8.637
 8319WAT      O25198   9.808   2.887   8.506
 8319WAT     H125199   9.809   2.831   8.589
 8319WAT     H225200   9.851   2.837   8.431
 8320WAT      O25201   6.118   3.256   6.393
 8320WAT     H125202   6.112   3.163   6.358
 8320WAT     H225203   6.213   3.287   6.388
 8321WAT      O25204   9.365   4.551   1.354
 8321WAT     H125205   9.455   4.508   1.353
 8321WAT     H225206   9.367   4.633   1.296
 8322WAT      O25207   9.702   2.110   8.116
 8322WAT     H125208   9.628   2.126   8.180
 8322WAT     H225209   9.749   2.196   8.096
 8323WAT      O25210   9.334   1.380   3.913
 8323WAT     H125211   9.379   1.393   4.002
 8323WAT     H225212   9.256   1.442   3.906
 8324WAT      O25213   1.863   4.394   5.306
 8324WAT     H125214   1.887   4.470   5.366
 8324WAT     H225215   1.911   4.403   5.219
 8325WAT      O25216   3.220   4.169   9.727
 8325WAT     H125217   3.254   4.228   9.653
 8325WAT     H225218   3.148   4.217   9.776
 8326WAT      O25219   9.521   9.250   3.533
 8326WAT     H125220   9.603   9.304   3.514
 8326WAT     H225221   9.443   9.311   3.546
 8327WAT      O25222   2.101   5.208   2.267
 8327WAT     H125223   2.183   5.260   2.245
 8327WAT     H225224   2.026   5.271   2.285
 8328WAT      O25225   7.109   1.566   5.240
 8328WAT     H125226   7.091   1.521   5.152
 8328WAT     H225227   7.127   1.497   5.310
 8329WAT      O25228   8.453   1.796   8.130
 8329WAT     H125229   8.459   1.876   8.189
 8329WAT     H225230   8.460   1.824   8.035
 8330WAT      O25231   7.284   5.550   4.441
 8330WAT     H125232   7.331   5.519   4.358
 8330WAT     H225233   7.269   5.648   4.437
 8331WAT      O25234   1.874   3.751   7.162
 8331WAT     H125235   1.813   3.688   7.210
 8331WAT     H225236   1.822   3.829   7.129
 8332WAT      O25237   0.101   3.400   2.035
 8332WAT     H125238   0.036   3.329   2.007
 8332WAT     H225239   0.150   3.370   2.117
 8333WAT      O25240   9.597   3.869   8.247
 8333WAT     H125241   9.566   3.952   8.200
 8333WAT     H225242   9.668   3.826   8.192
 8334WAT      O25243   8.569   3.736   3.970
 8334WAT     H125244   8.662   3.748   4.006
 8334WAT     H225245   8.573   3.718   3.872
 8335WAT      O25246   7.874   3.887   4.672
 8335WAT     H125247   7.939   3.861   4.744
 8335WAT     H225248   7.921   3.891   4.584
 8336WAT      O25249   5.315   9.223   0.858
 8336WAT     H125250   5.297   9.162   0.935
 8336WAT     H225251   5.260   9.195   0.779
 8337WAT      O25252   2.969   3.089   9.871
 8337WAT     H125253   3.015   3.175   9.895
 8337WAT     H225254   3.036   3.023   9.838
 8338WAT      O25255   2.808   7.773   3.052
 8338WAT     H125256   2.857   7.856   3.025
 8338WAT     H225257   2.859   7.693   3.023
 8339WAT      O25258   1.332   9.531   9.263
 8339WAT     H125259   1.268   9.455   9.274
 8339WAT     H225260   1.356   9.540   9.166
 8340WAT      O25261   1.687   5.141   2.245
 8340WAT     H125262   1.654   5.057   2.201
 8340WAT     H225263   1.611   5.184   2.294
 8341WAT      O25264   4.863   4.720   8.850
 8341WAT     H125265   4.797   4.645   8.852
 8341WAT     H225266   4.949   4.689   8.889
 8342WAT      O25267   6.211   5.852   0.554
 8342WAT     H125268   6.307   5.847   0.581
 8342WAT     H225269   6.176   5.760   0.535
 8343WAT      O25270   7.043   6.142   8.479
 8343WAT     H125271   6.965   6.157   8.540
 8343WAT     H225272   7.014   6.087   8.400
 8344WAT      O25273   5.595   2.449   3.304
 8344WAT     H125274   5.561   2.531   3.260
 8344WAT     H225275   5.688   2.465   3.338
 8345WAT      O25276   1.683   2.670   9.031
 8345WAT     H125277   1.617   2.626   8.971
 8345WAT     H225278   1.775   2.657   8.995
 8346WAT      O25279   9.595   3.891   3.422
 8346WAT     H125280   9.666   3.951   3.457
 8346WAT     H225281   9.528   3.873   3.494
 8347WAT      O25282   3.955   3.129   6.017
 8347WAT     H125283   4.033   3.135   6.078
 8347WAT     H225284   3.971   3.057   5.950
 8348WAT      O25285   7.971   9.838   1.406
 8348WAT     H125286   8.066   9.869   1.405
 8348WAT     H225287   7.959   9.770   1.479
 8349WAT      O25288   2.687   5.039   3.390
 8349WAT     H125289   2.730   5.096   3.320
 8349WAT     H225290   2.753   4.971   3.423
 8350WAT      O25291   4.738   7.920   5.955
 8350WAT     H125292   4.728   7.831   5.911
 8350WAT     H225293   4.826   7.924   6.003
 8351WAT      O25294   9.024   9.091   5.299
 8351WAT     H125295   9.051   9.012   5.245
 8351WAT     H225296   9.100   9.156   5.305
 8352WAT      O25297   6.519   1.366   4.953
 8352WAT     H125298   6.597   1.344   5.011
 8352WAT     H225299   6.451   1.293   4.959
 8353WAT      O25300   1.313   6.088   5.590
 8353WAT     H125301   1.407   6.100   5.624
 8353WAT     H225302   1.254   6.062   5.667
 8354WAT      O25303   6.977   5.318   1.588
 8354WAT     H125304   6.943   5.243   1.531
 8354WAT     H225305   6.900   5.372   1.622
 8355WAT      O25306   9.166   5.090   7.493
 8355WAT     H125307   9.222   5.066   7.413
 8355WAT     H225308   9.212   5.060   7.576
 8356WAT      O25309   7.885   3.195   5.152
 8356WAT     H125310   7.842   3.194   5.243
 8356WAT     H225311   7.855   3.115   5.100
 8357WAT      O25312   9.870   0.550   2.439
 8357WAT     H125313   9.807   0.473   2.431
 8357WAT     H225314   9.928   0.537   2.519
 8358WAT      O25315   5.486   3.504   3.252
 8358WAT     H125316   5.580   3.473   3.261
 8358WAT     H225317   5.478   3.565   3.173
 8359WAT      O25318   5.275   4.127   9.777
 8359WAT     H125319   5.302   4.053   9.839
 8359WAT     H225320   5.280   4.095   9.683
 8360WAT      O25321   2.410   4.082   5.204
 8360WAT     H125322   2.381   3.988   5.224
 8360WAT     H225323   2.395   4.102   5.107
 8361WAT      O25324   9.152   2.557   9.601
 8361WAT     H125325   9.241   2.603   9.600
 8361WAT     H225326   9.166   2.458   9.609
 8362WAT      O25327   1.184   9.500   8.487
 8362WAT     H125328   1.275   9.538   8.503
 8362WAT     H225329   1.137   9.485   8.574
 8363WAT      O25330   3.917   0.821   3.732
 8363WAT     H125331   3.906   0.915   3.766
 8363WAT     H225332   4.014   0.797   3.730
 8364WAT      O25333   5.007   0.717   6.740
 8364WAT     H125334   5.007   0.673   6.650
 8364WAT     H225335   5.005   0.816   6.729
 8365WAT      O25336   6.890   8.736   6.359
 8365WAT     H125337   6.932   8.645   6.361
 8365WAT     H225338   6.797   8.730   6.325
 8366WAT      O25339   9.168   7.235   9.184
 8366WAT     H125340   9.137   7.271   9.272
 8366WAT     H225341   9.116   7.279   9.110
 8367WAT      O25342   1.090   1.145   8.006
 8367WAT     H125343   1.080   1.083   7.929
 8367WAT     H225344   1.052   1.235   7.982
 8368WAT      O25345   2.992   1.740   7.256
 8368WAT     H125346   3.016   1.705   7.165
 8368WAT     H225347   2.907   1.793   7.250
 8369WAT      O25348   4.456   2.250   5.241
 8369WAT     H125349   4.498   2.217   5.157
 8369WAT     H225350   4.521   2.310   5.289
 8370WAT      O25351   5.420   9.119   5.464
 8370WAT     H125352   5.354   9.147   5.394
 8370WAT     H225353   5.396   9.160   5.551
 8371WAT      O25354   3.701   4.790   8.097
 8371WAT     H125355   3.732   4.880   8.066
 8371WAT     H225356   3.768   4.751   8.160
 8372WAT      O25357   6.372   5.368   9.258
 8372WAT     H125358   6.279   5.369   9.220
 8372WAT     H225359   6.378   5.298   9.330
 8373WAT      O25360   3.826   7.365   5.722
 8373WAT     H125361   3.794   7.332   5.810
 8373WAT     H225362   3.923   7.389   5.728
 8374WAT      O25363   6.027   3.418   5.168
 8374WAT     H125364   6.112   3.420   5.116
 8374WAT     H225365   6.033   3.480   5.246
 8375WAT      O25366   6.519   7.860   2.897
 8375WAT     H125367   6.617   7.868   2.877
 8375WAT     H225368   6.473   7.818   2.819
 8376WAT      O25369   1.123   2.474   4.317
 8376WAT     H125370   1.032   2.474   4.276
 8376WAT     H225371   1.166   2.563   4.303
 8377WAT      O25372   2.457   3.152   9.323
 8377WAT     H125373   2.484   3.217   9.252
 8377WAT     H225374   2.534   3.136   9.384
 8378WAT      O25375   7.954   2.511   1.901
 8378WAT     H125376   8.008   2.508   1.985
 8378WAT     H225377   8.002   2.460   1.829
 8379WAT      O25378   2.013   4.877   8.184
 8379WAT     H125379   2.040   4.783   8.161
 8379WAT     H225380   2.039   4.897   8.279
 8380WAT      O25381   4.338   0.252   4.185
 8380WAT     H125382   4.357   0.167   4.234
 8380WAT     H225383   4.320   0.325   4.251
 8381WAT      O25384   9.508   4.049   4.341
 8381WAT     H125385   9.533   4.022   4.248
 8381WAT     H225386   9.591   4.067   4.394
 8382WAT      O25387   5.382   2.777   4.841
 8382WAT     H125388   5.371   2.711   4.915
 8382WAT     H225389   5.315   2.760   4.770
 8383WAT      O25390   6.516   4.359   4.837
 8383WAT     H125391   6.465   4.435   4.798
 8383WAT     H225392   6.613   4.372   4.818
 8384WAT      O25393   2.491   7.785   7.299
 8384WAT     H125394   2.470   7.882   7.307
 8384WAT     H225395   2.589   7.771   7.316
 8385WAT      O25396   9.105   8.466   8.586
 8385WAT     H125397   9.169   8.537   8.617
 8385WAT     H225398   9.134   8.432   8.497
 8386WAT      O25399   5.948   5.001   6.841
 8386WAT     H125400   5.857   4.963   6.823
 8386WAT     H225401   5.962   5.082   6.783
 8387WAT      O25402   7.884   7.883   4.279
 8387WAT     H125403   7.845   7.891   4.370
 8387WAT     H225404   7.936   7.966   4.257
 8388WAT      O25405   6.900   8.590   8.403
 8388WAT     H125406   6.905   8.605   8.501
 8388WAT     H225407   6.961   8.653   8.355
 8389WAT      O25408   6.643   2.238   7.967
 8389WAT     H125409   6.559   2.199   7.931
 8389WAT     H225410   6.624   2.285   8.053
 8390WAT      O25411   2.571   9.143   0.393
 8390WAT     H125412   2.532   9.059   0.356
 8390WAT     H225413   2.651   9.170   0.339
 8391WAT      O25414   7.166   2.252   1.717
 8391WAT     H125415   7.209   2.203   1.793
 8391WAT     H225416   7.220   2.236   1.634
 8392WAT      O25417   8.764   2.141   9.735
 8392WAT     H125418   8.713   2.161   9.651
 8392WAT     H225419   8.821   2.219   9.758
 8393WAT      O25420   2.298   6.510   4.354
 8393WAT     H125421   2.304   6.416   4.388
 8393WAT     H225422   2.254   6.567   4.424
 8394WAT      O25423   9.148   1.608   3.425
 8394WAT     H125424   9.177   1.702   3.409
 8394WAT     H225425   9.129   1.563   3.338
 8395WAT      O25426   9.564   3.571   1.974
 8395WAT     H125427   9.559   3.671   1.970
 8395WAT     H225428   9.497   3.532   1.910
 8396WAT      O25429   8.634   7.406   7.044
 8396WAT     H125430   8.635   7.456   6.958
 8396WAT     H225431   8.551   7.350   7.050
 8397WAT      O25432   3.506   2.160   2.217
 8397WAT     H125433   3.498   2.082   2.279
 8397WAT     H225434   3.527   2.243   2.269
 8398WAT      O25435   8.753   4.213   9.384
 8398WAT     H125436   8.715   4.205   9.292
 8398WAT     H225437   8.837   4.160   9.390
 8399WAT      O25438   1.070   4.406   5.333
 8399WAT     H125439   1.060   4.402   5.234
 8399WAT     H225440   1.167   4.421   5.355
 8400WAT      O25441   4.414   7.667   1.445
 8400WAT     H125442   4.508   7.670   1.411
 8400WAT     H225443   4.382   7.572   1.445
 8401WAT      O25444   1.755   5.445   1.420
 8401WAT     H125445   1.831   5.407   1.474
 8401WAT     H225446   1.679   5.467   1.481
 8402WAT      O25447   8.978   7.667   7.424
 8402WAT     H125448   9.016   7.574   7.423
 8402WAT     H225449   8.972   7.700   7.518
 8403WAT      O25450   5.149   8.868   7.432
 8403WAT     H125451   5.164   8.921   7.516
 8403WAT     H225452   5.052   8.869   7.409
 8404WAT      O25453   6.348   7.797   0.160
 8404WAT     H125454   6.302   7.865   0.103
 8404WAT     H225455   6.349   7.709   0.112
 8405WAT      O25456   3.004   3.690   5.650
 8405WAT     H125457   3.076   3.627   5.623
 8405WAT     H225458   3.045   3.770   5.695
 8406WAT      O25459   2.162   7.985   6.472
 8406WAT     H125460   2.163   7.974   6.373
 8406WAT     H225461   2.119   7.905   6.514
 8407WAT      O25462   3.777   0.552   3.411
 8407WAT     H125463   3.811   0.622   3.348
 8407WAT     H225464   3.854   0.515   3.464
 8408WAT      O25465   2.169   7.901   4.447
 8408WAT     H125466   2.095   7.963   4.422
 8408WAT     H225467   2.256   7.939   4.415
 8409WAT      O25468   5.850   7.919   4.466
 8409WAT     H125469   5.777   7.858   4.435
 8409WAT     H225470   5.856   7.998   4.405
 8410WAT      O25471   6.951   5.107   2.947
 8410WAT     H125472   7.003   5.030   2.983
 8410WAT     H225473   6.923   5.087   2.853
 8411WAT      O25474   2.949   7.073   8.730
 8411WAT     H125475   2.952   7.165   8.691
 8411WAT     H225476   2.968   7.078   8.828
 8412WAT      O25477   6.748   0.736   0.791
 8412WAT     H125478   6.818   0.790   0.838
 8412WAT     H225479   6.676   0.797   0.759
 8413WAT      O25480   5.557   6.519   6.604
 8413WAT     H125481   5.563   6.517   6.504
 8413WAT     H225482   5.648   6.504   6.643
 8414WAT      O25483   1.179   3.528   7.770
 8414WAT     H125484   1.120   3.509   7.848
 8414WAT     H225485   1.275   3.521   7.798
 8415WAT      O25486   2.914   8.216   8.503
 8415WAT     H125487   2.914   8.180   8.596
 8415WAT     H225488   2.918   8.316   8.506
 8416WAT      O25489   5.563   5.201   0.154
 8416WAT     H125490   5.541   5.103   0.148
 8416WAT     H225491   5.537   5.246   0.068
 8417WAT      O25492   4.307   0.407   4.390
 8417WAT     H125493   4.293   0.502   4.364
 8417WAT     H225494   4.400   0.394   4.424
 8418WAT      O25495   5.523   6.535   2.303
 8418WAT     H125496   5.501   6.506   2.209
 8418WAT     H225497   5.535   6.634   2.305
 8419WAT      O25498   7.332   8.664   8.449
 8419WAT     H125499   7.290   8.638   8.536
 8419WAT     H225500   7.303   8.600   8.378
 8420WAT      O25501   2.201   5.947   9.165
 8420WAT     H125502   2.234   5.865   9.213
 8420WAT     H225503   2.164   5.920   9.075
 8421WAT      O25504   6.577   3.652   4.115
 8421WAT     H125505   6.595   3.596   4.034
 8421WAT     H225506   6.654   3.643   4.179
 8422WAT      O25507   8.177   8.504   9.080
 8422WAT     H125508   8.099   8.537   9.134
 8422WAT     H225509   8.233   8.443   9.135
 8423WAT      O25510   0.859   3.651   8.527
 8423WAT     H125511   0.831   3.727   8.586
 8423WAT     H225512   0.826   3.667   8.434
 8424WAT      O25513   9.859   2.086   9.791
 8424WAT     H125514   9.898   2.005   9.748
 8424WAT     H225515   9.909   2.106   9.875
 8425WAT      O25516   0.606   1.371   1.232
 8425WAT     H125517   0.591   1.428   1.313
 8425WAT     H225518   0.685   1.406   1.180
 8426WAT      O25519   9.743   5.907   7.659
 8426WAT     H125520   9.821   5.968   7.645
 8426WAT     H225521   9.671   5.928   7.592
 8427WAT      O25522   6.613   7.789   5.479
 8427WAT     H125523   6.708   7.791   5.448
 8427WAT     H225524   6.584   7.694   5.493
 8428WAT      O25525   4.246   6.956   1.856
 8428WAT     H125526   4.256   6.996   1.766
 8428WAT     H225527   4.247   6.856   1.849
 8429WAT      O25528   1.760   0.723   8.945
 8429WAT     H125529   1.715   0.650   8.996
 8429WAT     H225530   1.776   0.801   9.007
 8430WAT      O25531   3.249   8.076   1.739
 8430WAT     H125532   3.257   8.126   1.825
 8430WAT     H225533   3.177   8.006   1.748
 8431WAT      O25534   7.893   9.671   9.176
 8431WAT     H125535   7.922   9.585   9.135
 8431WAT     H225536   7.812   9.705   9.127
 8432WAT      O25537   5.582   1.621   1.680
 8432WAT     H125538   5.497   1.620   1.732
 8432WAT     H225539   5.571   1.678   1.599
 8433WAT      O25540   8.542   4.599   4.108
 8433WAT     H125541   8.616   4.561   4.163
 8433WAT     H225542   8.458   4.547   4.124
 8434WAT      O25543   8.851   5.625   7.495
 8434WAT     H125544   8.775   5.573   7.456
 8434WAT     H225545   8.879   5.583   7.581
 8435WAT      O25546   7.219   3.081   1.040
 8435WAT     H125547   7.251   3.173   1.061
 8435WAT     H225548   7.241   3.020   1.115
 8436WAT      O25549   2.520   0.281   7.293
 8436WAT     H125550   2.544   0.194   7.249
 8436WAT     H225551   2.475   0.262   7.380
 8437WAT      O25552   3.488   7.059   7.969
 8437WAT     H125553   3.390   7.051   7.955
 8437WAT     H225554   3.512   7.023   8.060
 8438WAT      O25555   4.485   0.173   0.500
 8438WAT     H125556   4.488   0.268   0.533
 8438WAT     H225557   4.509   0.112   0.575
 8439WAT      O25558   6.755   9.362   9.414
 8439WAT     H125559   6.680   9.419   9.447
 8439WAT     H225560   6.831   9.365   9.479
 8440WAT      O25561   2.407   8.224   7.595
 8440WAT     H125562   2.498   8.194   7.569
 8440WAT     H225563   2.386   8.191   7.687
 8441WAT      O25564   4.427   2.204   1.266
 8441WAT     H125565   4.388   2.295   1.268
 8441WAT     H225566   4.372   2.145   1.207
 8442WAT      O25567   1.140   6.710   5.222
 8442WAT     H125568   1.148   6.808   5.241
 8442WAT     H225569   1.089   6.697   5.137
 8443WAT      O25570   1.830   8.818   1.226
 8443WAT     H125571   1.908   8.757   1.231
 8443WAT     H225572   1.842   8.893   1.290
 8444WAT      O25573   8.616   9.031   6.849
 8444WAT     H125574   8.546   9.101   6.859
 8444WAT     H225575   8.620   9.001   6.754
 8445WAT      O25576   9.351   4.159   4.636
 8445WAT     H125577   9.259   4.183   4.664
 8445WAT     H225578   9.358   4.161   4.536
 8446WAT      O25579   8.273   6.933   5.467
 8446WAT     H125580   8.259   7.029   5.492
 8446WAT     H225581   8.357   6.924   5.413
 8447WAT      O25582   2.127   2.908   0.566
 8447WAT     H125583   2.175   2.925   0.652
 8447WAT     H225584   2.037   2.951   0.569
 8448WAT      O25585   8.526   5.363   1.058
 8448WAT     H125586   8.511   5.364   1.157
 8448WAT     H225587   8.581   5.283   1.034
 8449WAT      O25588   4.249   4.038   3.011
 8449WAT     H125589   4.271   4.052   2.915
 8449WAT     H225590   4.280   4.118   3.064
 8450WAT      O25591   1.259   9.599   4.056
 8450WAT     H125592   1.244   9.698   4.064
 8450WAT     H225593   1.181   9.550   4.096
 8451WAT      O25594   1.496   0.288   9.500
 8451WAT     H125595   1.461   0.213   9.557
 8451WAT     H225596   1.420   0.331   9.452
 8452WAT      O25597   4.027   9.714   5.305
 8452WAT     H125598   3.992   9.693   5.214
 8452WAT     H225599   4.040   9.629   5.356
 8453WAT      O25600   6.412   9.626   4.473
 8453WAT     H125601   6.330   9.681   4.458
 8453WAT     H225602   6.403   9.577   4.560
 8454WAT      O25603   0.658   5.110   3.377
 8454WAT     H125604   0.566   5.131   3.344
 8454WAT     H225605   0.725   5.164   3.325
 8455WAT      O25606   7.405   7.063   4.945
 8455WAT     H125607   7.446   7.022   5.026
 8455WAT     H225608   7.322   7.113   4.972
 8456WAT      O25609   0.469   3.675   7.078
 8456WAT     H125610   0.524   3.734   7.138
 8456WAT     H225611   0.437   3.596   7.129
 8457WAT      O25612   4.358   3.134   8.578
 8457WAT     H125613   4.324   3.051   8.535
 8457WAT     H225614   4.439   3.113   8.633
 8458WAT      O25615   9.847   0.587   0.619
 8458WAT     H125616   9.848   0.497   0.575
 8458WAT     H225617   9.881   0.578   0.713
 8459WAT      O25618   7.364   9.763   9.774
 8459WAT     H125619   7.453   9.733   9.741
 8459WAT     H225620   7.372   9.799   9.867
 8460WAT      O25621   0.878   1.626   4.744
 8460WAT     H125622   0.921   1.542   4.778
 8460WAT     H225623   0.841   1.610   4.653
 8461WAT      O25624   2.863   1.131   3.235
 8461WAT     H125625   2.894   1.060   3.299
 8461WAT     H225626   2.858   1.092   3.143
 8462WAT      O25627   6.589   8.761   5.939
 8462WAT     H125628   6.669   8.794   5.889
 8462WAT     H225629   6.594   8.661   5.948
 8463WAT      O25630   4.791   2.173   7.164
 8463WAT     H125631   4.865   2.229   7.202
 8463WAT     H225632   4.809   2.076   7.184
 8464WAT      O25633   4.335   6.312   6.889
 8464WAT     H125634   4.350   6.363   6.804
 8464WAT     H225635   4.331   6.214   6.870
 8465WAT      O25636   6.697   4.824   1.076
 8465WAT     H125637   6.731   4.816   0.982
 8465WAT     H225638   6.698   4.920   1.103
 8466WAT      O25639   8.333   6.348   2.432
 8466WAT     H125640   8.266   6.287   2.474
 8466WAT     H225641   8.417   6.346   2.485
 8467WAT      O25642   4.854   3.318   9.822
 8467WAT     H125643   4.936   3.375   9.818
 8467WAT     H225644   4.878   3.228   9.858
 8468WAT      O25645   5.536   1.594   1.070
 8468WAT     H125646   5.609   1.600   1.002
 8468WAT     H225647   5.551   1.516   1.130
 8469WAT      O25648   5.494   5.884   1.489
 8469WAT     H125649   5.450   5.827   1.558
 8469WAT     H225650   5.583   5.915   1.524
 8470WAT      O25651   2.550   0.006   5.407
 8470WAT     H125652   2.542  -0.047   5.492
 8470WAT     H225653   2.481   0.078   5.406
 8471WAT      O25654   1.918   7.283   6.377
 8471WAT     H125655   1.901   7.381   6.367
 8471WAT     H225656   2.013   7.269   6.406
 8472WAT      O25657   8.053   3.629   8.404
 8472WAT     H125658   7.961   3.608   8.369
 8472WAT     H225659   8.056   3.615   8.503
 8473WAT      O25660   3.166   5.816   4.936
 8473WAT     H125661   3.265   5.819   4.949
 8473WAT     H225662   3.142   5.861   4.850
 8474WAT      O25663   2.462   7.320   8.612
 8474WAT     H125664   2.549   7.316   8.661
 8474WAT     H225665   2.478   7.343   8.516
 8475WAT      O25666   8.412   5.426   6.735
 8475WAT     H125667   8.448   5.341   6.774
 8475WAT     H225668   8.342   5.464   6.795
 8476WAT      O25669   4.572   8.460   1.786
 8476WAT     H125670   4.667   8.461   1.815
 8476WAT     H225671   4.522   8.389   1.835
 8477WAT      O25672   3.760   7.893   2.244
 8477WAT     H125673   3.752   7.975   2.187
 8477WAT     H225674   3.691   7.896   2.317
 8478WAT      O25675   8.998   6.552   8.665
 8478WAT     H125676   9.012   6.647   8.694
 8478WAT     H225677   8.914   6.517   8.706
 8479WAT      O25678   8.776   4.918   8.994
 8479WAT     H125679   8.873   4.898   8.993
 8479WAT     H225680   8.746   4.935   9.089
 8480WAT      O25681   0.972   7.342   7.426
 8480WAT     H125682   1.068   7.347   7.397
 8480WAT     H225683   0.913   7.378   7.354
 8481WAT      O25684   7.549   7.892   5.278
 8481WAT     H125685   7.459   7.924   5.307
 8481WAT     H225686   7.614   7.967   5.285
 8482WAT      O25687   8.720   8.047   1.840
 8482WAT     H125688   8.767   7.960   1.822
 8482WAT     H225689   8.636   8.051   1.786
 8483WAT      O25690   4.928   6.910   9.475
 8483WAT     H125691   4.980   6.983   9.431
 8483WAT     H225692   4.981   6.874   9.551
 8484WAT      O25693   7.888   9.340   0.419
 8484WAT     H125694   7.824   9.389   0.479
 8484WAT     H225695   7.913   9.400   0.343
 8485WAT      O25696   3.711   8.955   9.218
 8485WAT     H125697   3.612   8.966   9.222
 8485WAT     H225698   3.748   9.011   9.143
 8486WAT      O25699   0.851   9.813   7.379
 8486WAT     H125700   0.932   9.763   7.412
 8486WAT     H225701   0.819   9.875   7.450
 8487WAT      O25702   6.956   2.551   7.189
 8487WAT     H125703   6.989   2.603   7.268
 8487WAT     H225704   7.022   2.479   7.167
 8488WAT      O25705   2.385   0.315   9.718
 8488WAT     H125706   2.416   0.223   9.743
 8488WAT     H225707   2.390   0.375   9.798
 8489WAT      O25708   8.346   8.724   0.974
 8489WAT     H125709   8.264   8.678   0.938
 8489WAT     H225710   8.427   8.672   0.948
 8490WAT      O25711   4.259   8.105   7.416
 8490WAT     H125712   4.345   8.054   7.416
 8490WAT     H225713   4.248   8.151   7.505
 8491WAT      O25714   3.555   0.513   3.546
 8491WAT     H125715   3.636   0.537   3.493
 8491WAT     H225716   3.579   0.444   3.614
 8492WAT      O25717   6.419   1.631   3.754
 8492WAT     H125718   6.384   1.551   3.803
 8492WAT     H225719   6.343   1.692   3.732
 8493WAT      O25720   2.551   5.102   4.254
 8493WAT     H125721   2.626   5.124   4.317
 8493WAT     H225722   2.524   5.185   4.205
 8494WAT      O25723   4.299   1.845   4.801
 8494WAT     H125724   4.378   1.838   4.862
 8494WAT     H225725   4.244   1.924   4.826
 8495WAT      O25726   2.111   1.218   0.478
 8495WAT     H125727   2.053   1.148   0.437
 8495WAT     H225728   2.058   1.302   0.489
 8496WAT      O25729   4.926   3.918   0.944
 8496WAT     H125730   4.906   3.965   1.030
 8496WAT     H225731   4.841   3.879   0.908
 8497WAT      O25732   2.196   0.049   7.553
 8497WAT     H125733   2.160   0.136   7.587
 8497WAT     H225734   2.120  -0.010   7.524
 8498WAT      O25735   3.205   7.298   7.720
 8498WAT     H125736   3.167   7.304   7.813
 8498WAT     H225737   3.186   7.208   7.682
 8499WAT      O25738   1.989   6.051   3.332
 8499WAT     H125739   1.962   6.144   3.307
 8499WAT     H225740   2.005   6.047   3.431
 8500WAT      O25741   9.481   5.935   5.707
 8500WAT     H125742   9.429   5.856   5.738
 8500WAT     H225743   9.549   5.960   5.775
 8501WAT      O25744   1.719   7.894   2.677
 8501WAT     H125745   1.779   7.886   2.757
 8501WAT     H225746   1.723   7.987   2.641
 8502WAT      O25747   1.986   3.013   8.883
 8502WAT     H125748   1.993   2.922   8.925
 8502WAT     H225749   2.078   3.049   8.867
 8503WAT      O25750   8.983   3.045   4.446
 8503WAT     H125751   9.063   3.086   4.402
 8503WAT     H225752   8.939   2.982   4.382
 8504WAT      O25753   4.431   4.586   5.675
 8504WAT     H125754   4.338   4.596   5.712
 8504WAT     H225755   4.429   4.525   5.595
 8505WAT      O25756   3.458   6.411   4.852
 8505WAT     H125757   3.392   6.487   4.858
 8505WAT     H225758   3.488   6.386   4.944
 8506WAT      O25759   5.470   8.152   4.716
 8506WAT     H125760   5.458   8.243   4.675
 8506WAT     H225761   5.544   8.155   4.783
 8507WAT      O25762   5.675   6.658   8.139
 8507WAT     H125763   5.749   6.637   8.204
 8507WAT     H225764   5.654   6.576   8.085
 8508WAT      O25765   3.151   7.851   0.632
 8508WAT     H125766   3.105   7.835   0.544
 8508WAT     H225767   3.124   7.940   0.668
 8509WAT      O25768   8.321   7.836   8.066
 8509WAT     H125769   8.283   7.865   7.978
 8509WAT     H225770   8.354   7.742   8.059
 8510WAT      O25771   0.565   1.578   1.916
 8510WAT     H125772   0.537   1.529   1.834
 8510WAT     H225773   0.538   1.525   1.997
 8511WAT      O25774   8.919   1.489   0.127
 8511WAT     H125775   8.904   1.587   0.140
 8511WAT     H225776   8.838   1.439   0.159
 8512WAT      O25777   6.790   9.464   9.105
 8512WAT     H125778   6.718   9.449   9.038
 8512WAT     H225779   6.751   9.471   9.197
 8513WAT      O25780   0.967   7.026   2.253
 8513WAT     H125781   0.868   7.037   2.260
 8513WAT     H225782   1.013   7.094   2.311
 8514WAT      O25783   9.152   9.498   7.391
 8514WAT     H125784   9.189   9.408   7.365
 8514WAT     H225785   9.081   9.486   7.460
 8515WAT      O25786   1.734   7.823   2.196
 8515WAT     H125787   1.721   7.780   2.285
 8515WAT     H225788   1.776   7.913   2.209
 8516WAT      O25789   3.678   5.077   8.875
 8516WAT     H125790   3.621   5.008   8.829
 8516WAT     H225791   3.707   5.145   8.809
 8517WAT      O25792   5.248   4.596   5.221
 8517WAT     H125793   5.199   4.572   5.304
 8517WAT     H225794   5.301   4.679   5.236
 8518WAT      O25795   2.731   6.922   5.523
 8518WAT     H125796   2.639   6.933   5.487
 8518WAT     H225797   2.798   6.934   5.450
 8519WAT      O25798   7.591   0.735   8.997
 8519WAT     H125799   7.552   0.644   8.982
 8519WAT     H225800   7.571   0.765   9.090
 8520WAT      O25801   7.672   6.540   8.938
 8520WAT     H125802   7.643   6.503   9.026
 8520WAT     H225803   7.610   6.614   8.910
 8521WAT      O25804   3.539   4.051   5.550
 8521WAT     H125805   3.588   4.079   5.633
 8521WAT     H225806   3.442   4.075   5.560
 8522WAT      O25807   2.077   8.850   5.980
 8522WAT     H125808   2.159   8.824   6.031
 8522WAT     H225809   2.006   8.781   5.992
 8523WAT      O25810   6.286   7.074   4.556
 8523WAT     H125811   6.249   7.043   4.469
 8523WAT     H225812   6.300   6.995   4.616
 8524WAT      O25813   0.931   1.643   5.838
 8524WAT     H125814   0.892   1.563   5.793
 8524WAT     H225815   1.030   1.642   5.828
 8525WAT      O25816   6.767   8.213   6.207
 8525WAT     H125817   6.828   8.204   6.286
 8525WAT     H225818   6.798   8.153   6.134
 8526WAT      O25819   1.123   3.077   2.774
 8526WAT     H125820   1.193   3.142   2.745
 8526WAT     H225821   1.032   3.113   2.753
 8527WAT      O25822   3.190   3.805   8.110
 8527WAT     H125823   3.242   3.880   8.150
 8527WAT     H225824   3.238   3.771   8.029
 8528WAT      O25825   1.902   5.973   5.292
 8528WAT     H125826   2.001   5.964   5.298
 8528WAT     H225827   1.867   5.907   5.225
 8529WAT      O25828   6.773   0.976   2.034
 8529WAT     H125829   6.850   1.040   2.035
 8529WAT     H225830   6.720   0.987   2.118
 8530WAT      O25831   3.865   7.920   8.798
 8530WAT     H125832   3.858   8.015   8.766
 8530WAT     H225833   3.775   7.877   8.791
 8531WAT      O25834   2.268   5.586   5.667
 8531WAT     H125835   2.182   5.567   5.714
 8531WAT     H225836   2.294   5.681   5.682
 8532WAT      O25837   8.941   7.946   9.872
 8532WAT     H125838   8.946   8.038   9.833
 8532WAT     H225839   8.955   7.879   9.800
 8533WAT      O25840   7.505   2.282   7.336
 8533WAT     H125841   7.522   2.198   7.285
 8533WAT     H225842   7.453   2.346   7.280
 8534WAT      O25843   9.455   4.616   3.278
 8534WAT     H125844   9.420   4.608   3.185
 8534WAT     H225845   9.378   4.625   3.342
 8535WAT      O25846   1.924   4.209   1.415
 8535WAT     H125847   1.829   4.182   1.430
 8535WAT     H225848   1.976   4.130   1.381
 8536WAT      O25849   0.944   9.753   2.166
 8536WAT     H125850   0.976   9.734   2.073
 8536WAT     H225851   0.939   9.666   2.217
 8537WAT      O25852   9.679   7.965   4.070
 8537WAT     H125853   9.660   8.062   4.084
 8537WAT     H225854   9.751   7.955   4.001
 8538WAT      O25855   0.322   2.728   5.233
 8538WAT     H125856   0.242   2.703   5.287
 8538WAT     H225857   0.387   2.779   5.289
 8539WAT      O25858   9.125   9.313   6.809
 8539WAT     H125859   9.143   9.236   6.748
 8539WAT     H225860   9.171   9.298   6.896
 8540WAT      O25861   9.191   3.804   7.210
 8540WAT     H125862   9.190   3.813   7.110
 8540WAT     H225863   9.285   3.810   7.243
 8541WAT      O25864   8.685   8.487   7.287
 8541WAT     H125865   8.718   8.422   7.355
 8541WAT     H225866   8.598   8.525   7.316
 8542WAT      O25867   1.129   0.332   4.313
 8542WAT     H125868   1.159   0.343   4.218
 8542WAT     H225869   1.176   0.399   4.371
 8543WAT      O25870   3.704   1.225   6.963
 8543WAT     H125871   3.644   1.261   6.891
 8543WAT     H225872   3.650   1.167   7.024
 8544WAT      O25873   9.470   1.858   0.167
 8544WAT     H125874   9.535   1.828   0.098
 8544WAT     H225875   9.485   1.807   0.252
 8545WAT      O25876   5.346   9.374   7.778
 8545WAT     H125877   5.320   9.395   7.684
 8545WAT     H225878   5.383   9.456   7.821
 8546WAT      O25879   6.145   4.453   6.984
 8546WAT     H125880   6.064   4.449   6.926
 8546WAT     H225881   6.126   4.511   7.063
 8547WAT      O25882   1.837   6.049   3.058
 8547WAT     H125883   1.931   6.021   3.075
 8547WAT     H225884   1.778   6.014   3.130
 8548WAT      O25885   8.211   0.194   7.483
 8548WAT     H125886   8.154   0.269   7.451
 8548WAT     H225887   8.284   0.229   7.541
 8549WAT      O25888   3.123   6.931   3.136
 8549WAT     H125889   3.193   6.915   3.206
 8549WAT     H225890   3.111   6.848   3.081
 8550WAT      O25891   3.916   6.001   1.917
 8550WAT     H125892   4.005   5.961   1.896
 8550WAT     H225893   3.849   5.929   1.931
 8551WAT      O25894   7.693   4.487   7.133
 8551WAT     H125895   7.643   4.467   7.217
 8551WAT     H225896   7.789   4.503   7.154
 8552WAT      O25897   4.162   3.981   3.603
 8552WAT     H125898   4.158   3.979   3.504
 8552WAT     H225899   4.241   3.929   3.635
 8553WAT      O25900   1.519   4.579   7.103
 8553WAT     H125901   1.464   4.620   7.176
 8553WAT     H225902   1.549   4.651   7.040
 8554WAT      O25903   4.972   2.142   3.661
 8554WAT     H125904   4.992   2.157   3.564
 8554WAT     H225905   4.934   2.050   3.673
 8555WAT      O25906   2.644   5.627   9.368
 8555WAT     H125907   2.604   5.635   9.460
 8555WAT     H225908   2.656   5.719   9.329
 8556WAT      O25909   8.939   7.408   2.457
 8556WAT     H125910   8.903   7.448   2.373
 8556WAT     H225911   9.038   7.394   2.447
 8557WAT      O25912   8.494   7.209   3.273
 8557WAT     H125913   8.593   7.198   3.259
 8557WAT     H225914   8.447   7.128   3.238
 8558WAT      O25915   7.813   7.936   1.297
 8558WAT     H125916   7.778   8.030   1.296
 8558WAT     H225917   7.852   7.914   1.208
 8559WAT      O25918   2.218   0.732   2.836
 8559WAT     H125919   2.146   0.664   2.851
 8559WAT     H225920   2.210   0.768   2.743
 8560WAT      O25921   0.397   0.728   1.901
 8560WAT     H125922   0.439   0.657   1.845
 8560WAT     H225923   0.451   0.743   1.983
 8561WAT      O25924   6.493   4.044   9.611
 8561WAT     H125925   6.521   3.957   9.651
 8561WAT     H225926   6.530   4.052   9.518
 8562WAT      O25927   2.360   4.651   3.749
 8562WAT     H125928   2.439   4.708   3.769
 8562WAT     H225929   2.281   4.685   3.800
 8563WAT      O25930   9.068   4.019   2.293
 8563WAT     H125931   9.097   3.932   2.253
 8563WAT     H225932   9.010   4.002   2.372
 8564WAT      O25933   3.093   4.668   1.345
 8564WAT     H125934   3.163   4.705   1.407
 8564WAT     H225935   3.048   4.591   1.388
 8565WAT      O25936   2.602   4.544   0.471
 8565WAT     H125937   2.664   4.480   0.425
 8565WAT     H225938   2.511   4.537   0.430
 8566WAT      O25939   0.822   3.465   2.890
 8566WAT     H125940   0.781   3.520   2.963
 8566WAT     H225941   0.780   3.374   2.890
 8567WAT      O25942   8.984   9.525   5.226
 8567WAT     H125943   8.935   9.611   5.242
 8567WAT     H225944   9.026   9.494   5.312
 8568WAT      O25945   1.295   6.377   6.271
 8568WAT     H125946   1.265   6.322   6.348
 8568WAT     H225947   1.219   6.434   6.238
 8569WAT      O25948   0.024   1.127   0.161
 8569WAT     H125949   0.097   1.070   0.198
 8569WAT     H225950  -0.032   1.161   0.237
 8570WAT      O25951   7.438   0.262   2.709
 8570WAT     H125952   7.363   0.305   2.660
 8570WAT     H225953   7.513   0.327   2.719
 8571WAT      O25954   6.485   2.419   0.873
 8571WAT     H125955   6.501   2.463   0.785
 8571WAT     H225956   6.473   2.489   0.944
 8572WAT      O25957   8.301   7.873   9.613
 8572WAT     H125958   8.217   7.894   9.563
 8572WAT     H225959   8.336   7.957   9.656
 8573WAT      O25960   6.120   9.640   4.171
 8573WAT     H125961   6.024   9.656   4.192
 8573WAT     H225962   6.140   9.542   4.174
 8574WAT      O25963   5.860   9.721   2.636
 8574WAT     H125964   5.897   9.639   2.593
 8574WAT     H225965   5.786   9.757   2.579
 8575WAT      O25966   2.645   8.751   2.566
 8575WAT     H125967   2.742   8.747   2.588
 8575WAT     H225968   2.592   8.754   2.651
 8576WAT      O25969   8.116   5.272   7.785
 8576WAT     H125970   8.107   5.338   7.710
 8576WAT     H225971   8.196   5.295   7.840
 8577WAT      O25972   6.590   6.740   2.851
 8577WAT     H125973   6.541   6.775   2.931
 8577WAT     H225974   6.534   6.671   2.805
 8578WAT      O25975   7.902   1.875   3.643
 8578WAT     H125976   7.951   1.960   3.624
 8578WAT     H225977   7.819   1.896   3.696
 8579WAT      O25978   0.417   0.718   3.813
 8579WAT     H125979   0.377   0.753   3.728
 8579WAT     H225980   0.450   0.795   3.868
 8580WAT      O25981   4.476   4.316   4.167
 8580WAT     H125982   4.414   4.366   4.227
 8580WAT     H225983   4.569   4.353   4.175
 8581WAT      O25984   4.217   6.744   6.591
 8581WAT     H125985   4.225   6.775   6.496
 8581WAT     H225986   4.140   6.681   6.599
 8582WAT      O25987   5.609   0.557   9.457
 8582WAT     H125988   5.698   0.523   9.426
 8582WAT     H225989   5.541   0.485   9.448
 8583WAT      O25990   9.058   6.435   2.342
 8583WAT     H125991   8.974   6.444   2.288
 8583WAT     H225992   9.133   6.479   2.294
 8584WAT      O25993   1.333   5.378   2.589
 8584WAT     H125994   1.243   5.335   2.594
 8584WAT     H225995   1.323   5.478   2.589
 8585WAT      O25996   0.968   2.815   6.208
 8585WAT     H125997   1.053   2.867   6.200
 8585WAT     H225998   0.976   2.730   6.156
 8586WAT      O25999   6.982   8.052   9.564
 8586WAT     H126000   6.914   8.011   9.625
 8586WAT     H226001   7.068   8.000   9.570
 8587WAT      O26002   9.524   4.766   7.131
 8587WAT     H126003   9.548   4.845   7.075
 8587WAT     H226004   9.503   4.796   7.224
 8588WAT      O26005   3.180   0.206   3.134
 8588WAT     H126006   3.267   0.220   3.181
 8588WAT     H226007   3.111   0.266   3.173
 8589WAT      O26008   1.244   8.652   8.447
 8589WAT     H126009   1.325   8.710   8.457
 8589WAT     H226010   1.168   8.708   8.415
 8590WAT      O26011   2.221   8.527   1.379
 8590WAT     H126012   2.256   8.581   1.456
 8590WAT     H226013   2.296   8.476   1.337
 8591WAT      O26014   4.893   2.781   7.790
 8591WAT     H126015   4.933   2.689   7.785
 8591WAT     H226016   4.954   2.842   7.839
 8592WAT      O26017   8.906   4.411   7.938
 8592WAT     H126018   8.915   4.372   7.847
 8592WAT     H226019   8.975   4.482   7.951
 8593WAT      O26020   7.745   5.234   6.511
 8593WAT     H126021   7.795   5.295   6.572
 8593WAT     H226022   7.665   5.197   6.558
 8594WAT      O26023   3.676   2.997   6.127
 8594WAT     H126024   3.610   2.978   6.054
 8594WAT     H226025   3.759   2.944   6.111
 8595WAT      O26026   5.340   1.443   2.555
 8595WAT     H126027   5.433   1.436   2.593
 8595WAT     H226028   5.314   1.356   2.513
 8596WAT      O26029   3.885   0.283   4.127
 8596WAT     H126030   3.850   0.353   4.065
 8596WAT     H226031   3.970   0.245   4.090
 8597WAT      O26032   1.981   6.414   5.387
 8597WAT     H126033   1.932   6.492   5.349
 8597WAT     H226034   1.916   6.341   5.409
 8598WAT      O26035   1.359   3.063   8.643
 8598WAT     H126036   1.359   3.010   8.559
 8598WAT     H226037   1.271   3.108   8.655
 8599WAT      O26038   2.197   3.509   8.822
 8599WAT     H126039   2.116   3.550   8.781
 8599WAT     H226040   2.239   3.574   8.886
 8600WAT      O26041   0.137   9.739   0.406
 8600WAT     H126042   0.128   9.667   0.337
 8600WAT     H226043   0.156   9.826   0.362
 8601WAT      O26044   6.218   1.239   1.039
 8601WAT     H126045   6.222   1.147   1.002
 8601WAT     H226046   6.274   1.244   1.122
 8602WAT      O26047   1.404   5.340   7.186
 8602WAT     H126048   1.369   5.409   7.122
 8602WAT     H226049   1.353   5.346   7.272
 8603WAT      O26050   3.847   5.360   8.936
 8603WAT     H126051   3.766   5.391   8.985
 8603WAT     H226052   3.909   5.438   8.921
 8604WAT      O26053   0.662   7.044   0.048
 8604WAT     H126054   0.731   7.098  -0.001
 8604WAT     H226055   0.704   7.001   0.128
 8605WAT      O26056   6.472   6.513   8.988
 8605WAT     H126057   6.520   6.445   9.044
 8605WAT     H226058   6.384   6.534   9.030
 8606WAT      O26059   2.932   7.819   6.804
 8606WAT     H126060   2.886   7.841   6.890
 8606WAT     H226061   3.027   7.847   6.809
 8607WAT      O26062   2.836   2.104   1.193
 8607WAT     H126063   2.913   2.125   1.133
 8607WAT     H226064   2.864   2.036   1.261
 8608WAT      O26065   1.981   0.018   2.310
 8608WAT     H126066   1.904  -0.028   2.353
 8608WAT     H226067   2.054   0.030   2.377
 8609WAT      O26068   6.864   7.234   2.692
 8609WAT     H126069   6.886   7.139   2.713
 8609WAT     H226070   6.872   7.249   2.593
 8610WAT      O26071   4.856   6.929   1.359
 8610WAT     H126072   4.912   6.965   1.284
 8610WAT     H226073   4.916   6.891   1.429
 8611WAT      O26074   0.195   4.282   8.309
 8611WAT     H126075   0.225   4.292   8.215
 8611WAT     H226076   0.250   4.341   8.368
 8612WAT      O26077   9.314   8.168   8.188
 8612WAT     H126078   9.398   8.119   8.211
 8612WAT     H226079   9.282   8.139   8.098
 8613WAT      O26080   8.624   2.565   2.891
 8613WAT     H126081   8.708   2.562   2.838
 8613WAT     H226082   8.645   2.564   2.988
 8614WAT      O26083   6.837   2.573   5.733
 8614WAT     H126084   6.746   2.613   5.729
 8614WAT     H226085   6.831   2.474   5.732
 8615WAT      O26086   5.267   5.889   4.746
 8615WAT     H126087   5.224   5.911   4.833
 8615WAT     H226088   5.289   5.792   4.743
 8616WAT      O26089   7.140   8.757   0.550
 8616WAT     H126090   7.174   8.791   0.638
 8616WAT     H226091   7.079   8.679   0.565
 8617WAT      O26092   1.162   6.251   8.228
 8617WAT     H126093   1.091   6.270   8.161
 8617WAT     H226094   1.181   6.334   8.281
 8618WAT      O26095   7.930   7.786   8.141
 8618WAT     H126096   7.991   7.832   8.205
 8618WAT     H226097   7.897   7.702   8.181
 8619WAT      O26098   3.186   3.487   5.146
 8619WAT     H126099   3.218   3.422   5.214
 8619WAT     H226100   3.222   3.578   5.167
 8620WAT      O26101   7.933   6.790   6.773
 8620WAT     H126102   7.843   6.751   6.751
 8620WAT     H226103   7.965   6.752   6.859
 8621WAT      O26104   7.983   7.849   2.978
 8621WAT     H126105   8.018   7.780   2.915
 8621WAT     H226106   8.027   7.937   2.958
 8622WAT      O26107   1.312   5.670   5.024
 8622WAT     H126108   1.391   5.717   4.985
 8622WAT     H226109   1.338   5.627   5.110
 8623WAT      O26110   3.548   1.481   1.758
 8623WAT     H126111   3.575   1.411   1.824
 8623WAT     H226112   3.449   1.497   1.766
 8624WAT      O26113   4.996   0.480   0.558
 8624WAT     H126114   5.076   0.521   0.515
 8624WAT     H226115   4.951   0.546   0.618
 8625WAT      O26116   4.923   7.812   9.689
 8625WAT     H126117   4.926   7.723   9.735
 8625WAT     H226118   4.983   7.876   9.738
 8626WAT      O26119   5.184   4.215   0.142
 8626WAT     H126120   5.223   4.298   0.182
 8626WAT     H226121   5.234   4.193   0.058
 8627WAT      O26122   5.164   4.386   2.051
 8627WAT     H126123   5.222   4.305   2.056
 8627WAT     H226124   5.195   4.453   2.119
 8628WAT      O26125   8.834   6.866   7.342
 8628WAT     H126126   8.919   6.829   7.381
 8628WAT     H226127   8.856   6.936   7.274
 8629WAT      O26128   3.083   2.128   5.785
 8629WAT     H126129   3.157   2.094   5.727
 8629WAT     H226130   3.113   2.211   5.831
 8630WAT      O26131   1.956   3.821   9.616
 8630WAT     H126132   1.958   3.729   9.657
 8630WAT     H226133   1.862   3.854   9.613
 8631WAT      O26134   6.246   1.935   9.681
 8631WAT     H126135   6.299   1.951   9.598
 8631WAT     H226136   6.271   1.846   9.720
 8632WAT      O26137   5.982   3.043   4.613
 8632WAT     H126138   6.067   3.008   4.575
 8632WAT     H226139   5.980   3.143   4.603
 8633WAT      O26140   0.885   7.410   1.268
 8633WAT     H126141   0.822   7.361   1.329
 8633WAT     H226142   0.976   7.369   1.274
 8634WAT      O26143   8.909   2.721   1.187
 8634WAT     H126144   8.971   2.738   1.111
 8634WAT     H226145   8.831   2.783   1.181
 8635WAT      O26146   7.586   0.928   6.301
 8635WAT     H126147   7.514   0.858   6.296
 8635WAT     H226148   7.567   1.000   6.234
 8636WAT      O26149   2.125   1.061   7.759
 8636WAT     H126150   2.108   1.154   7.726
 8636WAT     H226151   2.179   1.064   7.843
 8637WAT      O26152   6.433   4.280   2.551
 8637WAT     H126153   6.360   4.280   2.620
 8637WAT     H226154   6.401   4.234   2.469
 8638WAT      O26155   8.723   6.303   9.340
 8638WAT     H126156   8.677   6.223   9.302
 8638WAT     H226157   8.676   6.331   9.424
 8639WAT      O26158   8.284   5.004   6.210
 8639WAT     H126159   8.257   4.930   6.149
 8639WAT     H226160   8.219   5.079   6.203
 8640WAT      O26161   5.856   2.175   4.369
 8640WAT     H126162   5.843   2.274   4.369
 8640WAT     H226163   5.904   2.148   4.453
 8641WAT      O26164   8.503   2.143   9.586
 8641WAT     H126165   8.492   2.088   9.669
 8641WAT     H226166   8.421   2.200   9.574
 8642WAT      O26167   1.834   0.671   4.410
 8642WAT     H126168   1.856   0.766   4.430
 8642WAT     H226169   1.842   0.655   4.312
 8643WAT      O26170   5.981   1.602   2.789
 8643WAT     H126171   5.989   1.504   2.807
 8643WAT     H226172   5.888   1.623   2.759
 8644WAT      O26173   4.717   4.965   4.429
 8644WAT     H126174   4.641   4.960   4.364
 8644WAT     H226175   4.736   5.060   4.451
 8645WAT      O26176   9.750   7.747   1.725
 8645WAT     H126177   9.822   7.696   1.772
 8645WAT     H226178   9.744   7.716   1.630
 8646WAT      O26179   7.584   5.020   4.197
 8646WAT     H126180   7.554   4.939   4.147
 8646WAT     H226181   7.581   5.100   4.137
 8647WAT      O26182   1.154   0.528   5.023
 8647WAT     H126183   1.080   0.465   5.046
 8647WAT     H226184   1.116   0.609   4.979
 8648WAT      O26185   9.763   8.445   0.251
 8648WAT     H126186   9.807   8.355   0.258
 8648WAT     H226187   9.828   8.516   0.277
 8649WAT      O26188   2.263   0.681   2.468
 8649WAT     H126189   2.237   0.756   2.529
 8649WAT     H226190   2.270   0.596   2.521
 8650WAT      O26191   0.989   3.144   5.137
 8650WAT     H126192   1.036   3.107   5.057
 8650WAT     H226193   0.905   3.190   5.108
 8651WAT      O26194   2.732   8.228   0.487
 8651WAT     H126195   2.675   8.254   0.565
 8651WAT     H226196   2.773   8.138   0.503
 8652WAT      O26197   5.760   7.883   2.544
 8652WAT     H126198   5.854   7.849   2.550
 8652WAT     H226199   5.754   7.974   2.584
 8653WAT      O26200   9.048   6.794   2.351
 8653WAT     H126201   9.079   6.784   2.446
 8653WAT     H226202   8.952   6.822   2.351
 8654WAT      O26203   1.300   7.747   9.600
 8654WAT     H126204   1.362   7.806   9.651
 8654WAT     H226205   1.333   7.738   9.506
 8655WAT      O26206   5.555   6.274   5.757
 8655WAT     H126207   5.520   6.225   5.678
 8655WAT     H226208   5.583   6.208   5.828
 8656WAT      O26209   1.793   7.660   2.923
 8656WAT     H126210   1.874   7.603   2.906
 8656WAT     H226211   1.718   7.628   2.866
 8657WAT      O26212   3.720   2.460   2.152
 8657WAT     H126213   3.819   2.458   2.161
 8657WAT     H226214   3.696   2.476   2.056
 8658WAT      O26215   9.822   0.184   5.472
 8658WAT     H126216   9.812   0.106   5.410
 8658WAT     H226217   9.905   0.173   5.527
 8659WAT      O26218   9.616   6.463   9.878
 8659WAT     H126219   9.524   6.438   9.909
 8659WAT     H226220   9.637   6.555   9.908
 8660WAT      O26221   8.693   0.433   7.342
 8660WAT     H126222   8.694   0.403   7.247
 8660WAT     H226223   8.675   0.355   7.401
 8661WAT      O26224   6.326   5.076   4.243
 8661WAT     H126225   6.422   5.074   4.214
 8661WAT     H226226   6.271   5.025   4.177
 8662WAT      O26227   5.713   8.974   1.775
 8662WAT     H126228   5.792   8.985   1.835
 8662WAT     H226229   5.682   8.878   1.778
 8663WAT      O26230   3.546   7.763   1.716
 8663WAT     H126231   3.546   7.768   1.616
 8663WAT     H226232   3.452   7.763   1.750
 8664WAT      O26233   0.169   5.280   6.841
 8664WAT     H126234   0.245   5.273   6.906
 8664WAT     H226235   0.199   5.245   6.752
 8665WAT      O26236   5.123   3.801   9.542
 8665WAT     H126237   5.057   3.789   9.616
 8665WAT     H226238   5.074   3.811   9.455
 8666WAT      O26239   4.220   5.496   0.857
 8666WAT     H126240   4.208   5.588   0.894
 8666WAT     H226241   4.267   5.500   0.769
 8667WAT      O26242   0.688   1.219   8.660
 8667WAT     H126243   0.632   1.280   8.715
 8667WAT     H226244   0.779   1.209   8.702
 8668WAT      O26245   2.404   4.723   2.742
 8668WAT     H126246   2.401   4.817   2.777
 8668WAT     H226247   2.403   4.659   2.819
 8669WAT      O26248   4.219   1.685   9.834
 8669WAT     H126249   4.134   1.707   9.786
 8669WAT     H226250   4.198   1.639   9.920
 8670WAT      O26251   9.660   3.814   2.605
 8670WAT     H126252   9.685   3.720   2.582
 8670WAT     H226253   9.562   3.827   2.590
 8671WAT      O26254   4.669   5.651   7.242
 8671WAT     H126255   4.593   5.597   7.207
 8671WAT     H226256   4.641   5.747   7.250
 8672WAT      O26257   7.967   9.822   4.310
 8672WAT     H126258   7.908   9.822   4.390
 8672WAT     H226259   7.925   9.877   4.237
 8673WAT      O26260   0.330   3.927   1.871
 8673WAT     H126261   0.310   3.832   1.846
 8673WAT     H226262   0.351   3.931   1.969
 8674WAT      O26263   4.382   7.232   7.710
 8674WAT     H126264   4.318   7.302   7.676
 8674WAT     H226265   4.331   7.163   7.762
 8675WAT      O26266   3.763   5.456   8.058
 8675WAT     H126267   3.744   5.498   8.147
 8675WAT     H226268   3.809   5.521   7.999
 8676WAT      O26269   9.854   4.363   7.780
 8676WAT     H126270   9.776   4.422   7.802
 8676WAT     H226271   9.926   4.418   7.737
 8677WAT      O26272   5.354   8.202   8.825
 8677WAT     H126273   5.429   8.266   8.844
 8677WAT     H226274   5.272   8.253   8.799
 8678WAT      O26275   4.903   9.036   9.463
 8678WAT     H126276   4.902   9.098   9.541
 8678WAT     H226277   4.850   9.075   9.388
 8679WAT      O26278   7.325   2.415   3.879
 8679WAT     H126279   7.282   2.489   3.931
 8679WAT     H226280   7.305   2.426   3.782
 8680WAT      O26281   6.229   0.338   1.997
 8680WAT     H126282   6.154   0.279   2.025
 8680WAT     H226283   6.196   0.432   1.987
 8681WAT      O26284   3.008   3.793   1.315
 8681WAT     H126285   3.065   3.865   1.275
 8681WAT     H226286   3.065   3.734   1.373
 8682WAT      O26287   9.407   0.517   3.067
 8682WAT     H126288   9.391   0.601   3.119
 8682WAT     H226289   9.389   0.438   3.125
 8683WAT      O26290   1.935   2.531   5.472
 8683WAT     H126291   1.953   2.629   5.465
 8683WAT     H226292   1.859   2.506   5.413
 8684WAT      O26293   5.915   0.241   9.861
 8684WAT     H126294   5.968   0.188   9.795
 8684WAT     H226295   5.977   0.281   9.928
 8685WAT      O26296   8.197   9.498   4.899
 8685WAT     H126297   8.115   9.443   4.915
 8685WAT     H226298   8.214   9.556   4.978
 8686WAT      O26299   9.407   0.911   0.222
 8686WAT     H126300   9.368   0.918   0.130
 8686WAT     H226301   9.360   0.839   0.273
 8687WAT      O26302   0.157   8.548   1.358
 8687WAT     H126303   0.190   8.471   1.413
 8687WAT     H226304   0.234   8.589   1.309
 8688WAT      O26305   2.635   7.854   1.015
 8688WAT     H126306   2.547   7.811   0.992
 8688WAT     H226307   2.634   7.949   0.985
 8689WAT      O26308   0.819   0.284   5.682
 8689WAT     H126309   0.722   0.261   5.689
 8689WAT     H226310   0.836   0.332   5.596
 8690WAT      O26311   7.408   2.520   8.986
 8690WAT     H126312   7.327   2.573   8.963
 8690WAT     H226313   7.453   2.561   9.066
 8691WAT      O26314   5.764   2.147   5.736
 8691WAT     H126315   5.788   2.053   5.712
 8691WAT     H226316   5.688   2.178   5.678
 8692WAT      O26317   4.435   0.028   9.853
 8692WAT     H126318   4.368   0.102   9.853
 8692WAT     H226319   4.388  -0.060   9.853
 8693WAT      O26320   7.576   9.406   4.911
 8693WAT     H126321   7.603   9.328   4.967
 8693WAT     H226322   7.576   9.380   4.815
 8694WAT      O26323   6.560   4.528   2.977
 8694WAT     H126324   6.565   4.433   2.948
 8694WAT     H226325   6.621   4.542   3.056
 8695WAT      O26326   7.614   1.860   2.095
 8695WAT     H126327   7.529   1.875   2.145
 8695WAT     H226328   7.630   1.762   2.085
 8696WAT      O26329   2.297   8.973   5.783
 8696WAT     H126330   2.278   8.985   5.685
 8696WAT     H226331   2.227   9.020   5.836
 8697WAT      O26332   1.363   4.625   9.336
 8697WAT     H126333   1.423   4.705   9.340
 8697WAT     H226334   1.383   4.572   9.253
 8698WAT      O26335   0.462   6.247   0.396
 8698WAT     H126336   0.485   6.267   0.301
 8698WAT     H226337   0.543   6.261   0.454
 8699WAT      O26338   4.251   3.624   4.583
 8699WAT     H126339   4.196   3.578   4.654
 8699WAT     H226340   4.208   3.711   4.559
 8700WAT      O26341   1.208   7.993   3.038
 8700WAT     H126342   1.194   7.949   3.127
 8700WAT     H226343   1.131   8.053   3.018
 8701WAT      O26344   0.852   4.598   8.385
 8701WAT     H126345   0.857   4.622   8.288
 8701WAT     H226346   0.923   4.531   8.406
 8702WAT      O26347   2.029   6.754   4.222
 8702WAT     H126348   1.990   6.841   4.251
 8702WAT     H226349   1.980   6.721   4.141
 8703WAT      O26350   5.139   7.389   1.825
 8703WAT     H126351   5.078   7.312   1.802
 8703WAT     H226352   5.233   7.364   1.805
 8704WAT      O26353   0.697   2.033   5.890
 8704WAT     H126354   0.664   2.021   5.984
 8704WAT     H226355   0.796   2.022   5.888
 8705WAT      O26356   9.427   9.531   0.153
 8705WAT     H126357   9.436   9.614   0.209
 8705WAT     H226358   9.506   9.472   0.168
 8706WAT      O26359   4.742   8.672   4.272
 8706WAT     H126360   4.677   8.595   4.270
 8706WAT     H226361   4.829   8.643   4.231
 8707WAT      O26362   0.314   2.592   6.453
 8707WAT     H126363   0.286   2.606   6.548
 8707WAT     H226364   0.240   2.548   6.403
 8708WAT      O26365   2.216   7.746   3.748
 8708WAT     H126366   2.153   7.761   3.824
 8708WAT     H226367   2.289   7.814   3.752
 8709WAT      O26368   7.900   7.856   8.853
 8709WAT     H126369   7.809   7.878   8.891
 8709WAT     H226370   7.915   7.911   8.771
 8710WAT      O26371   8.261   3.148   1.323
 8710WAT     H126372   8.248   3.064   1.271
 8710WAT     H226373   8.357   3.156   1.350
 8711WAT      O26374   8.763   6.720   3.662
 8711WAT     H126375   8.823   6.796   3.688
 8711WAT     H226376   8.790   6.685   3.572
 8712WAT      O26377   8.778   6.730   9.739
 8712WAT     H126378   8.783   6.729   9.639
 8712WAT     H226379   8.690   6.766   9.767
 8713WAT      O26380   2.263   8.330   9.127
 8713WAT     H126381   2.206   8.258   9.088
 8713WAT     H226382   2.240   8.418   9.085
 8714WAT      O26383   7.201   0.219   7.712
 8714WAT     H126384   7.249   0.276   7.645
 8714WAT     H226385   7.261   0.202   7.790
 8715WAT      O26386   1.799   8.318   3.087
 8715WAT     H126387   1.721   8.318   3.150
 8715WAT     H226388   1.875   8.369   3.128
 8716WAT      O26389   3.452   8.212   5.560
 8716WAT     H126390   3.427   8.207   5.464
 8716WAT     H226391   3.385   8.163   5.615
 8717WAT      O26392   6.693   8.025   7.549
 8717WAT     H126393   6.722   7.997   7.458
 8717WAT     H226394   6.768   8.075   7.593
 8718WAT      O26395   3.143   0.344   1.234
 8718WAT     H126396   3.067   0.279   1.236
 8718WAT     H226397   3.216   0.307   1.176
 8719WAT      O26398   7.223   5.880   4.517
 8719WAT     H126399   7.171   5.910   4.597
 8719WAT     H226400   7.321   5.887   4.537
 8720WAT      O26401   2.472   7.186   6.879
 8720WAT     H126402   2.403   7.137   6.827
 8720WAT     H226403   2.533   7.121   6.925
 8721WAT      O26404   5.547   2.629   4.645
 8721WAT     H126405   5.538   2.649   4.548
 8721WAT     H226406   5.473   2.672   4.696
 8722WAT      O26407   8.328   6.721   2.165
 8722WAT     H126408   8.340   6.623   2.153
 8722WAT     H226409   8.277   6.739   2.249
 8723WAT      O26410   7.415   2.150   8.948
 8723WAT     H126411   7.327   2.160   8.994
 8723WAT     H226412   7.403   2.163   8.850
 8724WAT      O26413   8.425   0.385   3.256
 8724WAT     H126414   8.338   0.404   3.302
 8724WAT     H226415   8.442   0.455   3.186
 8725WAT      O26416   9.450   3.523   3.510
 8725WAT     H126417   9.440   3.447   3.574
 8725WAT     H226418   9.476   3.488   3.420
 8726WAT      O26419   6.093   1.289   4.769
 8726WAT     H126420   6.102   1.357   4.696
 8726WAT     H226421   6.126   1.329   4.855
 8727WAT      O26422   8.429   2.099   1.404
 8727WAT     H126423   8.372   2.154   1.466
 8727WAT     H226424   8.521   2.094   1.440
 8728WAT      O26425   1.031   3.247   1.940
 8728WAT     H126426   1.129   3.231   1.932
 8728WAT     H226427   1.015   3.321   2.006
 8729WAT      O26428   6.898   8.774   4.268
 8729WAT     H126429   6.864   8.843   4.332
 8729WAT     H226430   6.876   8.802   4.175
 8730WAT      O26431   0.082   5.711   1.131
 8730WAT     H126432   0.169   5.750   1.160
 8730WAT     H226433   0.067   5.733   1.034
 8731WAT      O26434   2.694   7.547   4.151
 8731WAT     H126435   2.629   7.528   4.078
 8731WAT     H226436   2.682   7.480   4.225
 8732WAT      O26437   0.220   5.665   9.686
 8732WAT     H126438   0.301   5.721   9.704
 8732WAT     H226439   0.243   5.568   9.699
 8733WAT      O26440   5.309   8.595   8.491
 8733WAT     H126441   5.292   8.552   8.403
 8733WAT     H226442   5.318   8.694   8.479
 8734WAT      O26443   9.385   4.733   2.738
 8734WAT     H126444   9.435   4.764   2.819
 8734WAT     H226445   9.377   4.808   2.673
 8735WAT      O26446   3.059   4.039   9.251
 8735WAT     H126447   3.117   4.100   9.303
 8735WAT     H226448   3.115   3.971   9.203
 8736WAT      O26449   6.085   1.457   5.637
 8736WAT     H126450   6.070   1.452   5.538
 8736WAT     H226451   6.055   1.547   5.669
 8737WAT      O26452   6.791   1.837   4.577
 8737WAT     H126453   6.722   1.824   4.507
 8737WAT     H226454   6.828   1.748   4.604
 8738WAT      O26455   0.372   9.306   2.318
 8738WAT     H126456   0.309   9.357   2.375
 8738WAT     H226457   0.325   9.229   2.275
 8739WAT      O26458   7.362   8.974   8.637
 8739WAT     H126459   7.365   9.074   8.637
 8739WAT     H226460   7.454   8.938   8.618
 8740WAT      O26461   7.061   2.192   3.909
 8740WAT     H126462   7.157   2.184   3.937
 8740WAT     H226463   7.057   2.205   3.810
 8741WAT      O26464   0.418   9.162   8.454
 8741WAT     H126465   0.412   9.255   8.491
 8741WAT     H226466   0.328   9.118   8.462
 8742WAT      O26467   8.846   1.728   0.159
 8742WAT     H126468   8.755   1.766   0.172
 8742WAT     H226469   8.909   1.769   0.226
 8743WAT      O26470   9.156   3.156   1.480
 8743WAT     H126471   9.205   3.102   1.548
 8743WAT     H226472   9.104   3.228   1.526
 8744WAT      O26473   6.717   2.866   1.551
 8744WAT     H126474   6.730   2.788   1.612
 8744WAT     H226475   6.621   2.873   1.524
 8745WAT      O26476   3.209   4.586   2.774
 8745WAT     H126477   3.164   4.634   2.699
 8745WAT     H226478   3.281   4.644   2.812
 8746WAT      O26479   8.059   5.096   5.362
 8746WAT     H126480   8.054   5.025   5.432
 8746WAT     H226481   7.987   5.082   5.294
 8747WAT      O26482   8.428   4.259   0.284
 8747WAT     H126483   8.448   4.350   0.321
 8747WAT     H226484   8.330   4.241   0.292
 8748WAT      O26485   9.304   0.711   8.609
 8748WAT     H126486   9.279   0.668   8.522
 8748WAT     H226487   9.392   0.758   8.599
 8749WAT      O26488   3.901   3.258   4.964
 8749WAT     H126489   3.906   3.274   4.865
 8749WAT     H226490   3.988   3.220   4.996
 8750WAT      O26491   4.952   1.842   2.984
 8750WAT     H126492   4.855   1.839   2.958
 8750WAT     H226493   5.008   1.846   2.902
 8751WAT      O26494   1.886   8.118   4.420
 8751WAT     H126495   1.831   8.078   4.493
 8751WAT     H226496   1.937   8.195   4.455
 8752WAT      O26497   9.238   0.071   2.609
 8752WAT     H126498   9.186   0.156   2.613
 8752WAT     H226499   9.336   0.091   2.621
 8753WAT      O26500   8.970   8.691   8.508
 8753WAT     H126501   9.023   8.623   8.559
 8753WAT     H226502   8.889   8.716   8.559
 8754WAT      O26503   9.221   8.558   4.982
 8754WAT     H126504   9.181   8.527   5.068
 8754WAT     H226505   9.149   8.592   4.922
 8755WAT      O26506   4.157   3.854   7.131
 8755WAT     H126507   4.169   3.817   7.223
 8755WAT     H226508   4.227   3.923   7.113
 8756WAT      O26509   4.195   8.369   0.808
 8756WAT     H126510   4.105   8.380   0.849
 8756WAT     H226511   4.251   8.450   0.826
 8757WAT      O26512   9.126   9.783   5.402
 8757WAT     H126513   9.119   9.774   5.302
 8757WAT     H226514   9.077   9.707   5.445
 8758WAT      O26515   5.226   7.340   6.967
 8758WAT     H126516   5.182   7.251   6.977
 8758WAT     H226517   5.320   7.336   7.002
 8759WAT      O26518   4.303   2.571   8.493
 8759WAT     H126519   4.371   2.569   8.420
 8759WAT     H226520   4.279   2.478   8.518
 8760WAT      O26521   6.266   0.130   0.612
 8760WAT     H126522   6.334   0.119   0.684
 8760WAT     H226523   6.308   0.172   0.531
 8761WAT      O26524   5.469   9.575   1.432
 8761WAT     H126525   5.547   9.519   1.403
 8761WAT     H226526   5.385   9.520   1.424
 8762WAT      O26527   6.729   5.739   4.294
 8762WAT     H126528   6.730   5.666   4.226
 8762WAT     H226529   6.710   5.700   4.385
 8763WAT      O26530   6.626   7.338   2.603
 8763WAT     H126531   6.711   7.331   2.655
 8763WAT     H226532   6.624   7.268   2.532
 8764WAT      O26533   8.371   5.281   6.461
 8764WAT     H126534   8.431   5.357   6.433
 8764WAT     H226535   8.341   5.297   6.555
 8765WAT      O26536   8.526   0.938   5.264
 8765WAT     H126537   8.616   0.980   5.276
 8765WAT     H226538   8.456   1.008   5.259
 8766WAT      O26539   1.229   4.829   6.594
 8766WAT     H126540   1.241   4.927   6.608
 8766WAT     H226541   1.188   4.788   6.676
 8767WAT      O26542   6.117   6.025   2.780
 8767WAT     H126543   6.059   6.094   2.738
 8767WAT     H226544   6.203   6.018   2.729
 8768WAT      O26545   3.687   9.524   7.991
 8768WAT     H126546   3.713   9.609   8.036
 8768WAT     H226547   3.665   9.542   7.895
 8769WAT      O26548   4.252   6.819   0.447
 8769WAT     H126549   4.299   6.810   0.534
 8769WAT     H226550   4.314   6.860   0.379
 8770WAT      O26551   8.212   0.187   4.446
 8770WAT     H126552   8.206   0.088   4.444
 8770WAT     H226553   8.289   0.217   4.390
 8771WAT      O26554   9.718   6.890   3.406
 8771WAT     H126555   9.714   6.833   3.324
 8771WAT     H226556   9.794   6.862   3.463
 8772WAT      O26557   0.228   1.010   5.827
 8772WAT     H126558   0.325   0.985   5.827
 8772WAT     H226559   0.177   0.945   5.884
 8773WAT      O26560   3.681   5.052   2.354
 8773WAT     H126561   3.658   5.074   2.260
 8773WAT     H226562   3.645   5.123   2.415
 8774WAT      O26563   5.486   7.191   5.178
 8774WAT     H126564   5.469   7.116   5.241
 8774WAT     H226565   5.484   7.278   5.228
 8775WAT      O26566   4.346   6.852   2.412
 8775WAT     H126567   4.400   6.835   2.329
 8775WAT     H226568   4.323   6.949   2.417
 8776WAT      O26569   1.749   5.753   7.281
 8776WAT     H126570   1.789   5.671   7.238
 8776WAT     H226571   1.785   5.763   7.373
 8777WAT      O26572   5.742   5.013   9.889
 8777WAT     H126573   5.718   5.082   9.821
 8777WAT     H226574   5.809   4.950   9.851
 8778WAT      O26575   0.064   5.033   8.545
 8778WAT     H126576   0.160   5.058   8.528
 8778WAT     H226577   0.016   5.029   8.458
 8779WAT      O26578   0.232   2.767   0.706
 8779WAT     H126579   0.230   2.692   0.640
 8779WAT     H226580   0.276   2.847   0.665
 8780WAT      O26581   4.789   6.497   6.827
 8780WAT     H126582   4.738   6.428   6.878
 8780WAT     H226583   4.726   6.564   6.789
 8781WAT      O26584   2.191   2.322   2.698
 8781WAT     H126585   2.223   2.369   2.616
 8781WAT     H226586   2.245   2.351   2.776
 8782WAT      O26587   9.149   6.013   4.640
 8782WAT     H126588   9.197   6.042   4.723
 8782WAT     H226589   9.201   6.042   4.560
 8783WAT      O26590   8.017   9.642   9.897
 8783WAT     H126591   7.963   9.717   9.858
 8783WAT     H226592   8.035   9.574   9.826
 8784WAT      O26593   4.946   3.121   5.467
 8784WAT     H126594   4.867   3.182   5.471
 8784WAT     H226595   4.935   3.057   5.391
 8785WAT      O26596   7.391   3.053   0.024
 8785WAT     H126597   7.319   3.019   0.084
 8785WAT     H226598   7.476   3.062   0.075
 8786WAT      O26599   2.252   5.364   4.708
 8786WAT     H126600   2.166   5.414   4.700
 8786WAT     H226601   2.294   5.355   4.617
 8787WAT      O26602   0.046   9.801   6.700
 8787WAT     H126603   0.112   9.814   6.626
 8787WAT     H226604  -0.043   9.777   6.661
 8788WAT      O26605   2.563   5.151   0.339
 8788WAT     H126606   2.639   5.215   0.326
 8788WAT     H226607   2.599   5.061   0.360
 8789WAT      O26608   2.101   0.872   4.300
 8789WAT     H126609   2.090   0.847   4.204
 8789WAT     H226610   2.015   0.907   4.336
 8790WAT      O26611   4.989   9.845   5.100
 8790WAT     H126612   5.045   9.811   5.025
 8790WAT     H226613   4.892   9.829   5.079
 8791WAT      O26614   5.249   4.388   3.808
 8791WAT     H126615   5.289   4.476   3.784
 8791WAT     H226616   5.211   4.345   3.727
 8792WAT      O26617   8.190   6.068   0.619
 8792WAT     H126618   8.232   6.010   0.688
 8792WAT     H226619   8.260   6.126   0.577
 8793WAT      O26620   2.755   0.235   8.231
 8793WAT     H126621   2.825   0.216   8.163
 8793WAT     H226622   2.798   0.268   8.315
 8794WAT      O26623   8.908   5.877   8.857
 8794WAT     H126624   9.007   5.863   8.863
 8794WAT     H226625   8.878   5.863   8.763
 8795WAT      O26626   0.863   2.825   7.915
 8795WAT     H126627   0.860   2.924   7.932
 8795WAT     H226628   0.795   2.779   7.972
 8796WAT      O26629   7.037   0.805   9.086
 8796WAT     H126630   6.995   0.872   9.025
 8796WAT     H226631   7.128   0.781   9.051
 8797WAT      O26632   6.425   8.781   2.170
 8797WAT     H126633   6.393   8.775   2.264
 8797WAT     H226634   6.519   8.746   2.164
 8798WAT      O26635   6.239   0.616   6.919
 8798WAT     H126636   6.284   0.535   6.958
 8798WAT     H226637   6.301   0.660   6.853
 8799WAT      O26638   3.621   9.341   0.418
 8799WAT     H126639   3.701   9.400   0.429
 8799WAT     H226640   3.565   9.374   0.342
 8800WAT      O26641   2.240   8.171   3.449
 8800WAT     H126642   2.153   8.183   3.400
 8800WAT     H226643   2.239   8.083   3.496
 8801WAT      O26644   7.562   7.413   2.324
 8801WAT     H126645   7.529   7.452   2.410
 8801WAT     H226646   7.564   7.485   2.254
 8802WAT      O26647   3.656   3.554   7.766
 8802WAT     H126648   3.708   3.635   7.794
 8802WAT     H226649   3.604   3.519   7.844
 8803WAT      O26650   5.293   8.141   1.443
 8803WAT     H126651   5.228   8.115   1.515
 8803WAT     H226652   5.326   8.058   1.396
 8804WAT      O26653   0.137   7.403   9.850
 8804WAT     H126654   0.153   7.376   9.944
 8804WAT     H226655   0.042   7.382   9.825
 8805WAT      O26656   3.173   7.902   7.021
 8805WAT     H126657   3.184   7.998   6.994
 8805WAT     H226658   3.126   7.896   7.108
 8806WAT      O26659   9.635   5.236   4.140
 8806WAT     H126660   9.612   5.325   4.178
 8806WAT     H226661   9.630   5.240   4.040
 8807WAT      O26662   8.433   0.739   5.702
 8807WAT     H126663   8.399   0.731   5.608
 8807WAT     H226664   8.386   0.671   5.759
 8808WAT      O26665   3.896   6.679   6.375
 8808WAT     H126666   3.887   6.693   6.276
 8808WAT     H226667   3.815   6.716   6.421
 8809WAT      O26668   6.437   8.357   4.219
 8809WAT     H126669   6.434   8.358   4.119
 8809WAT     H226670   6.526   8.325   4.250
 8810WAT      O26671   2.243   8.515   0.004
 8810WAT     H126672   2.309   8.452  -0.037
 8810WAT     H226673   2.155   8.468   0.017
 8811WAT      O26674   7.700   2.568   3.292
 8811WAT     H126675   7.743   2.487   3.333
 8811WAT     H226676   7.657   2.622   3.364
 8812WAT      O26677   4.680   4.330   8.073
 8812WAT     H126678   4.691   4.233   8.055
 8812WAT     H226679   4.586   4.348   8.101
 8813WAT      O26680   4.552   7.337   6.712
 8813WAT     H126681   4.542   7.238   6.715
 8813WAT     H226682   4.579   7.371   6.803
 8814WAT      O26683   3.800   4.524   1.200
 8814WAT     H126684   3.710   4.536   1.242
 8814WAT     H226685   3.790   4.523   1.100
 8815WAT      O26686   5.584   6.913   5.198
 8815WAT     H126687   5.510   6.859   5.239
 8815WAT     H226688   5.582   6.903   5.099
 8816WAT      O26689   8.472   6.555   7.379
 8816WAT     H126690   8.444   6.485   7.445
 8816WAT     H226691   8.442   6.529   7.288
 8817WAT      O26692   2.291   5.491   8.541
 8817WAT     H126693   2.388   5.503   8.559
 8817WAT     H226694   2.254   5.574   8.500
 8818WAT      O26695   2.061   1.930   0.356
 8818WAT     H126696   2.061   1.941   0.455
 8818WAT     H226697   2.078   2.019   0.313
 8819WAT      O26698   3.826   9.505   4.673
 8819WAT     H126699   3.922   9.477   4.677
 8819WAT     H226700   3.776   9.442   4.613
 8820WAT      O26701   3.934   3.691   3.591
 8820WAT     H126702   4.027   3.672   3.621
 8820WAT     H226703   3.869   3.648   3.654
 8821WAT      O26704   0.890   7.288   4.628
 8821WAT     H126705   0.853   7.353   4.694
 8821WAT     H226706   0.881   7.325   4.535
 8822WAT      O26707   9.500   8.797   9.654
 8822WAT     H126708   9.500   8.766   9.749
 8822WAT     H226709   9.420   8.855   9.638
 8823WAT      O26710   8.882   2.615   9.263
 8823WAT     H126711   8.865   2.527   9.218
 8823WAT     H226712   8.940   2.671   9.205
 8824WAT      O26713   4.288   9.190   5.620
 8824WAT     H126714   4.386   9.192   5.601
 8824WAT     H226715   4.265   9.262   5.686
 8825WAT      O26716   1.961   9.809   2.703
 8825WAT     H126717   1.922   9.717   2.707
 8825WAT     H226718   1.892   9.874   2.671
 8826WAT      O26719   2.379   3.530   5.604
 8826WAT     H126720   2.284   3.560   5.616
 8826WAT     H226721   2.427   3.596   5.546
 8827WAT      O26722   5.400   0.231   3.187
 8827WAT     H126723   5.357   0.198   3.103
 8827WAT     H226724   5.450   0.315   3.168
 8828WAT      O26725   8.200   2.308   0.318
 8828WAT     H126726   8.125   2.285   0.257
 8828WAT     H226727   8.175   2.286   0.412
 8829WAT      O26728   2.658   6.795   6.121
 8829WAT     H126729   2.687   6.835   6.208
 8829WAT     H226730   2.738   6.772   6.066
 8830WAT      O26731   3.868   0.770   1.696
 8830WAT     H126732   3.829   0.744   1.608
 8830WAT     H226733   3.795   0.781   1.763
 8831WAT      O26734   2.392   1.296   1.073
 8831WAT     H126735   2.416   1.365   1.142
 8831WAT     H226736   2.294   1.276   1.079
 8832WAT      O26737   9.719   2.183   8.557
 8832WAT     H126738   9.775   2.265   8.570
 8832WAT     H226739   9.747   2.137   8.473
 8833WAT      O26740   0.026   9.483   0.747
 8833WAT     H126741   0.056   9.442   0.661
 8833WAT     H226742  -0.036   9.420   0.794
 8834WAT      O26743   7.494   8.425   5.098
 8834WAT     H126744   7.581   8.430   5.148
 8834WAT     H226745   7.492   8.343   5.041
 8835WAT      O26746   0.596   1.996   8.996
 8835WAT     H126747   0.540   1.980   9.077
 8835WAT     H226748   0.559   2.073   8.944
 8836WAT      O26749   1.098   8.638   1.904
 8836WAT     H126750   0.999   8.644   1.894
 8836WAT     H226751   1.135   8.728   1.929
 8837WAT      O26752   7.154   6.628   1.048
 8837WAT     H126753   7.112   6.542   1.076
 8837WAT     H226754   7.084   6.693   1.020
 8838WAT      O26755   0.134   9.603   8.773
 8838WAT     H126756   0.142   9.686   8.827
 8838WAT     H226757   0.037   9.577   8.765
 8839WAT      O26758   1.578   3.604   9.258
 8839WAT     H126759   1.507   3.658   9.212
 8839WAT     H226760   1.542   3.567   9.343
 8840WAT      O26761   6.831   7.054   3.284
 8840WAT     H126762   6.872   6.990   3.349
 8840WAT     H226763   6.808   7.006   3.200
 8841WAT      O26764   7.431   1.654   9.531
 8841WAT     H126765   7.348   1.635   9.479
 8841WAT     H226766   7.416   1.731   9.593
 8842WAT      O26767   9.485   7.140   6.440
 8842WAT     H126768   9.560   7.084   6.474
 8842WAT     H226769   9.457   7.106   6.350
 8843WAT      O26770   7.266   7.355   7.937
 8843WAT     H126771   7.229   7.445   7.915
 8843WAT     H226772   7.280   7.303   7.853
 8844WAT      O26773   7.317   8.657   4.440
 8844WAT     H126774   7.394   8.604   4.404
 8844WAT     H226775   7.281   8.612   4.522
 8845WAT      O26776   0.341   0.266   3.837
 8845WAT     H126777   0.372   0.324   3.762
 8845WAT     H226778   0.260   0.306   3.879
 8846WAT      O26779   2.432   8.964   0.251
 8846WAT     H126780   2.456   8.884   0.196
 8846WAT     H226781   2.378   9.027   0.196
 8847WAT      O26782   2.251   3.405   6.255
 8847WAT     H126783   2.326   3.456   6.214
 8847WAT     H226784   2.185   3.468   6.295
 8848WAT      O26785   4.281   0.756   2.076
 8848WAT     H126786   4.301   0.716   2.166
 8848WAT     H226787   4.278   0.856   2.084
 8849WAT      O26788   0.670   1.889   0.617
 8849WAT     H126789   0.597   1.867   0.552
 8849WAT     H226790   0.698   1.806   0.664
 8850WAT      O26791   2.638   8.135   7.493
 8850WAT     H126792   2.729   8.139   7.535
 8850WAT     H226793   2.646   8.100   7.400
 8851WAT      O26794   7.215   2.359   6.893
 8851WAT     H126795   7.138   2.349   6.829
 8851WAT     H226796   7.235   2.455   6.908
 8852WAT      O26797   7.912   1.933   2.841
 8852WAT     H126798   7.853   1.854   2.855
 8852WAT     H226799   7.866   1.999   2.782
 8853WAT      O26800   3.240   7.173   8.170
 8853WAT     H126801   3.280   7.262   8.193
 8853WAT     H226802   3.310   7.102   8.177
 8854WAT      O26803   4.996   9.182   9.155
 8854WAT     H126804   4.906   9.212   9.187
 8854WAT     H226805   5.041   9.258   9.108
 8855WAT      O26806   0.210   5.220   8.269
 8855WAT     H126807   0.110   5.216   8.266
 8855WAT     H226808   0.247   5.127   8.270
 8856WAT      O26809   3.552   4.597   1.344
 8856WAT     H126810   3.555   4.597   1.444
 8856WAT     H226811   3.574   4.688   1.310
 8857WAT      O26812   3.139   1.200   6.976
 8857WAT     H126813   3.179   1.229   6.889
 8857WAT     H226814   3.206   1.214   7.049
 8858WAT      O26815   5.102   1.564   5.989
 8858WAT     H126816   5.093   1.575   6.088
 8858WAT     H226817   5.089   1.468   5.964
 8859WAT      O26818   5.292   1.699   2.271
 8859WAT     H126819   5.253   1.775   2.219
 8859WAT     H226820   5.325   1.732   2.359
 8860WAT      O26821   0.286   3.381   4.542
 8860WAT     H126822   0.280   3.475   4.509
 8860WAT     H226823   0.325   3.323   4.471
 8861WAT      O26824   1.196   3.793   5.640
 8861WAT     H126825   1.237   3.705   5.666
 8861WAT     H226826   1.107   3.803   5.685
 8862WAT      O26827   2.766   8.826   4.374
 8862WAT     H126828   2.783   8.761   4.300
 8862WAT     H226829   2.720   8.780   4.449
 8863WAT      O26830   0.922   1.907   2.160
 8863WAT     H126831   0.842   1.967   2.153
 8863WAT     H226832   0.892   1.812   2.162
 8864WAT      O26833   0.532   8.122   0.879
 8864WAT     H126834   0.519   8.137   0.977
 8864WAT     H226835   0.587   8.040   0.864
 8865WAT      O26836   7.006   9.275   2.326
 8865WAT     H126837   6.930   9.236   2.273
 8865WAT     H226838   7.063   9.201   2.362
 8866WAT      O26839   7.264   3.388   1.474
 8866WAT     H126840   7.216   3.415   1.391
 8866WAT     H226841   7.221   3.432   1.553
 8867WAT      O26842   0.273   5.437   9.109
 8867WAT     H126843   0.266   5.535   9.090
 8867WAT     H226844   0.360   5.402   9.074
 8868WAT      O26845   1.829   4.938   6.911
 8868WAT     H126846   1.779   5.017   6.946
 8868WAT     H226847   1.773   4.855   6.921
 8869WAT      O26848   6.852   6.451   8.183
 8869WAT     H126849   6.853   6.515   8.259
 8869WAT     H226850   6.943   6.411   8.172
 8870WAT      O26851   7.363   3.198   6.701
 8870WAT     H126852   7.335   3.102   6.690
 8870WAT     H226853   7.460   3.206   6.680
 8871WAT      O26854   8.611   0.394   6.608
 8871WAT     H126855   8.595   0.365   6.514
 8871WAT     H226856   8.707   0.419   6.620
 8872WAT      O26857   4.959   0.201   3.791
 8872WAT     H126858   4.979   0.248   3.877
 8872WAT     H226859   4.864   0.216   3.766
 8873WAT      O26860   7.972   1.294   0.972
 8873WAT     H126861   8.027   1.210   0.974
 8873WAT     H226862   7.884   1.276   1.015
 8874WAT      O26863   0.279   9.372   8.770
 8874WAT     H126864   0.363   9.385   8.718
 8874WAT     H226865   0.222   9.454   8.761
 8875WAT      O26866   2.991   6.475   1.722
 8875WAT     H126867   3.060   6.406   1.742
 8875WAT     H226868   3.023   6.536   1.649
 8876WAT      O26869   2.729   5.588   0.792
 8876WAT     H126870   2.745   5.678   0.752
 8876WAT     H226871   2.792   5.522   0.751
 8877WAT      O26872   7.299   9.458   4.975
 8877WAT     H126873   7.399   9.459   4.975
 8877WAT     H226874   7.267   9.363   4.968
 8878WAT      O26875   9.262   6.737   6.723
 8878WAT     H126876   9.197   6.701   6.790
 8878WAT     H226877   9.323   6.802   6.769
 8879WAT      O26878   8.878   9.547   3.693
 8879WAT     H126879   8.879   9.452   3.724
 8879WAT     H226880   8.941   9.601   3.749
 8880WAT      O26881   5.399   7.422   3.774
 8880WAT     H126882   5.499   7.420   3.777
 8880WAT     H226883   5.363   7.388   3.861
 8881WAT      O26884   1.206   8.239   8.905
 8881WAT     H126885   1.161   8.150   8.910
 8881WAT     H226886   1.234   8.257   8.810
 8882WAT      O26887   7.343   3.230   3.114
 8882WAT     H126888   7.404   3.284   3.171
 8882WAT     H226889   7.366   3.133   3.123
 8883WAT      O26890   5.024   7.830   9.397
 8883WAT     H126891   5.012   7.771   9.476
 8883WAT     H226892   5.067   7.916   9.425
 8884WAT      O26893   9.488   5.420   2.280
 8884WAT     H126894   9.442   5.340   2.319
 8884WAT     H226895   9.489   5.413   2.180
 8885WAT      O26896   8.135   3.040   9.241
 8885WAT     H126897   8.061   2.989   9.287
 8885WAT     H226898   8.116   3.138   9.246
 8886WAT      O26899   4.341   4.424   2.133
 8886WAT     H126900   4.384   4.514   2.129
 8886WAT     H226901   4.344   4.382   2.042
 8887WAT      O26902   9.385   4.400   9.337
 8887WAT     H126903   9.324   4.340   9.286
 8887WAT     H226904   9.334   4.445   9.410
 8888WAT      O26905   7.263   8.750   7.906
 8888WAT     H126906   7.209   8.671   7.933
 8888WAT     H226907   7.257   8.762   7.807
 8889WAT      O26908   6.269   2.393   1.293
 8889WAT     H126909   6.202   2.364   1.224
 8889WAT     H226910   6.344   2.328   1.296
 8890WAT      O26911   4.875   5.003   6.156
 8890WAT     H126912   4.965   4.974   6.189
 8890WAT     H226913   4.816   5.025   6.234
 8891WAT      O26914   7.726   3.752   9.008
 8891WAT     H126915   7.666   3.828   9.031
 8891WAT     H226916   7.821   3.778   9.023
 8892WAT      O26917   2.284   9.555   9.666
 8892WAT     H126918   2.189   9.560   9.635
 8892WAT     H226919   2.333   9.487   9.610
 8893WAT      O26920   8.012   2.021   6.260
 8893WAT     H126921   8.035   2.069   6.176
 8893WAT     H226922   7.966   2.084   6.323
 8894WAT      O26923   2.792   1.469   6.076
 8894WAT     H126924   2.749   1.554   6.105
 8894WAT     H226925   2.721   1.406   6.044
 8895WAT      O26926   6.601   4.135   4.627
 8895WAT     H126927   6.604   4.231   4.600
 8895WAT     H226928   6.539   4.123   4.704
 8896WAT      O26929   2.604   8.986   3.790
 8896WAT     H126930   2.594   8.902   3.737
 8896WAT     H226931   2.514   9.022   3.814
 8897WAT      O26932   8.122   8.098   8.384
 8897WAT     H126933   8.104   8.156   8.305
 8897WAT     H226934   8.196   8.137   8.438
 8898WAT      O26935   5.562   2.043   6.936
 8898WAT     H126936   5.479   2.020   6.988
 8898WAT     H226937   5.539   2.048   6.839
 8899WAT      O26938   8.113   0.100   6.631
 8899WAT     H126939   8.067   0.186   6.655
 8899WAT     H226940   8.207   0.119   6.604
 8900WAT      O26941   9.432   6.050   5.441
 8900WAT     H126942   9.499   6.123   5.453
 8900WAT     H226943   9.416   6.004   5.528
 8901WAT      O26944   0.978   1.875   5.370
 8901WAT     H126945   0.971   1.966   5.331
 8901WAT     H226946   0.887   1.836   5.383
 8902WAT      O26947   0.875   7.160   4.004
 8902WAT     H126948   0.939   7.095   3.964
 8902WAT     H226949   0.916   7.251   4.008
 8903WAT      O26950   1.799   3.141   3.588
 8903WAT     H126951   1.723   3.103   3.641
 8903WAT     H226952   1.828   3.074   3.519
 8904WAT      O26953   1.135   5.986   2.615
 8904WAT     H126954   1.142   5.945   2.706
 8904WAT     H226955   1.039   5.990   2.587
 8905WAT      O26956   1.319   2.040   6.204
 8905WAT     H126957   1.369   2.002   6.282
 8905WAT     H226958   1.274   1.966   6.154
 8906WAT      O26959   9.046   3.604   1.572
 8906WAT     H126960   8.996   3.591   1.486
 8906WAT     H226961   9.139   3.635   1.551
 8907WAT      O26962   3.923   3.371   8.042
 8907WAT     H126963   3.982   3.406   8.115
 8907WAT     H226964   3.926   3.433   7.964
 8908WAT      O26965   0.032   4.185   3.719
 8908WAT     H126966   0.075   4.168   3.807
 8908WAT     H226967  -0.067   4.190   3.731
 8909WAT      O26968   3.341   2.777   9.555
 8909WAT     H126969   3.373   2.796   9.648
 8909WAT     H226970   3.415   2.793   9.490
 8910WAT      O26971   9.359   3.180   6.136
 8910WAT     H126972   9.423   3.172   6.060
 8910WAT     H226973   9.286   3.244   6.112
 8911WAT      O26974   7.311   7.066   8.762
 8911WAT     H126975   7.306   7.099   8.668
 8911WAT     H226976   7.406   7.054   8.788
 8912WAT      O26977   2.815   0.882   8.441
 8912WAT     H126978   2.753   0.958   8.426
 8912WAT     H226979   2.870   0.866   8.359
 8913WAT      O26980   2.607   4.194   2.315
 8913WAT     H126981   2.554   4.159   2.393
 8913WAT     H226982   2.687   4.244   2.350
 8914WAT      O26983   4.372   8.429   4.711
 8914WAT     H126984   4.419   8.363   4.769
 8914WAT     H226985   4.302   8.477   4.763
 8915WAT      O26986   1.120   6.360   1.552
 8915WAT     H126987   1.155   6.453   1.548
 8915WAT     H226988   1.077   6.337   1.465
 8916WAT      O26989   7.521   8.343   8.759
 8916WAT     H126990   7.477   8.432   8.772
 8916WAT     H226991   7.520   8.293   8.846
 8917WAT      O26992   9.345   4.280   0.176
 8917WAT     H126993   9.382   4.293   0.084
 8917WAT     H226994   9.306   4.188   0.184
 8918WAT      O26995   2.853   5.742   6.844
 8918WAT     H126996   2.763   5.734   6.888
 8918WAT     H226997   2.893   5.831   6.865
 8919WAT      O26998   9.812   1.038   5.173
 8919WAT     H126999   9.848   1.123   5.213
 8919WAT     H227000   9.833   0.962   5.234
 8920WAT      O27001   0.001   7.505   8.205
 8920WAT     H127002   0.038   7.418   8.238
 8920WAT     H227003  -0.000   7.570   8.280
 8921WAT      O27004   9.708   1.528   6.965
 8921WAT     H127005   9.651   1.456   7.006
 8921WAT     H227006   9.755   1.491   6.885
 8922WAT      O27007   7.397   3.570   2.695
 8922WAT     H127008   7.385   3.521   2.609
 8922WAT     H227009   7.380   3.508   2.771
 8923WAT      O27010   6.893   7.864   7.854
 8923WAT     H127011   6.939   7.846   7.941
 8923WAT     H227012   6.960   7.860   7.780
 8924WAT      O27013   5.268   1.438   0.805
 8924WAT     H127014   5.329   1.371   0.846
 8924WAT     H227015   5.316   1.525   0.793
 8925WAT      O27016   9.562   9.677   0.646
 8925WAT     H127017   9.633   9.717   0.589
 8925WAT     H227018   9.546   9.736   0.725
 8926WAT      O27019   5.320   8.056   6.139
 8926WAT     H127020   5.353   8.053   6.233
 8926WAT     H227021   5.222   8.078   6.138
 8927WAT      O27022   0.859   5.452   7.689
 8927WAT     H127023   0.927   5.385   7.715
 8927WAT     H227024   0.769   5.423   7.722
 8928WAT      O27025   2.052   5.490   3.037
 8928WAT     H127026   2.137   5.437   3.035
 8928WAT     H227027   1.983   5.443   2.982
 8929WAT      O27028   0.414   3.075   4.567
 8929WAT     H127029   0.376   2.998   4.516
 8929WAT     H227030   0.450   3.143   4.503
 8930WAT      O27031   3.494   3.331   2.226
 8930WAT     H127032   3.498   3.336   2.126
 8930WAT     H227033   3.586   3.345   2.263
 8931WAT      O27034   8.330   1.111   5.275
 8931WAT     H127035   8.315   1.209   5.260
 8931WAT     H227036   8.275   1.059   5.210
 8932WAT      O27037   6.034   7.655   0.334
 8932WAT     H127038   6.017   7.705   0.249
 8932WAT     H227039   6.014   7.714   0.412
 8933WAT      O27040   4.749   2.502   4.528
 8933WAT     H127041   4.653   2.477   4.515
 8933WAT     H227042   4.760   2.600   4.514
 8934WAT      O27043   8.929   5.678   7.009
 8934WAT     H127044   8.969   5.712   7.094
 8934WAT     H227045   8.908   5.580   7.019
 8935WAT      O27046   8.242   1.968   6.385
 8935WAT     H127047   8.237   2.017   6.472
 8935WAT     H227048   8.151   1.965   6.343
 8936WAT      O27049   1.134   1.759   1.845
 8936WAT     H127050   1.166   1.706   1.766
 8936WAT     H227051   1.159   1.711   1.929
 8937WAT      O27052   6.688   1.945   1.694
 8937WAT     H127053   6.771   1.901   1.728
 8937WAT     H227054   6.712   2.026   1.641
 8938WAT      O27055   0.297   4.628   8.232
 8938WAT     H127056   0.342   4.576   8.305
 8938WAT     H227057   0.322   4.589   8.143
 8939WAT      O27058   4.573   7.184   9.524
 8939WAT     H127059   4.639   7.210   9.594
 8939WAT     H227060   4.551   7.264   9.467
 8940WAT      O27061   0.917   4.838   2.483
 8940WAT     H127062   0.932   4.805   2.390
 8940WAT     H227063   0.926   4.937   2.485
 8941WAT      O27064   7.171   8.541   8.656
 8941WAT     H127065   7.083   8.582   8.635
 8941WAT     H227066   7.174   8.447   8.621
 8942WAT      O27067   2.711   3.800   4.210
 8942WAT     H127068   2.625   3.750   4.221
 8942WAT     H227069   2.696   3.878   4.149
 8943WAT      O27070   9.736   4.489   8.081
 8943WAT     H127071   9.687   4.522   8.000
 8943WAT     H227072   9.745   4.390   8.077
 8944WAT      O27073   7.029   8.919   8.412
 8944WAT     H127074   7.111   8.883   8.368
 8944WAT     H227075   7.039   8.911   8.511
 8945WAT      O27076   8.431   4.650   5.992
 8945WAT     H127077   8.373   4.631   6.071
 8945WAT     H227078   8.457   4.564   5.947
 8946WAT      O27079   4.698   7.576   0.937
 8946WAT     H127080   4.599   7.586   0.951
 8946WAT     H227081   4.718   7.586   0.839
 8947WAT      O27082   8.614   5.775   6.687
 8947WAT     H127083   8.602   5.690   6.636
 8947WAT     H227084   8.619   5.852   6.624
 8948WAT      O27085   6.815   2.853   4.892
 8948WAT     H127086   6.805   2.873   4.794
 8948WAT     H227087   6.910   2.863   4.918
 8949WAT      O27088   2.594   7.545   0.240
 8949WAT     H127089   2.692   7.535   0.257
 8949WAT     H227090   2.552   7.454   0.230
 8950WAT      O27091   5.169   0.310   7.070
 8950WAT     H127092   5.152   0.231   7.128
 8950WAT     H227093   5.134   0.292   6.978
 8951WAT      O27094   1.368   9.708   3.151
 8951WAT     H127095   1.269   9.716   3.139
 8951WAT     H227096   1.390   9.703   3.249
 8952WAT      O27097   1.394   9.310   0.115
 8952WAT     H127098   1.450   9.236   0.152
 8952WAT     H227099   1.327   9.272   0.051
 8953WAT      O27100   8.500   1.837   2.112
 8953WAT     H127101   8.564   1.914   2.108
 8953WAT     H227102   8.474   1.810   2.020
 8954WAT      O27103   5.803   7.021   1.399
 8954WAT     H127104   5.717   7.070   1.391
 8954WAT     H227105   5.785   6.923   1.411
 8955WAT      O27106   0.326   8.453   1.566
 8955WAT     H127107   0.334   8.438   1.665
 8955WAT     H227108   0.277   8.538   1.549
 8956WAT      O27109   9.059   9.469   5.479
 8956WAT     H127110   8.976   9.478   5.533
 8956WAT     H227111   9.131   9.426   5.535
 8957WAT      O27112   7.645   6.074   3.255
 8957WAT     H127113   7.655   6.156   3.311
 8957WAT     H227114   7.706   6.002   3.289
 8958WAT      O27115   2.418   8.801   4.091
 8958WAT     H127116   2.456   8.798   3.998
 8958WAT     H227117   2.451   8.884   4.137
 8959WAT      O27118   6.268   1.981   4.225
 8959WAT     H127119   6.215   1.903   4.191
 8959WAT     H227120   6.212   2.064   4.222
 8960WAT      O27121   1.825   7.668   1.985
 8960WAT     H127122   1.797   7.748   2.037
 8960WAT     H227123   1.837   7.590   2.047
 8961WAT      O27124   7.743   4.021   3.489
 8961WAT     H127125   7.752   3.974   3.577
 8961WAT     H227126   7.740   4.119   3.503
 8962WAT      O27127   5.803   5.305   8.994
 8962WAT     H127128   5.866   5.233   8.965
 8962WAT     H227129   5.713   5.289   8.954
 8963WAT      O27130   8.655   6.635   6.177
 8963WAT     H127131   8.646   6.546   6.221
 8963WAT     H227132   8.668   6.706   6.246
 8964WAT      O27133   8.902   4.167   8.082
 8964WAT     H127134   8.897   4.261   8.049
 8964WAT     H227135   8.810   4.136   8.107
 8965WAT      O27136   7.763   0.383   6.787
 8965WAT     H127137   7.789   0.422   6.876
 8965WAT     H227138   7.679   0.330   6.798
 8966WAT      O27139   6.931   3.492   1.009
 8966WAT     H127140   6.835   3.488   1.039
 8966WAT     H227141   6.973   3.402   1.020
 8967WAT      O27142   5.676   2.603   4.001
 8967WAT     H127143   5.609   2.675   3.981
 8967WAT     H227144   5.725   2.579   3.917
 8968WAT      O27145   4.381   3.291   2.706
 8968WAT     H127146   4.336   3.241   2.780
 8968WAT     H227147   4.330   3.279   2.621
 8969WAT      O27148   2.759   5.319   2.294
 8969WAT     H127149   2.693   5.260   2.340
 8969WAT     H227150   2.840   5.265   2.270
 8970WAT      O27151   6.689   2.425   5.098
 8970WAT     H127152   6.602   2.425   5.147
 8970WAT     H227153   6.763   2.445   5.162
 8971WAT      O27154   0.121   6.280   8.439
 8971WAT     H127155   0.083   6.198   8.397
 8971WAT     H227156   0.061   6.311   8.512
 8972WAT      O27157   8.994   5.982   4.082
 8972WAT     H127158   9.075   5.958   4.029
 8972WAT     H227159   8.982   6.081   4.083
 8973WAT      O27160   7.786   0.419   8.005
 8973WAT     H127161   7.823   0.486   7.940
 8973WAT     H227162   7.692   0.396   7.979
 8974WAT      O27163   4.474   1.899   3.254
 8974WAT     H127164   4.447   1.830   3.322
 8974WAT     H227165   4.452   1.990   3.290
 8975WAT      O27166   0.931   2.581   6.396
 8975WAT     H127167   0.977   2.631   6.323
 8975WAT     H227168   0.895   2.646   6.464
 8976WAT      O27169   0.885   3.083   8.334
 8976WAT     H127170   0.911   2.988   8.356
 8976WAT     H227171   0.795   3.083   8.291
 8977WAT      O27172   6.326   7.842   2.362
 8977WAT     H127173   6.382   7.838   2.280
 8977WAT     H227174   6.273   7.758   2.370
 8978WAT      O27175   5.569   8.311   9.564
 8978WAT     H127176   5.517   8.356   9.637
 8978WAT     H227177   5.567   8.368   9.482
 8979WAT      O27178   8.339   5.767   4.794
 8979WAT     H127179   8.429   5.725   4.807
 8979WAT     H227180   8.268   5.702   4.820
 8980WAT      O27181   0.322   6.368   3.244
 8980WAT     H127182   0.252   6.301   3.220
 8980WAT     H227183   0.308   6.397   3.339
 8981WAT      O27184   4.215   9.839   6.919
 8981WAT     H127185   4.148   9.905   6.952
 8981WAT     H227186   4.168   9.755   6.893
 8982WAT      O27187   1.420   6.413   5.437
 8982WAT     H127188   1.324   6.430   5.456
 8982WAT     H227189   1.429   6.371   5.347
 8983WAT      O27190   1.684   9.602   9.855
 8983WAT     H127191   1.649   9.696   9.854
 8983WAT     H227192   1.612   9.539   9.825
 8984WAT      O27193   7.269   1.246   6.767
 8984WAT     H127194   7.263   1.254   6.667
 8984WAT     H227195   7.242   1.154   6.795
 8985WAT      O27196   4.471   3.775   9.667
 8985WAT     H127197   4.567   3.755   9.649
 8985WAT     H227198   4.443   3.730   9.752
 8986WAT      O27199   3.567   7.781   1.451
 8986WAT     H127200   3.621   7.859   1.421
 8986WAT     H227201   3.544   7.724   1.372
 8987WAT      O27202   4.885   2.923   5.289
 8987WAT     H127203   4.842   2.959   5.206
 8987WAT     H227204   4.821   2.863   5.336
 8988WAT      O27205   2.551   1.886   2.696
 8988WAT     H127206   2.597   1.961   2.745
 8988WAT     H227207   2.539   1.912   2.600
 8989WAT      O27208   2.989   0.182   1.769
 8989WAT     H127209   2.935   0.193   1.686
 8989WAT     H227210   3.064   0.119   1.752
 8990WAT      O27211   1.684   3.168   6.350
 8990WAT     H127212   1.585   3.155   6.351
 8990WAT     H227213   1.725   3.116   6.425
 8991WAT      O27214   0.520   5.807   6.130
 8991WAT     H127215   0.572   5.833   6.048
 8991WAT     H227216   0.432   5.854   6.129
 8992WAT      O27217   4.862   9.685   4.028
 8992WAT     H127218   4.899   9.693   3.935
 8992WAT     H227219   4.767   9.654   4.023
 8993WAT      O27220   1.978   5.247   0.666
 8993WAT     H127221   1.967   5.300   0.750
 8993WAT     H227222   1.909   5.175   0.662
 8994WAT      O27223   6.892   3.899   8.228
 8994WAT     H127224   6.921   3.805   8.249
 8994WAT     H227225   6.880   3.949   8.314
 8995WAT      O27226   6.689   0.441   6.180
 8995WAT     H127227   6.624   0.369   6.205
 8995WAT     H227228   6.644   0.530   6.186
 8996WAT      O27229   9.310   0.575   5.233
 8996WAT     H127230   9.212   0.555   5.232
 8996WAT     H227231   9.359   0.498   5.274
 8997WAT      O27232   0.640   4.516   7.698
 8997WAT     H127233   0.591   4.480   7.619
 8997WAT     H227234   0.630   4.454   7.775
 8998WAT      O27235   6.150   8.370   2.444
 8998WAT     H127236   6.154   8.349   2.346
 8998WAT     H227237   6.236   8.412   2.473
 8999WAT      O27238   1.181   2.866   0.560
 8999WAT     H127239   1.140   2.776   0.548
 8999WAT     H227240   1.110   2.932   0.586
 9000WAT      O27241   0.892   2.922   2.926
 9000WAT     H127242   0.972   2.979   2.946
 9000WAT     H227243   0.895   2.840   2.983
 9001WAT      O27244   6.823   6.791   0.508
 9001WAT     H127245   6.825   6.701   0.552
 9001WAT     H227246   6.733   6.832   0.520
 9002WAT      O27247   4.814   8.697   8.031
 9002WAT     H127248   4.876   8.706   7.953
 9002WAT     H227249   4.745   8.768   8.028
 9003WAT      O27250   4.561   2.434   4.990
 9003WAT     H127251   4.519   2.470   5.073
 9003WAT     H227252   4.510   2.355   4.958
 9004WAT      O27253   6.007   4.769   0.263
 9004WAT     H127254   5.960   4.854   0.286
 9004WAT     H227255   5.952   4.691   0.292
 9005WAT      O27256   0.225   9.137   4.951
 9005WAT     H127257   0.286   9.170   5.023
 9005WAT     H227258   0.170   9.213   4.916
 9006WAT      O27259   7.877   3.465   3.826
 9006WAT     H127260   7.782   3.466   3.795
 9006WAT     H227261   7.918   3.554   3.809
 9007WAT      O27262   3.507   7.357   6.739
 9007WAT     H127263   3.535   7.268   6.703
 9007WAT     H227264   3.572   7.387   6.808
 9008WAT      O27265   9.331   2.120   6.091
 9008WAT     H127266   9.374   2.031   6.103
 9008WAT     H227267   9.276   2.120   6.007
 9009WAT      O27268   4.535   2.330   8.075
 9009WAT     H127269   4.528   2.420   8.030
 9009WAT     H227270   4.613   2.280   8.038
 9010WAT      O27271   4.139   2.845   9.244
 9010WAT     H127272   4.105   2.858   9.151
 9010WAT     H227273   4.063   2.817   9.303
 9011WAT      O27274   3.387   4.826   2.567
 9011WAT     H127275   3.431   4.883   2.636
 9011WAT     H227276   3.436   4.834   2.480
 9012WAT      O27277   0.290   7.879   0.857
 9012WAT     H127278   0.305   7.959   0.915
 9012WAT     H227279   0.308   7.795   0.910
 9013WAT      O27280   9.052   1.030   9.263
 9013WAT     H127281   8.982   1.007   9.196
 9013WAT     H227282   9.019   1.008   9.355
 9014WAT      O27283   7.018   1.176   0.002
 9014WAT     H127284   6.968   1.244   0.054
 9014WAT     H227285   7.070   1.221  -0.071
 9015WAT      O27286   2.150   5.129   0.131
 9015WAT     H127287   2.178   5.223   0.109
 9015WAT     H227288   2.204   5.096   0.209
 9016WAT      O27289   8.048   8.047   1.869
 9016WAT     H127290   8.047   7.949   1.888
 9016WAT     H227291   7.965   8.089   1.904
 9017WAT      O27292   3.784   8.861   3.943
 9017WAT     H127293   3.732   8.941   3.972
 9017WAT     H227294   3.865   8.851   4.002
 9018WAT      O27295   8.172   8.692   0.563
 9018WAT     H127296   8.134   8.770   0.513
 9018WAT     H227297   8.266   8.676   0.533
 9019WAT      O27298   3.944   4.063   2.763
 9019WAT     H127299   4.007   4.065   2.685
 9019WAT     H227300   3.853   4.093   2.733
 9020WAT      O27301   3.443   5.533   8.038
 9020WAT     H127302   3.357   5.549   8.086
 9020WAT     H227303   3.495   5.462   8.085
 9021WAT      O27304   6.675   8.581   8.266
 9021WAT     H127305   6.620   8.658   8.300
 9021WAT     H227306   6.767   8.587   8.305
 9022WAT      O27307   9.805   3.188   1.657
 9022WAT     H127308   9.809   3.143   1.568
 9022WAT     H227309   9.773   3.123   1.725
 9023WAT      O27310   4.152   3.372   2.092
 9023WAT     H127311   4.133   3.435   2.167
 9023WAT     H227312   4.249   3.347   2.093
 9024WAT      O27313   2.074   4.950   4.201
 9024WAT     H127314   2.067   4.850   4.199
 9024WAT     H227315   2.079   4.981   4.296
 9025WAT      O27316   7.921   3.360   6.956
 9025WAT     H127317   7.851   3.371   7.027
 9025WAT     H227318   7.928   3.264   6.931
 9026WAT      O27319   8.388   8.108   2.132
 9026WAT     H127320   8.316   8.169   2.099
 9026WAT     H227321   8.430   8.146   2.213
 9027WAT      O27322   5.904   1.055   6.545
 9027WAT     H127323   5.939   0.969   6.583
 9027WAT     H227324   5.976   1.124   6.548
 9028WAT      O27325   8.775   7.914   0.195
 9028WAT     H127326   8.703   7.983   0.186
 9028WAT     H227327   8.840   7.923   0.119
 9029WAT      O27328   1.452   1.745   9.481
 9029WAT     H127329   1.416   1.750   9.574
 9029WAT     H227330   1.376   1.747   9.416
 9030WAT      O27331   5.407   7.791   8.142
 9030WAT     H127332   5.489   7.847   8.129
 9030WAT     H227333   5.334   7.826   8.082
 9031WAT      O27334   8.386   1.350   6.122
 9031WAT     H127335   8.373   1.282   6.050
 9031WAT     H227336   8.312   1.341   6.190
 9032WAT      O27337   6.607   6.843   0.918
 9032WAT     H127338   6.589   6.879   1.009
 9032WAT     H227339   6.641   6.916   0.859
 9033WAT      O27340   6.502   4.012   5.015
 9033WAT     H127341   6.443   4.052   4.945
 9033WAT     H227342   6.453   3.939   5.063
 9034WAT      O27343   6.614   7.101   3.810
 9034WAT     H127344   6.592   7.071   3.717
 9034WAT     H227345   6.546   7.167   3.841
 9035WAT      O27346   4.805   8.331   7.527
 9035WAT     H127347   4.857   8.323   7.442
 9035WAT     H227348   4.824   8.252   7.586
 9036WAT      O27349   2.856   1.069   6.322
 9036WAT     H127350   2.760   1.067   6.352
 9036WAT     H227351   2.900   0.983   6.348
 9037WAT      O27352   7.141   9.828   6.565
 9037WAT     H127353   7.156   9.843   6.468
 9037WAT     H227354   7.178   9.739   6.591
 9038WAT      O27355   9.068   6.781   7.468
 9038WAT     H127356   9.090   6.685   7.484
 9038WAT     H227357   9.152   6.835   7.470
 9039WAT      O27358   0.682   8.407   9.616
 9039WAT     H127359   0.757   8.370   9.562
 9039WAT     H227360   0.605   8.343   9.615
 9040WAT      O27361   0.113   3.008   4.992
 9040WAT     H127362   0.101   3.033   4.896
 9040WAT     H227363   0.150   2.915   4.998
 9041WAT      O27364   6.043   6.438   6.334
 9041WAT     H127365   6.126   6.389   6.362
 9041WAT     H227366   6.060   6.488   6.250
 9042WAT      O27367   3.023   4.436   8.304
 9042WAT     H127368   3.070   4.388   8.378
 9042WAT     H227369   3.088   4.492   8.253
 9043WAT      O27370   1.020   6.279   3.596
 9043WAT     H127371   1.071   6.321   3.672
 9043WAT     H227372   1.058   6.188   3.577
 9044WAT      O27373   9.827   8.057   8.545
 9044WAT     H127374   9.841   8.049   8.446
 9044WAT     H227375   9.903   8.108   8.586
 9045WAT      O27376   9.227   4.388   6.907
 9045WAT     H127377   9.130   4.408   6.918
 9045WAT     H227378   9.277   4.473   6.889
 9046WAT      O27379   4.622   6.651   5.874
 9046WAT     H127380   4.633   6.724   5.806
 9046WAT     H227381   4.712   6.617   5.901
 9047WAT      O27382   9.433   6.569   8.377
 9047WAT     H127383   9.498   6.515   8.324
 9047WAT     H227384   9.349   6.582   8.323
 9048WAT      O27385   4.417   6.509   1.713
 9048WAT     H127386   4.366   6.548   1.789
 9048WAT     H227387   4.354   6.481   1.641
 9049WAT      O27388   3.358   0.810   8.026
 9049WAT     H127389   3.313   0.749   7.961
 9049WAT     H227390   3.324   0.903   8.012
 9050WAT      O27391   4.553   4.603   9.162
 9050WAT     H127392   4.590   4.613   9.255
 9050WAT     H227393   4.464   4.648   9.157
 9051WAT      O27394   8.132   1.327   3.610
 9051WAT     H127395   8.061   1.357   3.674
 9051WAT     H227396   8.090   1.307   3.521
 9052WAT      O27397   8.300   4.133   3.695
 9052WAT     H127398   8.314   4.105   3.600
 9052WAT     H227399   8.383   4.115   3.748
 9053WAT      O27400   9.368   7.765   3.749
 9053WAT     H127401   9.410   7.834   3.808
 9053WAT     H227402   9.356   7.680   3.800
 9054WAT      O27403   2.917   2.693   7.345
 9054WAT     H127404   2.927   2.627   7.420
 9054WAT     H227405   2.971   2.662   7.267
 9055WAT      O27406   2.354   6.604   2.043
 9055WAT     H127407   2.330   6.511   2.017
 9055WAT     H227408   2.355   6.611   2.143
 9056WAT      O27409   1.432   2.671   6.774
 9056WAT     H127410   1.532   2.677   6.764
 9056WAT     H227411   1.407   2.578   6.801
 9057WAT      O27412   0.042   7.035   9.609
 9057WAT     H127413  -0.058   7.031   9.619
 9057WAT     H227414   0.079   6.942   9.609
 9058WAT      O27415   0.663   2.213   4.538
 9058WAT     H127416   0.607   2.136   4.569
 9058WAT     H227417   0.651   2.226   4.440
 9059WAT      O27418   6.819   0.789   5.266
 9059WAT     H127419   6.918   0.780   5.277
 9059WAT     H227420   6.781   0.700   5.240
 9060WAT      O27421   5.083   6.614   4.308
 9060WAT     H127422   5.026   6.696   4.303
 9060WAT     H227423   5.161   6.624   4.247
 9061WAT      O27424   4.970   0.467   0.029
 9061WAT     H127425   5.066   0.473  -0.001
 9061WAT     H227426   4.922   0.400  -0.027
 9062WAT      O27427   8.165   6.354   1.993
 9062WAT     H127428   8.076   6.309   1.998
 9062WAT     H227429   8.180   6.390   1.901
 9063WAT      O27430   8.653   9.680   3.091
 9063WAT     H127431   8.612   9.703   3.002
 9063WAT     H227432   8.731   9.740   3.108
 9064WAT      O27433   8.962   1.371   1.493
 9064WAT     H127434   8.948   1.364   1.394
 9064WAT     H227435   8.902   1.306   1.540
 9065WAT      O27436   1.003   2.139   5.261
 9065WAT     H127437   1.033   2.218   5.316
 9065WAT     H227438   1.073   2.118   5.193
 9066WAT      O27439   1.286   9.239   3.089
 9066WAT     H127440   1.252   9.148   3.064
 9066WAT     H227441   1.328   9.235   3.180
 9067WAT      O27442   9.614   4.036   7.009
 9067WAT     H127443   9.566   4.116   7.046
 9067WAT     H227444   9.607   4.037   6.909
 9068WAT      O27445   0.836   4.408   6.329
 9068WAT     H127446   0.889   4.329   6.300
 9068WAT     H227447   0.839   4.416   6.429
 9069WAT      O27448   3.919   3.308   6.533
 9069WAT     H127449   4.006   3.341   6.497
 9069WAT     H227450   3.872   3.254   6.464
 9070WAT      O27451   5.999   9.004   2.196
 9070WAT     H127452   6.026   8.915   2.234
 9070WAT     H227453   6.075   9.068   2.206
 9071WAT      O27454   7.821   5.403   1.806
 9071WAT     H127455   7.849   5.493   1.772
 9071WAT     H227456   7.794   5.411   1.902
 9072WAT      O27457   4.839   8.748   2.847
 9072WAT     H127458   4.807   8.662   2.887
 9072WAT     H227459   4.875   8.731   2.755
 9073WAT      O27460   9.429   0.756   2.819
 9073WAT     H127461   9.485   0.789   2.894
 9073WAT     H227462   9.453   0.805   2.735
 9074WAT      O27463   9.311   9.214   4.395
 9074WAT     H127464   9.338   9.147   4.464
 9074WAT     H227465   9.364   9.198   4.312
 9075WAT      O27466   2.126   8.536   4.477
 9075WAT     H127467   2.215   8.564   4.441
 9075WAT     H227468   2.126   8.438   4.494
 9076WAT      O27469   0.599   5.312   9.238
 9076WAT     H127470   0.659   5.392   9.237
 9076WAT     H227471   0.524   5.328   9.302
 9077WAT      O27472   1.741   2.943   8.171
 9077WAT     H127473   1.646   2.948   8.141
 9077WAT     H227474   1.745   2.898   8.260
 9078WAT      O27475   9.413   9.645   7.999
 9078WAT     H127476   9.331   9.604   7.958
 9078WAT     H227477   9.418   9.619   8.096
 9079WAT      O27478   7.571   7.766   7.069
 9079WAT     H127479   7.491   7.711   7.046
 9079WAT     H227480   7.602   7.743   7.161
 9080WAT      O27481   7.697   2.214   8.469
 9080WAT     H127482   7.654   2.277   8.534
 9080WAT     H227483   7.792   2.199   8.495
 9081WAT      O27484   2.356   0.367   5.925
 9081WAT     H127485   2.372   0.335   6.018
 9081WAT     H227486   2.443   0.376   5.877
 9082WAT      O27487   9.266   8.610   3.552
 9082WAT     H127488   9.352   8.570   3.586
 9082WAT     H227489   9.280   8.646   3.460
 9083WAT      O27490   4.156   0.576   5.300
 9083WAT     H127491   4.232   0.592   5.363
 9083WAT     H227492   4.108   0.492   5.327
 9084WAT      O27493   1.002   4.938   2.002
 9084WAT     H127494   0.936   4.863   1.997
 9084WAT     H227495   0.984   5.002   1.927
 9085WAT      O27496   1.709   5.791   5.164
 9085WAT     H127497   1.803   5.757   5.153
 9085WAT     H227498   1.664   5.794   5.075
 9086WAT      O27499   7.806   9.087   7.722
 9086WAT     H127500   7.878   9.149   7.690
 9086WAT     H227501   7.835   9.044   7.808
 9087WAT      O27502   9.735   9.339   5.673
 9087WAT     H127503   9.656   9.361   5.616
 9087WAT     H227504   9.790   9.268   5.629
 9088WAT      O27505   0.003   5.908   4.099
 9088WAT     H127506  -0.001   5.816   4.060
 9088WAT     H227507   0.023   5.974   4.026
 9089WAT      O27508   5.407   9.815   4.983
 9089WAT     H127509   5.480   9.882   4.997
 9089WAT     H227510   5.365   9.829   4.893
 9090WAT      O27511   6.144   6.517   0.426
 9090WAT     H127512   6.106   6.526   0.518
 9090WAT     H227513   6.185   6.426   0.416
 9091WAT      O27514   7.322   2.578   4.739
 9091WAT     H127515   7.318   2.616   4.646
 9091WAT     H227516   7.379   2.496   4.739
 9092WAT      O27517   3.006   6.799   4.587
 9092WAT     H127518   3.083   6.857   4.612
 9092WAT     H227519   2.921   6.848   4.607
 9093WAT      O27520   6.172   4.909   6.711
 9093WAT     H127521   6.159   4.811   6.724
 9093WAT     H227522   6.101   4.959   6.762
 9094WAT      O27523   1.314   3.014   4.392
 9094WAT     H127524   1.385   3.084   4.380
 9094WAT     H227525   1.230   3.057   4.423
 9095WAT      O27526   5.111   9.210   6.185
 9095WAT     H127527   5.122   9.305   6.213
 9095WAT     H227528   5.196   9.178   6.142
 9096WAT      O27529   1.974   7.053   0.490
 9096WAT     H127530   2.066   7.085   0.466
 9096WAT     H227531   1.945   6.983   0.426
 9097WAT      O27532   4.888   0.313   1.441
 9097WAT     H127533   4.864   0.260   1.359
 9097WAT     H227534   4.982   0.348   1.431
 9098WAT      O27535   4.968   4.872   0.157
 9098WAT     H127536   5.068   4.871   0.148
 9098WAT     H227537   4.935   4.778   0.164
 9099WAT      O27538   1.265   3.996   4.249
 9099WAT     H127539   1.226   3.918   4.298
 9099WAT     H227540   1.310   3.964   4.165
 9100WAT      O27541   4.746   0.117   8.441
 9100WAT     H127542   4.744   0.129   8.342
 9100WAT     H227543   4.661   0.153   8.481
 9101WAT      O27544   4.781   0.881   0.966
 9101WAT     H127545   4.774   0.782   0.971
 9101WAT     H227546   4.846   0.914   1.034
 9102WAT      O27547   1.783   1.672   2.793
 9102WAT     H127548   1.797   1.623   2.707
 9102WAT     H227549   1.772   1.769   2.774
 9103WAT      O27550   6.954   9.687   4.362
 9103WAT     H127551   6.943   9.725   4.270
 9103WAT     H227552   6.947   9.761   4.429
 9104WAT      O27553   4.288   1.418   7.721
 9104WAT     H127554   4.290   1.516   7.703
 9104WAT     H227555   4.253   1.402   7.814
 9105WAT      O27556   2.099   6.191   9.655
 9105WAT     H127557   2.078   6.158   9.563
 9105WAT     H227558   2.080   6.120   9.722
 9106WAT      O27559   3.626   0.293   8.713
 9106WAT     H127560   3.562   0.337   8.650
 9106WAT     H227561   3.698   0.358   8.738
 9107WAT      O27562   4.279   3.283   0.295
 9107WAT     H127563   4.221   3.354   0.257
 9107WAT     H227564   4.335   3.243   0.221
 9108WAT      O27565   1.230   6.771   1.932
 9108WAT     H127566   1.258   6.858   1.973
 9108WAT     H227567   1.280   6.757   1.846
 9109WAT      O27568   1.625   5.748   9.262
 9109WAT     H127569   1.712   5.796   9.271
 9109WAT     H227570   1.634   5.675   9.194
 9110WAT      O27571   7.154   3.467   9.545
 9110WAT     H127572   7.124   3.521   9.624
 9110WAT     H227573   7.078   3.411   9.512
 9111WAT      O27574   3.934   7.081   7.411
 9111WAT     H127575   4.010   7.054   7.351
 9111WAT     H227576   3.847   7.066   7.363
 9112WAT      O27577   7.251   7.807   2.609
 9112WAT     H127578   7.351   7.819   2.607
 9112WAT     H227579   7.209   7.889   2.648
 9113WAT      O27580   1.016   2.295   0.554
 9113WAT     H127581   1.096   2.268   0.501
 9113WAT     H227582   0.997   2.225   0.623
 9114WAT      O27583   2.948   8.090   1.767
 9114WAT     H127584   2.874   8.023   1.764
 9114WAT     H227585   2.953   8.130   1.859
 9115WAT      O27586   9.580   4.254   2.808
 9115WAT     H127587   9.633   4.171   2.826
 9115WAT     H227588   9.581   4.273   2.710
 9116WAT      O27589   0.369   4.611   9.276
 9116WAT     H127590   0.334   4.685   9.218
 9116WAT     H227591   0.468   4.617   9.282
 9117WAT      O27592   0.174   6.925   0.189
 9117WAT     H127593   0.153   6.943   0.285
 9117WAT     H227594   0.254   6.979   0.163
 9118WAT      O27595   3.633   8.484   0.421
 9118WAT     H127596   3.608   8.431   0.339
 9118WAT     H227597   3.699   8.432   0.476
 9119WAT      O27598   1.347   6.064   2.129
 9119WAT     H127599   1.354   6.092   2.225
 9119WAT     H227600   1.251   6.065   2.101
 9120WAT      O27601   7.267   1.142   8.114
 9120WAT     H127602   7.185   1.170   8.063
 9120WAT     H227603   7.250   1.152   8.212
 9121WAT      O27604   4.361   5.657   0.068
 9121WAT     H127605   4.401   5.610   0.147
 9121WAT     H227606   4.268   5.623   0.052
 9122WAT      O27607   6.666   1.116   1.262
 9122WAT     H127608   6.758   1.109   1.299
 9122WAT     H227609   6.668   1.101   1.164
 9123WAT      O27610   9.862   9.705   2.412
 9123WAT     H127611   9.835   9.750   2.498
 9123WAT     H227612   9.871   9.775   2.340
 9124WAT      O27613   4.917   1.161   1.289
 9124WAT     H127614   4.843   1.193   1.348
 9124WAT     H227615   5.002   1.160   1.340
 9125WAT      O27616   0.094   7.995   5.747
 9125WAT     H127617   0.041   8.032   5.823
 9125WAT     H227618   0.159   8.063   5.714
 9126WAT      O27619   6.485   0.753   7.187
 9126WAT     H127620   6.449   0.670   7.146
 9126WAT     H227621   6.484   0.827   7.119
 9127WAT      O27622   1.594   1.990   3.593
 9127WAT     H127623   1.623   2.073   3.640
 9127WAT     H227624   1.575   1.919   3.661
 9128WAT      O27625   2.125   9.447   6.130
 9128WAT     H127626   2.090   9.503   6.206
 9128WAT     H227627   2.059   9.447   6.056
 9129WAT      O27628   7.657   1.410   4.461
 9129WAT     H127629   7.719   1.458   4.523
 9129WAT     H227630   7.610   1.477   4.402
 9130WAT      O27631   4.767   0.109   5.861
 9130WAT     H127632   4.776   0.089   5.763
 9130WAT     H227633   4.722   0.197   5.873
 9131WAT      O27634   7.619   9.215   5.092
 9131WAT     H127635   7.530   9.218   5.137
 9131WAT     H227636   7.687   9.259   5.150
 9132WAT      O27637   9.824   1.156   1.313
 9132WAT     H127638   9.759   1.195   1.248
 9132WAT     H227639   9.865   1.229   1.367
 9133WAT      O27640   4.728   0.670   1.821
 9133WAT     H127641   4.766   0.715   1.740
 9133WAT     H227642   4.628   0.672   1.816
 9134WAT      O27643   4.721   2.774   3.035
 9134WAT     H127644   4.699   2.851   3.095
 9134WAT     H227645   4.749   2.808   2.945
 9135WAT      O27646   9.118   1.163   5.209
 9135WAT     H127647   9.105   1.108   5.291
 9135WAT     H227648   9.197   1.129   5.157
 9136WAT      O27649   3.010   8.282   0.960
 9136WAT     H127650   2.960   8.212   1.012
 9136WAT     H227651   3.083   8.319   1.017
 9137WAT      O27652   4.921   6.795   3.724
 9137WAT     H127653   5.020   6.791   3.738
 9137WAT     H227654   4.886   6.702   3.711
 9138WAT      O27655   6.219   3.801   4.043
 9138WAT     H127656   6.288   3.855   3.996
 9138WAT     H227657   6.210   3.833   4.137
 9139WAT      O27658   1.292   9.549   4.893
 9139WAT     H127659   1.290   9.449   4.902
 9139WAT     H227660   1.347   9.574   4.813
 9140WAT      O27661   3.210   8.012   7.532
 9140WAT     H127662   3.137   8.065   7.489
 9140WAT     H227663   3.272   8.074   7.581
 9141WAT      O27664   2.390   7.503   4.265
 9141WAT     H127665   2.441   7.565   4.206
 9141WAT     H227666   2.376   7.416   4.218
 9142WAT      O27667   5.657   4.402   9.887
 9142WAT     H127668   5.724   4.464   9.845
 9142WAT     H227669   5.693   4.370   9.975
 9143WAT      O27670   7.055   0.947   7.077
 9143WAT     H127671   7.028   1.004   7.154
 9143WAT     H227672   7.033   0.994   6.991
 9144WAT      O27673   9.375   7.057   5.161
 9144WAT     H127674   9.414   7.148   5.177
 9144WAT     H227675   9.445   6.998   5.120
 9145WAT      O27676   7.849   5.697   1.493
 9145WAT     H127677   7.758   5.671   1.524
 9145WAT     H227678   7.902   5.614   1.471
 9146WAT      O27679   1.340   5.610   8.992
 9146WAT     H127680   1.306   5.529   8.944
 9146WAT     H227681   1.322   5.602   9.090
 9147WAT      O27682   0.656   8.574   8.752
 9147WAT     H127683   0.706   8.610   8.831
 9147WAT     H227684   0.611   8.650   8.704
 9148WAT      O27685   8.303   2.115   5.426
 9148WAT     H127686   8.396   2.082   5.410
 9148WAT     H227687   8.274   2.172   5.350
 9149WAT      O27688   7.305   5.738   1.925
 9149WAT     H127689   7.388   5.683   1.927
 9149WAT     H227690   7.326   5.832   1.953
 9150WAT      O27691   9.725   6.568   5.907
 9150WAT     H127692   9.715   6.511   5.825
 9150WAT     H227693   9.768   6.514   5.980
 9151WAT      O27694   7.709   0.346   4.092
 9151WAT     H127695   7.791   0.394   4.061
 9151WAT     H227696   7.660   0.403   4.159
 9152WAT      O27697   6.047   2.918   5.632
 9152WAT     H127698   5.967   2.970   5.663
 9152WAT     H227699   6.037   2.897   5.534
 9153WAT      O27700   5.168   6.274   8.473
 9153WAT     H127701   5.212   6.260   8.385
 9153WAT     H227702   5.204   6.209   8.540
 9154WAT      O27703   5.025   0.397   9.147
 9154WAT     H127704   5.023   0.451   9.231
 9154WAT     H227705   5.055   0.304   9.168
 9155WAT      O27706   3.469   2.662   7.085
 9155WAT     H127707   3.490   2.659   6.987
 9155WAT     H227708   3.554   2.668   7.137
 9156WAT      O27709   9.499   7.874   1.442
 9156WAT     H127710   9.559   7.944   1.480
 9156WAT     H227711   9.416   7.868   1.498
 9157WAT      O27712   5.300   3.127   4.516
 9157WAT     H127713   5.381   3.088   4.561
 9157WAT     H227714   5.303   3.105   4.418
 9158WAT      O27715   0.525   2.481   3.713
 9158WAT     H127716   0.549   2.442   3.624
 9158WAT     H227717   0.497   2.408   3.775
 9159WAT      O27718   0.098   0.195   1.991
 9159WAT     H127719   0.072   0.281   2.035
 9159WAT     H227720   0.194   0.199   1.965
 9160WAT      O27721   7.896   6.339   5.102
 9160WAT     H127722   7.813   6.395   5.095
 9160WAT     H227723   7.877   6.259   5.159
 9161WAT      O27724   6.563   4.470   8.130
 9161WAT     H127725   6.546   4.480   8.032
 9161WAT     H227726   6.476   4.478   8.179
 9162WAT      O27727   7.339   0.869   5.103
 9162WAT     H127728   7.345   0.956   5.152
 9162WAT     H227729   7.393   0.800   5.151
 9163WAT      O27730   3.132   7.306   6.709
 9163WAT     H127731   3.040   7.303   6.670
 9163WAT     H227732   3.198   7.282   6.639
 9164WAT      O27733   6.118   6.841   0.712
 9164WAT     H127734   6.110   6.939   0.730
 9164WAT     H227735   6.215   6.815   0.710
 9165WAT      O27736   9.299   3.441   8.261
 9165WAT     H127737   9.253   3.451   8.173
 9165WAT     H227738   9.366   3.514   8.273
 9166WAT      O27739   8.753   6.479   8.805
 9166WAT     H127740   8.744   6.484   8.904
 9166WAT     H227741   8.662   6.471   8.764
 9167WAT      O27742   2.691   0.530   9.360
 9167WAT     H127743   2.650   0.469   9.428
 9167WAT     H227744   2.790   0.532   9.372
 9168WAT      O27745   5.789   4.018   0.778
 9168WAT     H127746   5.742   3.956   0.715
 9168WAT     H227747   5.723   4.085   0.813
 9169WAT      O27748   3.434   4.100   1.460
 9169WAT     H127749   3.521   4.115   1.506
 9169WAT     H227750   3.449   4.076   1.365
 9170WAT      O27751   1.026   6.935   3.910
 9170WAT     H127752   1.115   6.972   3.882
 9170WAT     H227753   1.040   6.863   3.977
 9171WAT      O27754   4.938   6.444   9.486
 9171WAT     H127755   5.007   6.453   9.558
 9171WAT     H227756   4.958   6.509   9.412
 9172WAT      O27757   8.938   3.754   0.517
 9172WAT     H127758   8.852   3.804   0.529
 9172WAT     H227759   8.927   3.660   0.549
 9173WAT      O27760   0.370   1.671   3.989
 9173WAT     H127761   0.367   1.727   3.905
 9173WAT     H227762   0.419   1.586   3.970
 9174WAT      O27763   2.655   4.377   8.484
 9174WAT     H127764   2.731   4.338   8.537
 9174WAT     H227765   2.655   4.476   8.493
 9175WAT      O27766   6.192   9.591   8.924
 9175WAT     H127767   6.206   9.508   8.870
 9175WAT     H227768   6.097   9.620   8.915
 9176WAT      O27769   4.533   1.651   3.391
 9176WAT     H127770   4.461   1.704   3.436
 9176WAT     H227771   4.495   1.566   3.356
 9177WAT      O27772   7.733   9.331   5.541
 9177WAT     H127773   7.805   9.262   5.537
 9177WAT     H227774   7.681   9.321   5.626
 9178WAT      O27775   0.177   1.329   1.513
 9178WAT     H127776   0.238   1.403   1.541
 9178WAT     H227777   0.090   1.338   1.561
 9179WAT      O27778   7.562   3.039   2.065
 9179WAT     H127779   7.576   3.050   2.163
 9179WAT     H227780   7.597   3.120   2.017
 9180WAT      O27781   2.591   5.516   3.328
 9180WAT     H127782   2.677   5.506   3.278
 9180WAT     H227783   2.569   5.431   3.375
 9181WAT      O27784   4.832   1.981   9.546
 9181WAT     H127785   4.766   1.924   9.596
 9181WAT     H227786   4.924   1.953   9.570
 9182WAT      O27787   8.536   3.360   6.125
 9182WAT     H127788   8.623   3.408   6.136
 9182WAT     H227789   8.548   3.263   6.149
 9183WAT      O27790   0.009   7.359   1.898
 9183WAT     H127791  -0.018   7.319   1.810
 9183WAT     H227792  -0.016   7.296   1.972
 9184WAT      O27793   3.635   0.133   3.898
 9184WAT     H127794   3.682   0.048   3.922
 9184WAT     H227795   3.586   0.167   3.978
 9185WAT      O27796   8.686   9.768   4.061
 9185WAT     H127797   8.627   9.762   4.141
 9185WAT     H227798   8.697   9.864   4.034
 9186WAT      O27799   4.015   8.910   4.103
 9186WAT     H127800   3.988   9.004   4.122
 9186WAT     H227801   4.111   8.907   4.075
 9187WAT      O27802   6.175   8.026   7.255
 9187WAT     H127803   6.181   7.983   7.345
 9187WAT     H227804   6.201   7.961   7.184
 9188WAT      O27805   0.425   4.827   3.580
 9188WAT     H127806   0.369   4.816   3.498
 9188WAT     H227807   0.397   4.760   3.649
 9189WAT      O27808   0.945   4.357   8.647
 9189WAT     H127809   0.986   4.387   8.561
 9189WAT     H227810   0.996   4.398   8.724
 9190WAT      O27811   3.240   7.452   0.292
 9190WAT     H127812   3.234   7.552   0.290
 9190WAT     H227813   3.246   7.417   0.199
 9191WAT      O27814   4.717   5.009   3.240
 9191WAT     H127815   4.716   4.918   3.198
 9191WAT     H227816   4.680   5.076   3.175
 9192WAT      O27817   4.503   8.421   6.801
 9192WAT     H127818   4.569   8.479   6.849
 9192WAT     H227819   4.482   8.461   6.712
 9193WAT      O27820   9.157   3.139   2.423
 9193WAT     H127821   9.230   3.196   2.386
 9193WAT     H227822   9.119   3.082   2.351
 9194WAT      O27823   9.662   3.059   4.802
 9194WAT     H127824   9.691   2.968   4.830
 9194WAT     H227825   9.730   3.126   4.834
 9195WAT      O27826   8.276   3.842   8.345
 9195WAT     H127827   8.192   3.823   8.395
 9195WAT     H227828   8.335   3.761   8.348
 9196WAT      O27829   2.224   6.694   8.266
 9196WAT     H127830   2.188   6.667   8.355
 9196WAT     H227831   2.167   6.766   8.227
 9197WAT      O27832   9.282   5.908   6.198
 9197WAT     H127833   9.257   5.992   6.246
 9197WAT     H227834   9.381   5.901   6.191
 9198WAT      O27835   6.054   2.897   3.964
 9198WAT     H127836   6.044   2.939   3.874
 9198WAT     H227837   6.150   2.903   3.993
 9199WAT      O27838   7.825   7.311   4.249
 9199WAT     H127839   7.888   7.242   4.284
 9199WAT     H227840   7.757   7.333   4.319
 9200WAT      O27841   9.097   3.263   8.281
 9200WAT     H127842   9.185   3.305   8.256
 9200WAT     H227843   9.022   3.317   8.242
 9201WAT      O27844   0.930   3.979   7.355
 9201WAT     H127845   0.987   3.908   7.397
 9201WAT     H227846   0.986   4.061   7.341
 9202WAT      O27847   5.438   8.898   2.829
 9202WAT     H127848   5.506   8.870   2.761
 9202WAT     H227849   5.361   8.835   2.827
 9203WAT      O27850   7.874   2.991   2.759
 9203WAT     H127851   7.916   3.072   2.718
 9203WAT     H227852   7.937   2.950   2.825
 9204WAT      O27853   1.441   1.571   3.121
 9204WAT     H127854   1.510   1.613   3.180
 9204WAT     H227855   1.435   1.622   3.035
 9205WAT      O27856   4.433   8.898   7.488
 9205WAT     H127857   4.490   8.903   7.406
 9205WAT     H227858   4.490   8.872   7.567
 9206WAT      O27859   7.106   7.128   2.554
 9206WAT     H127860   7.059   7.057   2.606
 9206WAT     H227861   7.039   7.185   2.506
 9207WAT      O27862   4.417   9.035   8.947
 9207WAT     H127863   4.437   8.942   8.915
 9207WAT     H227864   4.391   9.091   8.868
 9208WAT      O27865   7.162   9.486   4.554
 9208WAT     H127866   7.147   9.472   4.652
 9208WAT     H227867   7.074   9.499   4.508
 9209WAT      O27868   8.547   7.402   5.439
 9209WAT     H127869   8.574   7.496   5.462
 9209WAT     H227870   8.574   7.341   5.513
 9210WAT      O27871   3.454   9.696   4.264
 9210WAT     H127872   3.418   9.683   4.356
 9210WAT     H227873   3.398   9.764   4.215
 9211WAT      O27874   5.766   8.903   2.834
 9211WAT     H127875   5.861   8.897   2.866
 9211WAT     H227876   5.765   8.939   2.741
 9212WAT      O27877   5.200   6.099   5.924
 9212WAT     H127878   5.231   6.088   5.830
 9212WAT     H227879   5.161   6.013   5.957
 9213WAT      O27880   8.817   3.563   4.973
 9213WAT     H127881   8.841   3.573   4.877
 9213WAT     H227882   8.866   3.485   5.013
 9214WAT      O27883   9.262   8.671   9.406
 9214WAT     H127884   9.299   8.711   9.322
 9214WAT     H227885   9.319   8.593   9.433
 9215WAT      O27886   8.272   5.230   0.287
 9215WAT     H127887   8.236   5.148   0.243
 9215WAT     H227888   8.368   5.243   0.262
 9216WAT      O27889   6.583   6.372   9.200
 9216WAT     H127890   6.539   6.287   9.173
 9216WAT     H227891   6.645   6.355   9.276
 9217WAT      O27892   3.690   0.300   2.939
 9217WAT     H127893   3.671   0.337   3.030
 9217WAT     H227894   3.655   0.207   2.932
 9218WAT      O27895   4.916   6.761   8.628
 9218WAT     H127896   4.981   6.781   8.701
 9218WAT     H227897   4.840   6.707   8.664
 9219WAT      O27898   7.916   4.431   4.020
 9219WAT     H127899   7.856   4.453   4.097
 9219WAT     H227900   7.861   4.417   3.938
 9220WAT      O27901   9.362   7.844   6.151
 9220WAT     H127902   9.420   7.924   6.138
 9220WAT     H227903   9.412   7.761   6.125
 9221WAT      O27904   5.228   9.839   1.682
 9221WAT     H127905   5.182   9.769   1.628
 9221WAT     H227906   5.203   9.929   1.647
 9222WAT      O27907   6.558   1.785   8.998
 9222WAT     H127908   6.558   1.812   9.095
 9222WAT     H227909   6.487   1.836   8.950
 9223WAT      O27910   9.002   2.098   2.392
 9223WAT     H127911   8.979   2.186   2.432
 9223WAT     H227912   8.971   2.025   2.452
 9224WAT      O27913   1.430   7.810   1.037
 9224WAT     H127914   1.448   7.761   1.122
 9224WAT     H227915   1.465   7.757   0.960
 9225WAT      O27916   4.883   1.590   2.689
 9225WAT     H127917   4.968   1.558   2.645
 9225WAT     H227918   4.805   1.541   2.649
 9226WAT      O27919   3.237   9.283   1.964
 9226WAT     H127920   3.313   9.347   1.967
 9226WAT     H227921   3.160   9.325   1.916
 9227WAT      O27922   8.110   0.882   2.495
 9227WAT     H127923   8.063   0.794   2.484
 9227WAT     H227924   8.059   0.939   2.560
 9228WAT      O27925   9.435   8.617   5.522
 9228WAT     H127926   9.469   8.580   5.436
 9228WAT     H227927   9.338   8.596   5.531
 9229WAT      O27928   4.530   0.513   6.232
 9229WAT     H127929   4.516   0.508   6.331
 9229WAT     H227930   4.623   0.486   6.210
 9230WAT      O27931   0.462   2.219   8.900
 9230WAT     H127932   0.446   2.274   8.981
 9230WAT     H227933   0.385   2.157   8.885
 9231WAT      O27934   1.835   8.363   5.549
 9231WAT     H127935   1.771   8.289   5.529
 9231WAT     H227936   1.919   8.325   5.588
 9232WAT      O27937   7.163   8.288   8.837
 9232WAT     H127938   7.102   8.240   8.900
 9232WAT     H227939   7.139   8.386   8.836
 9233WAT      O27940   6.850   7.248   3.826
 9233WAT     H127941   6.771   7.188   3.812
 9233WAT     H227942   6.878   7.288   3.739
 9234WAT      O27943   6.905   8.221   6.435
 9234WAT     H127944   6.938   8.313   6.414
 9234WAT     H227945   6.903   8.209   6.534
 9235WAT      O27946   2.848   5.417   3.018
 9235WAT     H127947   2.765   5.362   3.007
 9235WAT     H227948   2.833   5.508   2.981
 9236WAT      O27949   2.584   3.682   6.720
 9236WAT     H127950   2.659   3.746   6.735
 9236WAT     H227951   2.565   3.632   6.805
 9237WAT      O27952   9.138   5.988   7.240
 9237WAT     H127953   9.092   6.068   7.278
 9237WAT     H227954   9.087   5.906   7.262
 9238WAT      O27955   2.537   8.847   5.774
 9238WAT     H127956   2.446   8.881   5.751
 9238WAT     H227957   2.537   8.747   5.774
 9239WAT      O27958   0.137   8.612   7.904
 9239WAT     H127959   0.220   8.608   7.960
 9239WAT     H227960   0.076   8.537   7.930
 9240WAT      O27961   9.258   7.543   3.059
 9240WAT     H127962   9.291   7.632   3.090
 9240WAT     H227963   9.216   7.495   3.136
 9241WAT      O27964   2.282   4.087   2.932
 9241WAT     H127965   2.195   4.073   2.980
 9241WAT     H227966   2.264   4.125   2.842
 9242WAT      O27967   2.927   5.540   0.019
 9242WAT     H127968   2.882   5.564  -0.067
 9242WAT     H227969   2.976   5.453   0.008
 9243WAT      O27970   6.077   0.147   7.598
 9243WAT     H127971   6.130   0.095   7.531
 9243WAT     H227972   6.020   0.214   7.551
 9244WAT      O27973   3.980   8.230   1.202
 9244WAT     H127974   4.017   8.139   1.188
 9244WAT     H227975   4.031   8.277   1.274
 9245WAT      O27976   3.634   3.595   7.201
 9245WAT     H127977   3.548   3.561   7.162
 9245WAT     H227978   3.692   3.518   7.226
 9246WAT      O27979   1.411   9.666   9.483
 9246WAT     H127980   1.387   9.629   9.393
 9246WAT     H227981   1.379   9.760   9.490
 9247WAT      O27982   0.173   8.978   6.535
 9247WAT     H127983   0.114   9.054   6.508
 9247WAT     H227984   0.264   8.991   6.495
 9248WAT      O27985   7.745   3.404   0.993
 9248WAT     H127986   7.690   3.382   1.073
 9248WAT     H227987   7.832   3.444   1.022
 9249WAT      O27988   5.567   0.388   0.560
 9249WAT     H127989   5.657   0.344   0.561
 9249WAT     H227990   5.520   0.371   0.646
 9250WAT      O27991   0.961   5.570   2.412
 9250WAT     H127992   0.897   5.645   2.398
 9250WAT     H227993   1.054   5.602   2.397
 9251WAT      O27994   7.088   2.130   5.529
 9251WAT     H127995   7.144   2.176   5.460
 9251WAT     H227996   7.143   2.111   5.610
 9252WAT      O27997   5.084   7.183   1.320
 9252WAT     H127998   5.067   7.280   1.335
 9252WAT     H227999   5.096   7.137   1.408
 9253WAT      O28000   9.648   5.360   3.470
 9253WAT     H128001   9.621   5.322   3.382
 9253WAT     H228002   9.656   5.287   3.538
 9254WAT      O28003   2.814   9.535   7.909
 9254WAT     H128004   2.747   9.468   7.939
 9254WAT     H228005   2.830   9.603   7.981
 9255WAT      O28006   0.425   7.038   1.130
 9255WAT     H128007   0.353   7.094   1.088
 9255WAT     H228008   0.420   7.045   1.229
 9256WAT      O28009   2.309   9.219   0.717
 9256WAT     H128010   2.271   9.127   0.721
 9256WAT     H228011   2.404   9.215   0.684
 9257WAT      O28012   0.016   9.098   5.596
 9257WAT     H128013   0.072   9.156   5.537
 9257WAT     H228014   0.055   9.097   5.688
 9258WAT      O28015   0.949   4.802   2.780
 9258WAT     H128016   0.888   4.880   2.767
 9258WAT     H228017   0.997   4.782   2.695
 9259WAT      O28018   2.758   4.307   8.844
 9259WAT     H128019   2.743   4.286   8.748
 9259WAT     H228020   2.806   4.231   8.887
 9260WAT      O28021   7.455   5.665   3.206
 9260WAT     H128022   7.361   5.661   3.173
 9260WAT     H228023   7.503   5.740   3.161
 9261WAT      O28024   8.893   3.985   2.511
 9261WAT     H128025   8.933   4.051   2.574
 9261WAT     H228026   8.796   4.005   2.500
 9262WAT      O28027   4.209   5.501   2.923
 9262WAT     H128028   4.120   5.458   2.939
 9262WAT     H228029   4.233   5.491   2.826
 9263WAT      O28030   6.117   4.092   1.077
 9263WAT     H128031   6.186   4.147   1.124
 9263WAT     H228032   6.035   4.088   1.133
 9264WAT      O28033   0.745   8.898   5.768
 9264WAT     H128034   0.712   8.985   5.731
 9264WAT     H228035   0.681   8.825   5.743
 9265WAT      O28036   6.804   3.821   1.260
 9265WAT     H128037   6.777   3.918   1.260
 9265WAT     H228038   6.746   3.771   1.325
 9266WAT      O28039   4.606   1.136   2.388
 9266WAT     H128040   4.568   1.148   2.480
 9266WAT     H228041   4.554   1.066   2.340
 9267WAT      O28042   1.467   3.090   1.821
 9267WAT     H128043   1.514   3.004   1.842
 9267WAT     H228044   1.418   3.081   1.735
 9268WAT      O28045   0.605   7.634   8.000
 9268WAT     H128046   0.552   7.707   8.042
 9268WAT     H228047   0.546   7.556   7.979
 9269WAT      O28048   4.621   8.492   8.616
 9269WAT     H128049   4.558   8.561   8.652
 9269WAT     H228050   4.593   8.466   8.524
 9270WAT      O28051   3.456   1.585   3.675
 9270WAT     H128052   3.441   1.517   3.603
 9270WAT     H228053   3.370   1.634   3.692
 9271WAT      O28054   3.934   9.066   7.557
 9271WAT     H128055   3.904   9.141   7.616
 9271WAT     H228056   3.886   9.069   7.470
 9272WAT      O28057   2.754   8.253   8.129
 9272WAT     H128058   2.758   8.340   8.179
 9272WAT     H228059   2.801   8.183   8.182
 9273WAT      O28060   3.403   3.102   5.796
 9273WAT     H128061   3.478   3.163   5.769
 9273WAT     H228062   3.316   3.151   5.787
 9274WAT      O28063   1.381   6.170   8.467
 9274WAT     H128064   1.325   6.139   8.544
 9274WAT     H228065   1.335   6.245   8.420
 9275WAT      O28066   5.248   2.746   1.402
 9275WAT     H128067   5.235   2.774   1.497
 9275WAT     H228068   5.281   2.652   1.399
 9276WAT      O28069   5.935   8.574   9.077
 9276WAT     H128070   5.841   8.609   9.075
 9276WAT     H228071   5.995   8.643   9.117
 9277WAT      O28072   7.299   6.462   4.587
 9277WAT     H128073   7.267   6.387   4.529
 9277WAT     H228074   7.318   6.427   4.679
 9278WAT      O28075   1.235   7.066   0.858
 9278WAT     H128076   1.137   7.051   0.841
 9278WAT     H228077   1.260   7.157   0.826
 9279WAT      O28078   5.563   7.795   6.514
 9279WAT     H128079   5.469   7.795   6.480
 9279WAT     H228080   5.607   7.708   6.492
 9280WAT      O28081   6.242   2.365   7.142
 9280WAT     H128082   6.185   2.416   7.077
 9280WAT     H228083   6.242   2.411   7.230
 9281WAT      O28084   2.411   9.351   5.144
 9281WAT     H128085   2.341   9.421   5.155
 9281WAT     H228086   2.491   9.374   5.199
 9282WAT      O28087   8.484   6.041   2.304
 9282WAT     H128088   8.463   6.052   2.401
 9282WAT     H228089   8.579   6.069   2.287
 9283WAT      O28090   7.982   4.220   6.621
 9283WAT     H128091   7.951   4.233   6.527
 9283WAT     H228092   7.904   4.228   6.683
 9284WAT      O28093   6.274   6.863   7.267
 9284WAT     H128094   6.296   6.781   7.320
 9284WAT     H228095   6.204   6.841   7.199
 9285WAT      O28096   7.859   7.292   8.281
 9285WAT     H128097   7.862   7.241   8.367
 9285WAT     H228098   7.904   7.239   8.209
 9286WAT      O28099   0.051   0.040   9.289
 9286WAT     H128100   0.008   0.088   9.366
 9286WAT     H228101  -0.020   0.008   9.226
 9287WAT      O28102   6.105   2.799   1.156
 9287WAT     H128103   6.163   2.773   1.079
 9287WAT     H228104   6.115   2.732   1.230
 9288WAT      O28105   1.714   6.291   0.877
 9288WAT     H128106   1.624   6.272   0.916
 9288WAT     H228107   1.784   6.272   0.946
 9289WAT      O28108   0.280   7.652   1.006
 9289WAT     H128109   0.184   7.628   1.018
 9289WAT     H228110   0.338   7.575   1.033
 9290WAT      O28111   2.964   1.060   2.668
 9290WAT     H128112   2.983   1.044   2.571
 9290WAT     H228113   2.973   1.157   2.688
 9291WAT      O28114   7.116   1.911   3.266
 9291WAT     H128115   7.188   1.874   3.324
 9291WAT     H228116   7.033   1.856   3.278
 9292WAT      O28117   9.868   0.194   6.859
 9292WAT     H128118   9.954   0.169   6.816
 9292WAT     H228119   9.849   0.291   6.842
 9293WAT      O28120   6.640   4.712   3.933
 9293WAT     H128121   6.565   4.694   3.869
 9293WAT     H228122   6.695   4.788   3.899
 9294WAT      O28123   8.656   2.422   9.548
 9294WAT     H128124   8.731   2.484   9.572
 9294WAT     H228125   8.582   2.432   9.614
 9295WAT      O28126   9.458   3.021   4.400
 9295WAT     H128127   9.509   3.088   4.454
 9295WAT     H228128   9.444   2.938   4.453
 9296WAT      O28129   3.795   3.744   7.918
 9296WAT     H128130   3.767   3.735   8.013
 9296WAT     H228131   3.802   3.840   7.894
 9297WAT      O28132   3.510   6.966   3.438
 9297WAT     H128133   3.540   7.061   3.439
 9297WAT     H228134   3.507   6.931   3.532
 9298WAT      O28135   7.283   8.802   1.773
 9298WAT     H128136   7.209   8.778   1.709
 9298WAT     H228137   7.364   8.829   1.721
 9299WAT      O28138   3.295   7.968   0.181
 9299WAT     H128139   3.309   8.011   0.091
 9299WAT     H228140   3.247   8.033   0.241
 9300WAT      O28141   4.365   1.190   8.915
 9300WAT     H128142   4.371   1.155   9.008
 9300WAT     H228143   4.362   1.114   8.850
 9301WAT      O28144   9.522   1.792   2.245
 9301WAT     H128145   9.460   1.784   2.323
 9301WAT     H228146   9.482   1.744   2.166
 9302WAT      O28147   1.933   4.489   0.882
 9302WAT     H128148   1.989   4.571   0.871
 9302WAT     H228149   1.981   4.423   0.941
 9303WAT      O28150   8.007   5.317   3.368
 9303WAT     H128151   8.018   5.415   3.384
 9303WAT     H228152   7.921   5.286   3.409
 9304WAT      O28153   1.843   8.331   2.663
 9304WAT     H128154   1.839   8.420   2.618
 9304WAT     H228155   1.786   8.332   2.745
 9305WAT      O28156   1.913   2.267   2.674
 9305WAT     H128157   2.011   2.284   2.673
 9305WAT     H228158   1.877   2.286   2.765
 9306WAT      O28159   3.176   6.400   9.727
 9306WAT     H128160   3.177   6.487   9.776
 9306WAT     H228161   3.081   6.369   9.717
 9307WAT      O28162   4.083   5.347   1.064
 9307WAT     H128163   4.072   5.404   1.145
 9307WAT     H228164   4.124   5.401   0.991
 9308WAT      O28165   0.747   0.050   0.592
 9308WAT     H128166   0.801  -0.032   0.576
 9308WAT     H228167   0.808   0.126   0.616
 9309WAT      O28168   5.119   6.079   1.291
 9309WAT     H128169   5.077   6.168   1.306
 9309WAT     H228170   5.215   6.082   1.319
 9310WAT      O28171   7.184   7.096   7.412
 9310WAT     H128172   7.205   7.147   7.329
 9310WAT     H228173   7.220   7.003   7.404
 9311WAT      O28174   1.897   0.169   6.407
 9311WAT     H128175   1.838   0.171   6.487
 9311WAT     H228176   1.964   0.095   6.417
 9312WAT      O28177   1.641   3.339   5.238
 9312WAT     H128178   1.542   3.327   5.236
 9312WAT     H228179   1.685   3.253   5.263
 9313WAT      O28180   5.853   8.275   7.012
 9313WAT     H128181   5.829   8.185   6.976
 9313WAT     H228182   5.894   8.265   7.103
 9314WAT      O28183   5.076   0.273   5.075
 9314WAT     H128184   5.037   0.182   5.081
 9314WAT     H228185   5.032   0.333   5.143
 9315WAT      O28186   2.899   8.219   6.413
 9315WAT     H128187   2.891   8.296   6.351
 9315WAT     H228188   2.822   8.157   6.400
 9316WAT      O28189   5.186   5.629   6.659
 9316WAT     H128190   5.261   5.695   6.662
 9316WAT     H228191   5.106   5.672   6.618
 9317WAT      O28192   1.600   9.782   1.687
 9317WAT     H128193   1.678   9.762   1.746
 9317WAT     H228194   1.622   9.859   1.627
 9318WAT      O28195   2.999   2.421   1.975
 9318WAT     H128196   3.046   2.440   2.062
 9318WAT     H228197   3.057   2.451   1.899
 9319WAT      O28198   6.888   4.427   3.020
 9319WAT     H128199   6.853   4.371   3.095
 9319WAT     H228200   6.928   4.368   2.950
 9320WAT      O28201   2.793   4.793   4.249
 9320WAT     H128202   2.809   4.889   4.271
 9320WAT     H228203   2.796   4.739   4.333
 9321WAT      O28204   4.197   2.618   3.955
 9321WAT     H128205   4.292   2.631   3.929
 9321WAT     H228206   4.154   2.553   3.893
 9322WAT      O28207   4.644   4.621   3.415
 9322WAT     H128208   4.597   4.605   3.501
 9322WAT     H228209   4.608   4.560   3.345
 9323WAT      O28210   7.862   1.522   5.887
 9323WAT     H128211   7.955   1.536   5.919
 9323WAT     H228212   7.852   1.429   5.851
 9324WAT      O28213   2.915   7.814   8.328
 9324WAT     H128214   2.937   7.718   8.344
 9324WAT     H228215   2.816   7.826   8.333
 9325WAT      O28216   2.354   6.114   6.105
 9325WAT     H128217   2.417   6.075   6.037
 9325WAT     H228218   2.264   6.072   6.096
 9326WAT      O28219   7.914   9.683   3.390
 9326WAT     H128220   7.897   9.654   3.484
 9326WAT     H228221   7.828   9.699   3.343
 9327WAT      O28222   8.252   3.303   3.665
 9327WAT     H128223   8.330   3.292   3.727
 9327WAT     H228224   8.271   3.377   3.601
 9328WAT      O28225   5.708   8.684   1.723
 9328WAT     H128226   5.788   8.628   1.702
 9328WAT     H228227   5.630   8.653   1.669
 9329WAT      O28228   0.797   6.145   6.945
 9329WAT     H128229   0.882   6.136   6.997
 9329WAT     H228230   0.805   6.222   6.882
 9330WAT      O28231   0.780   0.821   5.834
 9330WAT     H128232   0.832   0.786   5.912
 9330WAT     H228233   0.769   0.749   5.766
 9331WAT      O28234   6.181   2.009   7.824
 9331WAT     H128235   6.138   2.098   7.840
 9331WAT     H228236   6.230   1.980   7.906
 9332WAT      O28237   8.441   0.172   4.040
 9332WAT     H128238   8.429   0.115   3.958
 9332WAT     H228239   8.538   0.193   4.052
 9333WAT      O28240   4.760   5.228   2.867
 9333WAT     H128241   4.771   5.309   2.926
 9333WAT     H228242   4.691   5.247   2.798
 9334WAT      O28243   2.658   3.137   2.222
 9334WAT     H128244   2.635   3.040   2.227
 9334WAT     H228245   2.731   3.157   2.287
 9335WAT      O28246   9.705   3.365   5.991
 9335WAT     H128247   9.766   3.328   5.921
 9335WAT     H228248   9.706   3.305   6.071
 9336WAT      O28249   9.058   0.634   5.940
 9336WAT     H128250   9.155   0.615   5.955
 9336WAT     H228251   9.047   0.724   5.899
 9337WAT      O28252   1.549   0.610   6.887
 9337WAT     H128253   1.503   0.689   6.928
 9337WAT     H228254   1.582   0.550   6.960
 9338WAT      O28255   3.697   0.683   0.469
 9338WAT     H128256   3.751   0.739   0.406
 9338WAT     H228257   3.601   0.709   0.462
 9339WAT      O28258   4.245   3.772   3.002
 9339WAT     H128259   4.247   3.870   3.020
 9339WAT     H228260   4.180   3.752   2.929
 9340WAT      O28261   2.875   2.252   9.581
 9340WAT     H128262   2.936   2.325   9.550
 9340WAT     H228263   2.905   2.165   9.542
 9341WAT      O28264   2.247   7.434   0.817
 9341WAT     H128265   2.209   7.378   0.743
 9341WAT     H228266   2.332   7.476   0.786
 9342WAT      O28267   5.163   6.624   2.097
 9342WAT     H128268   5.142   6.628   1.999
 9342WAT     H228269   5.249   6.670   2.115
 9343WAT      O28270   2.936   8.159   9.018
 9343WAT     H128271   2.952   8.082   9.079
 9343WAT     H228272   2.838   8.180   9.017
 9344WAT      O28273   7.773   7.273   8.769
 9344WAT     H128274   7.714   7.354   8.756
 9344WAT     H228275   7.858   7.285   8.718
 9345WAT      O28276   4.759   3.063   6.823
 9345WAT     H128277   4.838   3.122   6.806
 9345WAT     H228278   4.675   3.117   6.822
 9346WAT      O28279   9.101   1.700   8.541
 9346WAT     H128280   9.014   1.675   8.500
 9346WAT     H228281   9.159   1.619   8.548
 9347WAT      O28282   7.007   4.794   6.527
 9347WAT     H128283   6.989   4.772   6.623
 9347WAT     H228284   7.035   4.710   6.479
 9348WAT      O28285   6.368   9.110   1.337
 9348WAT     H128286   6.381   9.077   1.430
 9348WAT     H228287   6.406   9.202   1.328
 9349WAT      O28288   3.309   5.451   0.652
 9349WAT     H128289   3.405   5.452   0.626
 9349WAT     H228290   3.294   5.381   0.722
 9350WAT      O28291   7.193   4.326   6.431
 9350WAT     H128292   7.204   4.297   6.336
 9350WAT     H228293   7.257   4.276   6.488
 9351WAT      O28294   1.857   1.019   9.204
 9351WAT     H128295   1.911   0.935   9.191
 9351WAT     H228296   1.843   1.034   9.302
 9352WAT      O28297   1.527   0.806   1.820
 9352WAT     H128298   1.489   0.875   1.883
 9352WAT     H228299   1.499   0.715   1.849
 9353WAT      O28300   3.722   9.766   4.704
 9353WAT     H128301   3.755   9.674   4.680
 9353WAT     H228302   3.710   9.820   4.621
 9354WAT      O28303   9.177   5.166   6.741
 9354WAT     H128304   9.127   5.248   6.713
 9354WAT     H228305   9.134   5.085   6.701
 9355WAT      O28306   7.957   6.138   0.026
 9355WAT     H128307   8.025   6.147   0.100
 9355WAT     H228308   8.000   6.161  -0.061
 9356WAT      O28309   0.552   6.102   1.885
 9356WAT     H128310   0.487   6.109   1.810
 9356WAT     H228311   0.539   6.014   1.931
 9357WAT      O28312   2.581   4.806   5.049
 9357WAT     H128313   2.612   4.901   5.054
 9357WAT     H228314   2.539   4.788   4.960
 9358WAT      O28315   7.600   1.178   6.137
 9358WAT     H128316   7.553   1.178   6.050
 9358WAT     H228317   7.596   1.270   6.177
 9359WAT      O28318   0.542   3.358   9.664
 9359WAT     H128319   0.455   3.369   9.617
 9359WAT     H228320   0.595   3.442   9.657
 9360WAT      O28321   9.688   5.182   1.721
 9360WAT     H128322   9.658   5.210   1.630
 9360WAT     H228323   9.771   5.127   1.713
 9361WAT      O28324   4.802   1.490   3.522
 9361WAT     H128325   4.782   1.569   3.464
 9361WAT     H228326   4.770   1.507   3.615
 9362WAT      O28327   6.513   7.576   5.765
 9362WAT     H128328   6.563   7.568   5.679
 9362WAT     H228329   6.415   7.584   5.747
 9363WAT      O28330   5.027   2.146   9.394
 9363WAT     H128331   4.956   2.182   9.334
 9363WAT     H228332   4.988   2.124   9.483
 9364WAT      O28333   7.791   6.948   7.364
 9364WAT     H128334   7.853   6.938   7.442
 9364WAT     H228335   7.773   7.045   7.349
 9365WAT      O28336   6.583   2.869   0.839
 9365WAT     H128337   6.566   2.853   0.742
 9365WAT     H228338   6.587   2.967   0.856
 9366WAT      O28339   9.863   3.210   0.825
 9366WAT     H128340   9.855   3.114   0.849
 9366WAT     H228341   9.958   3.232   0.803
 9367WAT      O28342   2.619   5.037   2.018
 9367WAT     H128343   2.718   5.028   2.011
 9367WAT     H228344   2.584   4.971   2.085
 9368WAT      O28345   8.153   8.072   2.922
 9368WAT     H128346   8.165   8.136   2.846
 9368WAT     H228347   8.243   8.045   2.957
 9369WAT      O28348   4.798   3.955   5.592
 9369WAT     H128349   4.724   3.955   5.525
 9369WAT     H228350   4.794   3.871   5.646
 9370WAT      O28351   2.318   4.705   4.061
 9370WAT     H128352   2.353   4.767   4.132
 9370WAT     H228353   2.377   4.625   4.055
 9371WAT      O28354   1.897   5.334   0.937
 9371WAT     H128355   1.862   5.413   0.987
 9371WAT     H228356   1.821   5.289   0.889
 9372WAT      O28357   2.435   7.728   4.053
 9372WAT     H128358   2.496   7.808   4.057
 9372WAT     H228359   2.470   7.663   3.985
 9373WAT      O28360   5.749   7.565   5.131
 9373WAT     H128361   5.797   7.587   5.046
 9373WAT     H228362   5.795   7.488   5.176
 9374WAT      O28363   5.078   6.785   9.655
 9374WAT     H128364   5.074   6.685   9.652
 9374WAT     H228365   5.121   6.814   9.740
 9375WAT      O28366   2.510   9.678   8.635
 9375WAT     H128367   2.481   9.637   8.549
 9375WAT     H228368   2.585   9.625   8.674
 9376WAT      O28369   4.512   5.598   1.660
 9376WAT     H128370   4.602   5.568   1.629
 9376WAT     H228371   4.443   5.530   1.632
 9377WAT      O28372   7.887   8.013   2.220
 9377WAT     H128373   7.857   8.039   2.129
 9377WAT     H228374   7.964   7.950   2.213
 9378WAT      O28375   3.414   4.123   8.003
 9378WAT     H128376   3.374   4.162   7.920
 9378WAT     H228377   3.343   4.116   8.074
 9379WAT      O28378   1.780   4.519   4.921
 9379WAT     H128379   1.819   4.459   4.991
 9379WAT     H228380   1.751   4.605   4.963
 9380WAT      O28381   8.238   3.376   0.699
 9380WAT     H128382   8.234   3.291   0.750
 9380WAT     H228383   8.147   3.415   0.691
 9381WAT      O28384   2.663   2.739   3.159
 9381WAT     H128385   2.749   2.773   3.120
 9381WAT     H228386   2.682   2.668   3.226
 9382WAT      O28387   9.653   0.601   3.019
 9382WAT     H128388   9.568   0.559   2.986
 9382WAT     H228389   9.641   0.700   3.025
 9383WAT      O28390   7.953   6.400   1.059
 9383WAT     H128391   7.990   6.318   1.102
 9383WAT     H228392   7.964   6.478   1.122
 9384WAT      O28393   0.852   4.978   7.849
 9384WAT     H128394   0.836   4.882   7.872
 9384WAT     H228395   0.771   5.031   7.873
 9385WAT      O28396   1.441   7.062   6.020
 9385WAT     H128397   1.512   7.131   6.007
 9385WAT     H228398   1.450   6.991   5.950
 9386WAT      O28399   5.584   7.624   3.650
 9386WAT     H128400   5.521   7.662   3.718
 9386WAT     H228401   5.544   7.632   3.559
 9387WAT      O28402   6.449   2.510   1.489
 9387WAT     H128403   6.373   2.486   1.429
 9387WAT     H228404   6.421   2.583   1.551
 9388WAT      O28405   4.816   1.130   1.786
 9388WAT     H128406   4.769   1.209   1.825
 9388WAT     H228407   4.814   1.054   1.851
 9389WAT      O28408   6.362   5.824   2.367
 9389WAT     H128409   6.393   5.849   2.276
 9389WAT     H228410   6.438   5.789   2.421
 9390WAT      O28411   5.769   0.587   6.414
 9390WAT     H128412   5.804   0.500   6.379
 9390WAT     H228413   5.693   0.618   6.357
 9391WAT      O28414   8.364   1.995   7.962
 9391WAT     H128415   8.313   2.055   7.901
 9391WAT     H228416   8.388   2.045   8.045
 9392WAT      O28417   1.687   7.167   2.219
 9392WAT     H128418   1.786   7.177   2.232
 9392WAT     H228419   1.639   7.217   2.291
 9393WAT      O28420   5.086   4.652   3.754
 9393WAT     H128421   5.092   4.689   3.846
 9393WAT     H228422   5.177   4.625   3.723
 9394WAT      O28423   0.979   6.550   0.260
 9394WAT     H128424   0.893   6.541   0.312
 9394WAT     H228425   1.034   6.467   0.272
 9395WAT      O28426   4.255   0.587   0.990
 9395WAT     H128427   4.161   0.563   0.965
 9395WAT     H228428   4.256   0.627   1.081
 9396WAT      O28429   5.376   9.188   3.261
 9396WAT     H128430   5.448   9.119   3.253
 9396WAT     H228431   5.310   9.160   3.330
 9397WAT      O28432   2.528   1.856   8.483
 9397WAT     H128433   2.476   1.790   8.429
 9397WAT     H228434   2.467   1.931   8.511
 9398WAT      O28435   7.490   8.710   4.030
 9398WAT     H128436   7.414   8.715   3.966
 9398WAT     H228437   7.481   8.629   4.088
 9399WAT      O28438   0.539   0.238   0.699
 9399WAT     H128439   0.439   0.236   0.703
 9399WAT     H228440   0.570   0.183   0.622
 9400WAT      O28441   3.362   5.869   3.984
 9400WAT     H128442   3.445   5.824   4.015
 9400WAT     H228443   3.290   5.801   3.969
 9401WAT      O28444   6.893   0.234   7.181
 9401WAT     H128445   6.939   0.304   7.127
 9401WAT     H228446   6.856   0.164   7.120
 9402WAT      O28447   2.808   7.051   4.301
 9402WAT     H128448   2.795   7.038   4.399
 9402WAT     H228449   2.799   6.964   4.254
 9403WAT      O28450   3.320   7.351   4.626
 9403WAT     H128451   3.300   7.367   4.530
 9403WAT     H228452   3.283   7.427   4.681
 9404WAT      O28453   2.796   3.671   0.898
 9404WAT     H128454   2.812   3.626   0.986
 9404WAT     H228455   2.709   3.719   0.901
 9405WAT      O28456   6.594   0.253   8.190
 9405WAT     H128457   6.657   0.278   8.117
 9405WAT     H228458   6.527   0.326   8.203
 9406WAT      O28459   4.686   2.830   8.706
 9406WAT     H128460   4.682   2.769   8.785
 9406WAT     H228461   4.679   2.777   8.622
 9407WAT      O28462   8.621   8.112   0.999
 9407WAT     H128463   8.659   8.125   0.907
 9407WAT     H228464   8.589   8.200   1.034
 9408WAT      O28465   3.588   7.797   5.704
 9408WAT     H128466   3.595   7.754   5.614
 9408WAT     H228467   3.679   7.822   5.736
 9409WAT      O28468   0.485   3.657   5.619
 9409WAT     H128469   0.569   3.681   5.668
 9409WAT     H228470   0.482   3.706   5.531
 9410WAT      O28471   3.740   3.971   0.797
 9410WAT     H128472   3.761   3.998   0.703
 9410WAT     H228473   3.769   4.043   0.860
 9411WAT      O28474   7.055   3.289   0.784
 9411WAT     H128475   7.062   3.198   0.742
 9411WAT     H228476   6.962   3.302   0.818
 9412WAT      O28477   7.987   5.510   9.250
 9412WAT     H128478   8.010   5.505   9.348
 9412WAT     H228479   7.896   5.471   9.235
 9413WAT      O28480   3.409   2.393   9.725
 9413WAT     H128481   3.327   2.450   9.718
 9413WAT     H228482   3.423   2.367   9.820
 9414WAT      O28483   3.493   0.376   4.295
 9414WAT     H128484   3.398   0.396   4.273
 9414WAT     H228485   3.550   0.390   4.213
 9415WAT      O28486   8.009   8.864   4.927
 9415WAT     H128487   8.087   8.878   4.866
 9415WAT     H228488   8.040   8.813   5.008
 9416WAT      O28489   9.504   1.530   1.003
 9416WAT     H128490   9.458   1.557   1.088
 9416WAT     H228491   9.600   1.509   1.022
 9417WAT      O28492   4.134   2.065   4.864
 9417WAT     H128493   4.165   2.140   4.805
 9417WAT     H228494   4.044   2.033   4.834
 9418WAT      O28495   8.092   3.222   3.312
 9418WAT     H128496   8.051   3.221   3.221
 9418WAT     H228497   8.028   3.260   3.378
 9419WAT      O28498   3.351   0.498   4.978
 9419WAT     H128499   3.447   0.492   4.950
 9419WAT     H228500   3.346   0.510   5.077
 9420WAT      O28501   5.140   3.145   3.770
 9420WAT     H128502   5.073   3.134   3.843
 9420WAT     H228503   5.231   3.161   3.809
 9421WAT      O28504   4.836   2.558   8.019
 9421WAT     H128505   4.871   2.626   7.955
 9421WAT     H228506   4.739   2.543   8.002
 9422WAT      O28507   3.834   4.774   3.346
 9422WAT     H128508   3.793   4.692   3.385
 9422WAT     H228509   3.870   4.832   3.420
 9423WAT      O28510   1.415   0.767   4.398
 9423WAT     H128511   1.336   0.762   4.336
 9423WAT     H228512   1.442   0.863   4.409
 9424WAT      O28513   1.420   3.428   8.418
 9424WAT     H128514   1.437   3.509   8.362
 9424WAT     H228515   1.379   3.455   8.505
 9425WAT      O28516   8.904   4.728   5.533
 9425WAT     H128517   8.988   4.694   5.575
 9425WAT     H228518   8.886   4.679   5.448
 9426WAT      O28519   2.115   5.374   3.975
 9426WAT     H128520   2.063   5.404   4.055
 9426WAT     H228521   2.151   5.282   3.992
 9427WAT      O28522   0.219   8.401   1.825
 9427WAT     H128523   0.133   8.384   1.776
 9427WAT     H228524   0.208   8.481   1.883
 9428WAT      O28525   8.645   8.781   8.427
 9428WAT     H128526   8.604   8.831   8.504
 9428WAT     H228527   8.620   8.684   8.434
 9429WAT      O28528   5.535   0.300   8.962
 9429WAT     H128529   5.612   0.342   9.010
 9429WAT     H228530   5.538   0.323   8.865
 9430WAT      O28531   0.807   8.473   0.741
 9430WAT     H128532   0.879   8.534   0.775
 9430WAT     H228533   0.849   8.392   0.701
 9431WAT      O28534   3.300   6.587   2.013
 9431WAT     H128535   3.329   6.656   2.078
 9431WAT     H228536   3.370   6.577   1.942
 9432WAT      O28537   1.039   1.153   9.669
 9432WAT     H128538   0.972   1.115   9.733
 9432WAT     H228539   0.999   1.231   9.621
 9433WAT      O28540   9.507   8.530   0.720
 9433WAT     H128541   9.546   8.622   0.726
 9433WAT     H228542   9.514   8.497   0.626
 9434WAT      O28543   3.658   2.280   8.739
 9434WAT     H128544   3.571   2.322   8.767
 9434WAT     H228545   3.639   2.192   8.694
 9435WAT      O28546   4.972   4.803   8.027
 9435WAT     H128547   5.048   4.746   7.996
 9435WAT     H228548   4.982   4.821   8.125
 9436WAT      O28549   1.271   9.818   0.960
 9436WAT     H128550   1.268   9.722   0.986
 9436WAT     H228551   1.236   9.874   1.035
 9437WAT      O28552   2.141   7.072   3.018
 9437WAT     H128553   2.211   7.010   3.054
 9437WAT     H228554   2.184   7.160   2.996
 9438WAT      O28555   5.499   4.898   0.935
 9438WAT     H128556   5.463   4.955   0.862
 9438WAT     H228557   5.550   4.821   0.896
 9439WAT      O28558   6.981   9.105   5.928
 9439WAT     H128559   6.952   9.156   5.847
 9439WAT     H228560   6.956   9.009   5.918
 9440WAT      O28561   9.281   4.833   5.148
 9440WAT     H128562   9.300   4.796   5.058
 9440WAT     H228563   9.342   4.910   5.167
 9441WAT      O28564   1.121   6.816   1.402
 9441WAT     H128565   1.152   6.895   1.455
 9441WAT     H228566   1.080   6.848   1.316
 9442WAT      O28567   3.029   5.101   4.879
 9442WAT     H128568   2.937   5.133   4.857
 9442WAT     H228569   3.034   5.078   4.976
 9443WAT      O28570   3.777   6.012   4.653
 9443WAT     H128571   3.831   5.947   4.599
 9443WAT     H228572   3.791   6.104   4.616
 9444WAT      O28573   8.733   8.454   8.877
 9444WAT     H128574   8.739   8.552   8.893
 9444WAT     H228575   8.751   8.405   8.963
 9445WAT      O28576   0.616   7.939   0.506
 9445WAT     H128577   0.564   8.025   0.501
 9445WAT     H228578   0.639   7.909   0.414
 9446WAT      O28579   6.510   5.354   1.383
 9446WAT     H128580   6.442   5.281   1.373
 9446WAT     H228581   6.553   5.347   1.473
 9447WAT      O28582   8.065   4.141   5.513
 9447WAT     H128583   8.099   4.137   5.418
 9447WAT     H228584   7.982   4.086   5.521
 9448WAT      O28585   1.738   1.927   3.352
 9448WAT     H128586   1.649   1.953   3.390
 9448WAT     H228587   1.809   1.937   3.422
 9449WAT      O28588   9.220   3.958   7.773
 9449WAT     H128589   9.307   3.920   7.805
 9449WAT     H228590   9.168   3.992   7.851
 9450WAT      O28591   5.726   1.166   1.946
 9450WAT     H128592   5.809   1.145   1.999
 9450WAT     H228593   5.696   1.259   1.967
 9451WAT      O28594   4.673   0.264   4.035
 9451WAT     H128595   4.584   0.254   3.990
 9451WAT     H228596   4.669   0.342   4.098
 9452WAT      O28597   3.687   2.165   4.574
 9452WAT     H128598   3.725   2.131   4.488
 9452WAT     H228599   3.650   2.088   4.627
 9453WAT      O28600   3.351   6.493   7.946
 9453WAT     H128601   3.444   6.504   7.979
 9453WAT     H228602   3.288   6.495   8.024
 9454WAT      O28603   2.695   8.260   9.638
 9454WAT     H128604   2.718   8.179   9.692
 9454WAT     H228605   2.622   8.237   9.573
 9455WAT      O28606   4.752   8.324   5.482
 9455WAT     H128607   4.798   8.279   5.406
 9455WAT     H228608   4.690   8.260   5.527
 9456WAT      O28609   1.812   2.430   5.857
 9456WAT     H128610   1.725   2.441   5.906
 9456WAT     H228611   1.888   2.450   5.919
 9457WAT      O28612   1.417   7.324   1.776
 9457WAT     H128613   1.451   7.246   1.724
 9457WAT     H228614   1.345   7.294   1.838
 9458WAT      O28615   9.045   4.619   3.020
 9458WAT     H128616   8.996   4.560   2.956
 9458WAT     H228617   9.018   4.595   3.114
 9459WAT      O28618   6.698   0.366   0.139
 9459WAT     H128619   6.759   0.403   0.209
 9459WAT     H228620   6.667   0.441   0.079
 9460WAT      O28621   7.589   4.033   2.802
 9460WAT     H128622   7.682   4.066   2.786
 9460WAT     H228623   7.530   4.063   2.726
 9461WAT      O28624   3.575   9.721   6.565
 9461WAT     H128625   3.528   9.803   6.533
 9461WAT     H228626   3.671   9.724   6.536
 9462WAT      O28627   7.823   5.125   8.117
 9462WAT     H128628   7.899   5.060   8.126
 9462WAT     H228629   7.857   5.218   8.130
 9463WAT      O28630   7.141   0.954   9.608
 9463WAT     H128631   7.208   0.941   9.680
 9463WAT     H228632   7.118   1.052   9.601
 9464WAT      O28633   2.636   8.612   5.073
 9464WAT     H128634   2.643   8.606   4.973
 9464WAT     H228635   2.606   8.703   5.099
 9465WAT      O28636   9.730   3.768   6.091
 9465WAT     H128637   9.678   3.732   6.014
 9465WAT     H228638   9.669   3.779   6.169
 9466WAT      O28639   3.574   6.948   0.278
 9466WAT     H128640   3.481   6.961   0.245
 9466WAT     H228641   3.571   6.918   0.374
 9467WAT      O28642   2.504   8.411   9.452
 9467WAT     H128643   2.516   8.345   9.378
 9467WAT     H228644   2.414   8.396   9.494
 9468WAT      O28645   3.894   8.898   3.395
 9468WAT     H128646   3.990   8.924   3.385
 9468WAT     H228647   3.887   8.799   3.409
 9469WAT      O28648   8.010   7.269   3.577
 9469WAT     H128649   7.976   7.340   3.639
 9469WAT     H228650   7.933   7.213   3.545
 9470WAT      O28651   1.627   6.239   4.593
 9470WAT     H128652   1.630   6.257   4.495
 9470WAT     H228653   1.695   6.170   4.616
 9471WAT      O28654   5.112   4.928   1.655
 9471WAT     H128655   5.045   4.871   1.607
 9471WAT     H228656   5.176   4.967   1.589
 9472WAT      O28657   4.907   1.227   8.177
 9472WAT     H128658   4.922   1.279   8.261
 9472WAT     H228659   4.994   1.188   8.146
 9473WAT      O28660   6.035   3.785   8.122
 9473WAT     H128661   6.130   3.753   8.113
 9473WAT     H228662   6.010   3.837   8.040
 9474WAT      O28663   2.137   4.921   2.715
 9474WAT     H128664   2.198   4.849   2.681
 9474WAT     H228665   2.175   4.960   2.799
 9475WAT      O28666   7.036   1.693   8.840
 9475WAT     H128667   7.083   1.633   8.905
 9475WAT     H228668   6.937   1.680   8.848
 9476WAT      O28669   1.924   5.644   5.114
 9476WAT     H128670   2.005   5.610   5.067
 9476WAT     H228671   1.855   5.572   5.119
 9477WAT      O28672   4.690   6.627   9.123
 9477WAT     H128673   4.726   6.708   9.077
 9477WAT     H228674   4.720   6.545   9.074
 9478WAT      O28675   2.222   1.128   5.344
 9478WAT     H128676   2.317   1.118   5.374
 9478WAT     H228677   2.184   1.038   5.323
 9479WAT      O28678   7.314   2.929   6.628
 9479WAT     H128679   7.320   2.830   6.625
 9479WAT     H228680   7.401   2.969   6.599
 9480WAT      O28681   0.197   7.938   7.285
 9480WAT     H128682   0.175   7.881   7.206
 9480WAT     H228683   0.270   7.894   7.339
 9481WAT      O28684   4.517   0.089   3.795
 9481WAT     H128685   4.576   0.169   3.782
 9481WAT     H228686   4.421   0.116   3.783
 9482WAT      O28687   5.626   8.724   0.560
 9482WAT     H128688   5.628   8.726   0.460
 9482WAT     H228689   5.708   8.768   0.596
 9483WAT      O28690   5.853   5.419   9.695
 9483WAT     H128691   5.803   5.487   9.641
 9483WAT     H228692   5.871   5.456   9.786
 9484WAT      O28693   6.672   3.210   8.566
 9484WAT     H128694   6.694   3.117   8.594
 9484WAT     H228695   6.581   3.212   8.525
 9485WAT      O28696   0.662   0.035   9.294
 9485WAT     H128697   0.698   0.097   9.225
 9485WAT     H228698   0.737   0.000   9.350
 9486WAT      O28699   2.028   3.774   2.398
 9486WAT     H128700   2.073   3.799   2.312
 9486WAT     H228701   1.952   3.712   2.379
 9487WAT      O28702   8.336   8.058   0.134
 9487WAT     H128703   8.384   7.976   0.105
 9487WAT     H228704   8.400   8.121   0.178
 9488WAT      O28705   0.940   4.126   5.870
 9488WAT     H128706   1.035   4.112   5.898
 9488WAT     H228707   0.879   4.108   5.947
 9489WAT      O28708   6.227   7.138   7.246
 9489WAT     H128709   6.222   7.167   7.342
 9489WAT     H228710   6.210   7.039   7.240
 9490WAT      O28711   6.609   5.750   2.511
 9490WAT     H128712   6.685   5.778   2.452
 9490WAT     H228713   6.601   5.650   2.510
 9491WAT      O28714   6.068   3.016   1.424
 9491WAT     H128715   6.004   3.047   1.494
 9491WAT     H228716   6.035   3.044   1.334
 9492WAT      O28717   0.685   1.825   1.608
 9492WAT     H128718   0.717   1.731   1.620
 9492WAT     H228719   0.727   1.884   1.676
 9493WAT      O28720   6.475   3.644   5.861
 9493WAT     H128721   6.574   3.656   5.847
 9493WAT     H228722   6.459   3.563   5.918
 9494WAT      O28723   8.529   2.819   7.072
 9494WAT     H128724   8.542   2.855   7.164
 9494WAT     H228725   8.434   2.787   7.062
 9495WAT      O28726   7.335   6.310   3.453
 9495WAT     H128727   7.421   6.359   3.437
 9495WAT     H228728   7.320   6.300   3.551
 9496WAT      O28729   8.020   6.903   2.431
 9496WAT     H128730   8.115   6.874   2.436
 9496WAT     H228731   7.970   6.843   2.369
 9497WAT      O28732   1.436   4.867   5.344
 9497WAT     H128733   1.436   4.821   5.256
 9497WAT     H228734   1.361   4.831   5.400
 9498WAT      O28735   3.825   4.998   8.335
 9498WAT     H128736   3.923   5.011   8.329
 9498WAT     H228737   3.805   4.921   8.396
 9499WAT      O28738   3.337   6.626   8.780
 9499WAT     H128739   3.418   6.683   8.793
 9499WAT     H228740   3.364   6.534   8.752
 9500WAT      O28741   4.565   1.382   9.200
 9500WAT     H128742   4.636   1.434   9.248
 9500WAT     H228743   4.607   1.304   9.154
 9501WAT      O28744   1.112   3.346   3.684
 9501WAT     H128745   1.186   3.296   3.640
 9501WAT     H228746   1.101   3.435   3.638
 9502WAT      O28747   8.780   9.349   1.421
 9502WAT     H128748   8.762   9.270   1.479
 9502WAT     H228749   8.839   9.414   1.469
 9503WAT      O28750   0.745   3.574   7.797
 9503WAT     H128751   0.779   3.594   7.705
 9503WAT     H228752   0.795   3.497   7.836
 9504WAT      O28753   8.873   8.237   3.499
 9504WAT     H128754   8.931   8.290   3.561
 9504WAT     H228755   8.794   8.201   3.550
 9505WAT      O28756   8.755   8.310   7.473
 9505WAT     H128757   8.713   8.296   7.562
 9505WAT     H228758   8.833   8.248   7.462
 9506WAT      O28759   1.756   7.929   6.992
 9506WAT     H128760   1.696   7.862   6.948
 9506WAT     H228761   1.844   7.930   6.946
 9507WAT      O28762   0.345   7.516   6.103
 9507WAT     H128763   0.325   7.613   6.115
 9507WAT     H228764   0.262   7.468   6.077
 9508WAT      O28765   0.834   2.013   4.991
 9508WAT     H128766   0.741   2.031   5.023
 9508WAT     H228767   0.892   2.092   5.010
 9509WAT      O28768   4.310   6.530   7.061
 9509WAT     H128769   4.225   6.581   7.044
 9509WAT     H228770   4.322   6.461   6.989
 9510WAT      O28771   1.306   0.389   3.588
 9510WAT     H128772   1.250   0.467   3.616
 9510WAT     H228773   1.253   0.305   3.599
 9511WAT      O28774   4.583   2.155   7.813
 9511WAT     H128775   4.527   2.237   7.801
 9511WAT     H228776   4.655   2.153   7.743
 9512WAT      O28777   8.453   2.606   7.724
 9512WAT     H128778   8.422   2.581   7.632
 9512WAT     H228779   8.502   2.693   7.719
 9513WAT      O28780   6.010   8.805   8.073
 9513WAT     H128781   6.082   8.750   8.115
 9513WAT     H228782   5.962   8.856   8.144
 9514WAT      O28783   6.493   7.279   5.444
 9514WAT     H128784   6.463   7.234   5.528
 9514WAT     H228785   6.569   7.341   5.465
 9515WAT      O28786   4.020   5.755   7.541
 9515WAT     H128787   4.117   5.749   7.516
 9515WAT     H228788   3.976   5.667   7.525
 9516WAT      O28789   2.536   0.721   7.305
 9516WAT     H128790   2.624   0.767   7.315
 9516WAT     H228791   2.543   0.651   7.233
 9517WAT      O28792   0.314   7.649   8.409
 9517WAT     H128793   0.340   7.596   8.489
 9517WAT     H228794   0.336   7.597   8.326
 9518WAT      O28795   4.117   1.678   1.524
 9518WAT     H128796   4.074   1.588   1.516
 9518WAT     H228797   4.119   1.706   1.620
 9519WAT      O28798   7.831   2.502   7.185
 9519WAT     H128799   7.757   2.498   7.252
 9519WAT     H228800   7.902   2.436   7.209
 9520WAT      O28801   3.414   6.608   5.228
 9520WAT     H128802   3.422   6.663   5.145
 9520WAT     H228803   3.455   6.657   5.305
 9521WAT      O28804   6.117   0.400   6.456
 9521WAT     H128805   6.088   0.351   6.538
 9521WAT     H228806   6.143   0.493   6.480
 9522WAT      O28807   0.931   3.545   9.496
 9522WAT     H128808   0.987   3.573   9.575
 9522WAT     H228809   0.834   3.552   9.520
 9523WAT      O28810   9.691   4.910   1.453
 9523WAT     H128811   9.592   4.920   1.466
 9523WAT     H228812   9.733   4.881   1.539
 9524WAT      O28813   6.140   7.956   1.215
 9524WAT     H128814   6.124   7.995   1.306
 9524WAT     H228815   6.187   8.024   1.158
 9525WAT      O28816   2.093   2.394   4.302
 9525WAT     H128817   1.997   2.367   4.315
 9525WAT     H228818   2.151   2.312   4.306
 9526WAT      O28819   4.038   9.274   0.323
 9526WAT     H128820   3.963   9.221   0.283
 9526WAT     H228821   4.124   9.224   0.313
 9527WAT      O28822   3.485   4.970   9.567
 9527WAT     H128823   3.456   4.979   9.663
 9527WAT     H228824   3.405   4.981   9.508
 9528WAT      O28825   2.903   2.540   5.900
 9528WAT     H128826   2.869   2.509   5.811
 9528WAT     H228827   2.929   2.637   5.894
 9529WAT      O28828   6.720   4.629   3.184
 9529WAT     H128829   6.745   4.708   3.127
 9529WAT     H228830   6.753   4.644   3.277
 9530WAT      O28831   8.477   4.714   1.334
 9530WAT     H128832   8.480   4.674   1.243
 9530WAT     H228833   8.568   4.749   1.358
 9531WAT      O28834   3.426   9.139   0.830
 9531WAT     H128835   3.363   9.190   0.889
 9531WAT     H228836   3.409   9.163   0.735
 9532WAT      O28837   3.241   6.836   0.795
 9532WAT     H128838   3.194   6.848   0.883
 9532WAT     H228839   3.312   6.766   0.804
 9533WAT      O28840   2.832   4.019   6.195
 9533WAT     H128841   2.759   3.959   6.228
 9533WAT     H228842   2.793   4.107   6.166
 9534WAT      O28843   6.754   4.961   4.368
 9534WAT     H128844   6.810   5.007   4.436
 9534WAT     H228845   6.806   4.887   4.326
 9535WAT      O28846   8.112   3.191   2.233
 9535WAT     H128847   8.211   3.194   2.224
 9535WAT     H228848   8.077   3.284   2.248
 9536WAT      O28849   1.706   7.603   9.310
 9536WAT     H128850   1.721   7.509   9.281
 9536WAT     H228851   1.652   7.651   9.240
 9537WAT      O28852   1.893   3.212   9.831
 9537WAT     H128853   1.875   3.114   9.828
 9537WAT     H228854   1.988   3.230   9.805
 9538WAT      O28855   2.708   8.820   8.648
 9538WAT     H128856   2.795   8.869   8.638
 9538WAT     H228857   2.634   8.886   8.660
 9539WAT      O28858   6.039   3.433   0.424
 9539WAT     H128859   6.093   3.370   0.481
 9539WAT     H228860   6.022   3.390   0.335
 9540WAT      O28861   4.078   0.363   1.137
 9540WAT     H128862   4.064   0.402   1.046
 9540WAT     H228863   4.083   0.436   1.204
 9541WAT      O28864   0.452   0.346   9.151
 9541WAT     H128865   0.541   0.373   9.189
 9541WAT     H228866   0.461   0.256   9.107
 9542WAT      O28867   6.835   1.358   8.317
 9542WAT     H128868   6.798   1.439   8.363
 9542WAT     H228869   6.838   1.281   8.381
 9543WAT      O28870   1.030   6.621   4.731
 9543WAT     H128871   1.050   6.719   4.740
 9543WAT     H228872   0.933   6.609   4.714
 9544WAT      O28873   1.943   1.757   8.235
 9544WAT     H128874   2.021   1.757   8.298
 9544WAT     H228875   1.933   1.665   8.195
 9545WAT      O28876   1.614   9.503   0.568
 9545WAT     H128877   1.631   9.599   0.591
 9545WAT     H228878   1.516   9.489   0.552
 9546WAT      O28879   8.529   6.718   6.547
 9546WAT     H128880   8.485   6.647   6.492
 9546WAT     H228881   8.466   6.750   6.617
 9547WAT      O28882   5.492   1.306   5.334
 9547WAT     H128883   5.543   1.378   5.381
 9547WAT     H228884   5.439   1.346   5.259
 9548WAT      O28885   3.941   6.123   2.193
 9548WAT     H128886   3.912   6.089   2.103
 9548WAT     H228887   4.003   6.200   2.182
 9549WAT      O28888   9.877   8.618   6.671
 9549WAT     H128889   9.912   8.664   6.752
 9549WAT     H228890   9.938   8.542   6.647
 9550WAT      O28891   7.237   5.324   7.349
 9550WAT     H128892   7.224   5.225   7.361
 9550WAT     H228893   7.151   5.371   7.367
 9551WAT      O28894   1.370   9.627   7.563
 9551WAT     H128895   1.339   9.626   7.658
 9551WAT     H228896   1.360   9.719   7.525
 9552WAT      O28897   9.038   5.923   7.807
 9552WAT     H128898   9.093   5.839   7.804
 9552WAT     H228899   8.941   5.899   7.815
 9553WAT      O28900   5.583   9.106   0.589
 9553WAT     H128901   5.546   9.199   0.588
 9553WAT     H228902   5.536   9.050   0.521
 9554WAT      O28903   2.559   8.415   5.265
 9554WAT     H128904   2.621   8.337   5.275
 9554WAT     H228905   2.594   8.475   5.193
 9555WAT      O28906   7.862   8.519   0.017
 9555WAT     H128907   7.786   8.582   0.033
 9555WAT     H228908   7.892   8.480   0.104
 9556WAT      O28909   8.981   7.152   3.462
 9556WAT     H128910   9.051   7.208   3.506
 9556WAT     H228911   9.014   7.058   3.452
 9557WAT      O28912   3.527   9.750   3.188
 9557WAT     H128913   3.583   9.672   3.214
 9557WAT     H228914   3.433   9.736   3.218
 9558WAT      O28915   0.229   2.675   9.425
 9558WAT     H128916   0.323   2.658   9.453
 9558WAT     H228917   0.219   2.656   9.328
 9559WAT      O28918   1.320   3.902   0.304
 9559WAT     H128919   1.377   3.982   0.324
 9559WAT     H228920   1.303   3.851   0.388
 9560WAT      O28921   9.661   0.360   2.317
 9560WAT     H128922   9.692   0.271   2.283
 9560WAT     H228923   9.665   0.427   2.243
 9561WAT      O28924   9.267   8.809   0.536
 9561WAT     H128925   9.246   8.903   0.511
 9561WAT     H228926   9.361   8.787   0.509
 9562WAT      O28927   4.963   1.288   2.448
 9562WAT     H128928   5.048   1.237   2.435
 9562WAT     H228929   4.984   1.385   2.460
 9563WAT      O28930   4.132   6.126   9.748
 9563WAT     H128931   4.112   6.120   9.846
 9563WAT     H228932   4.046   6.118   9.697
 9564WAT      O28933   2.597   1.205   7.411
 9564WAT     H128934   2.675   1.226   7.352
 9564WAT     H228935   2.613   1.119   7.458
 9565WAT      O28936   9.771   8.651   7.364
 9565WAT     H128937   9.681   8.648   7.319
 9565WAT     H228938   9.810   8.742   7.353
 9566WAT      O28939   5.256   8.401   7.602
 9566WAT     H128940   5.197   8.333   7.560
 9566WAT     H228941   5.268   8.478   7.538
 9567WAT      O28942   2.450   5.093   5.044
 9567WAT     H128943   2.504   5.104   5.127
 9567WAT     H228944   2.511   5.085   4.965
 9568WAT      O28945   6.687   4.305   1.875
 9568WAT     H128946   6.654   4.354   1.956
 9568WAT     H228947   6.622   4.232   1.852
 9569WAT      O28948   1.906   2.950   1.820
 9569WAT     H128949   1.957   3.032   1.793
 9569WAT     H228950   1.951   2.869   1.781
 9570WAT      O28951   4.422   1.827   6.953
 9570WAT     H128952   4.424   1.737   6.910
 9570WAT     H228953   4.470   1.893   6.895
 9571WAT      O28954   5.813   6.696   2.260
 9571WAT     H128955   5.859   6.764   2.317
 9571WAT     H228956   5.736   6.739   2.213
 9572WAT      O28957   6.491   0.373   7.441
 9572WAT     H128958   6.569   0.431   7.463
 9572WAT     H228959   6.504   0.333   7.350
 9573WAT      O28960   3.582   1.412   3.834
 9573WAT     H128961   3.536   1.489   3.791
 9573WAT     H228962   3.637   1.363   3.766
 9574WAT      O28963   7.391   4.796   7.219
 9574WAT     H128964   7.461   4.841   7.274
 9574WAT     H228965   7.420   4.796   7.123
 9575WAT      O28966   2.114   8.196   2.368
 9575WAT     H128967   2.068   8.153   2.291
 9575WAT     H228968   2.171   8.271   2.335
 9576WAT      O28969   1.390   8.119   8.062
 9576WAT     H128970   1.486   8.103   8.035
 9576WAT     H228971   1.385   8.132   8.161
 9577WAT      O28972   9.207   3.855   1.159
 9577WAT     H128973   9.227   3.758   1.168
 9577WAT     H228974   9.108   3.870   1.168
 9578WAT      O28975   3.203   8.843   1.736
 9578WAT     H128976   3.238   8.936   1.741
 9578WAT     H228977   3.278   8.780   1.721
 9579WAT      O28978   3.271   0.745   8.274
 9579WAT     H128979   3.298   0.770   8.181
 9579WAT     H228980   3.272   0.645   8.283
 9580WAT      O28981   8.634   0.197   7.475
 9580WAT     H128982   8.712   0.148   7.513
 9580WAT     H228983   8.567   0.132   7.440
 9581WAT      O28984   5.975   3.989   8.630
 9581WAT     H128985   6.018   3.949   8.550
 9581WAT     H228986   5.876   3.986   8.620
 9582WAT      O28987   9.478   3.547   9.114
 9582WAT     H128988   9.561   3.540   9.058
 9582WAT     H228989   9.500   3.523   9.208
 9583WAT      O28990   2.122   0.871   5.300
 9583WAT     H128991   2.138   0.818   5.216
 9583WAT     H228992   2.176   0.833   5.374
 9584WAT      O28993   3.878   7.327   8.135
 9584WAT     H128994   3.950   7.332   8.066
 9584WAT     H228995   3.789   7.340   8.092
 9585WAT      O28996   5.382   7.250   4.043
 9585WAT     H128997   5.414   7.321   4.106
 9585WAT     H228998   5.289   7.272   4.012
 9586WAT      O28999   3.480   2.597   0.465
 9586WAT     H129000   3.523   2.564   0.548
 9586WAT     H229001   3.392   2.639   0.487
 9587WAT      O29002   5.781   7.562   0.649
 9587WAT     H129003   5.863   7.515   0.680
 9587WAT     H229004   5.764   7.540   0.553
 9588WAT      O29005   0.158   0.083   3.132
 9588WAT     H129006   0.185   0.145   3.205
 9588WAT     H229007   0.070   0.041   3.155
 9589WAT      O29008   1.364   5.110   2.229
 9589WAT     H129009   1.420   5.034   2.198
 9589WAT     H229010   1.418   5.171   2.287
 9590WAT      O29011   5.202   5.071   3.813
 9590WAT     H129012   5.302   5.076   3.808
 9590WAT     H229013   5.168   5.003   3.748
 9591WAT      O29014   4.314   9.694   0.562
 9591WAT     H129015   4.369   9.613   0.584
 9591WAT     H229016   4.285   9.739   0.647
 9592WAT      O29017   7.346   8.344   9.884
 9592WAT     H129018   7.359   8.363   9.786
 9592WAT     H229019   7.269   8.399   9.918
 9593WAT      O29020   8.463   7.423   5.158
 9593WAT     H129021   8.387   7.362   5.138
 9593WAT     H229022   8.495   7.407   5.252
 9594WAT      O29023   7.080   2.939   5.891
 9594WAT     H129024   7.037   2.933   5.801
 9594WAT     H229025   7.030   3.006   5.947
 9595WAT      O29026   3.417   3.147   0.271
 9595WAT     H129027   3.461   3.196   0.195
 9595WAT     H229028   3.453   3.054   0.275
 9596WAT      O29029   5.627   1.402   2.002
 9596WAT     H129030   5.687   1.479   1.978
 9596WAT     H229031   5.605   1.407   2.100
 9597WAT      O29032   6.696   7.592   4.566
 9597WAT     H129033   6.655   7.662   4.626
 9597WAT     H229034   6.644   7.507   4.575
 9598WAT      O29035   2.906   1.065   7.756
 9598WAT     H129036   2.908   1.165   7.762
 9598WAT     H229037   2.918   1.026   7.848
 9599WAT      O29038   8.621   4.884   4.915
 9599WAT     H129039   8.597   4.790   4.938
 9599WAT     H229040   8.653   4.888   4.821
 9600WAT      O29041   7.806   0.855   0.162
 9600WAT     H129042   7.773   0.819   0.074
 9600WAT     H229043   7.779   0.952   0.170
 9601WAT      O29044   7.490   2.138   2.323
 9601WAT     H129045   7.508   2.101   2.414
 9601WAT     H229046   7.444   2.070   2.266
 9602WAT      O29047   7.510   6.081   5.412
 9602WAT     H129048   7.464   6.058   5.499
 9602WAT     H229049   7.456   6.044   5.336
 9603WAT      O29050   9.883   7.687   0.624
 9603WAT     H129051   9.884   7.607   0.684
 9603WAT     H229052   9.887   7.771   0.679
 9604WAT      O29053   6.064   8.488   7.346
 9604WAT     H129054   6.007   8.568   7.325
 9604WAT     H229055   6.122   8.466   7.267
 9605WAT      O29056   1.962   1.899   9.051
 9605WAT     H129057   1.952   1.829   8.981
 9605WAT     H229058   1.876   1.908   9.102
 9606WAT      O29059   2.809   7.827   6.563
 9606WAT     H129060   2.840   7.838   6.657
 9606WAT     H229061   2.808   7.730   6.539
 9607WAT      O29062   4.152   5.039   5.880
 9607WAT     H129063   4.081   5.102   5.847
 9607WAT     H229064   4.108   4.960   5.923
 9608WAT      O29065   0.524   0.512   0.762
 9608WAT     H129066   0.545   0.421   0.727
 9608WAT     H229067   0.609   0.558   0.789
 9609WAT      O29068   5.337   6.397   0.822
 9609WAT     H129069   5.340   6.302   0.853
 9609WAT     H229070   5.317   6.457   0.900
 9610WAT      O29071   8.249   1.649   7.754
 9610WAT     H129072   8.155   1.636   7.785
 9610WAT     H229073   8.252   1.647   7.654
 9611WAT      O29074   9.513   3.136   8.188
 9611WAT     H129075   9.573   3.157   8.265
 9611WAT     H229076   9.418   3.134   8.220
 9612WAT      O29077   8.886   1.835   2.506
 9612WAT     H129078   8.909   1.743   2.474
 9612WAT     H229079   8.786   1.847   2.503
 9613WAT      O29080   0.859   2.057   7.953
 9613WAT     H129081   0.880   2.082   7.859
 9613WAT     H229082   0.811   1.969   7.954
 9614WAT      O29083   4.060   1.233   5.797
 9614WAT     H129084   4.088   1.232   5.893
 9614WAT     H229085   3.971   1.278   5.789
 9615WAT      O29086   0.190   2.684   0.945
 9615WAT     H129087   0.193   2.712   0.849
 9615WAT     H229088   0.094   2.677   0.975
 9616WAT      O29089   1.938   8.066   5.389
 9616WAT     H129090   2.002   8.101   5.457
 9616WAT     H229091   1.851   8.115   5.397
 9617WAT      O29092   6.963   3.796   2.789
 9617WAT     H129093   6.958   3.893   2.766
 9617WAT     H229094   6.873   3.755   2.776
 9618WAT      O29095   4.142   2.438   3.688
 9618WAT     H129096   4.150   2.508   3.617
 9618WAT     H229097   4.050   2.440   3.726
 9619WAT      O29098   2.993   7.773   3.359
 9619WAT     H129099   2.971   7.679   3.333
 9619WAT     H229100   2.996   7.780   3.459
 9620WAT      O29101   0.731   2.099   5.592
 9620WAT     H129102   0.713   2.168   5.661
 9620WAT     H229103   0.803   2.132   5.530
 9621WAT      O29104   8.358   3.582   1.470
 9621WAT     H129105   8.352   3.617   1.377
 9621WAT     H229106   8.267   3.584   1.512
 9622WAT      O29107   7.443   5.297   5.648
 9622WAT     H129108   7.440   5.355   5.566
 9622WAT     H229109   7.470   5.352   5.726
 9623WAT      O29110   6.492   5.664   3.906
 9623WAT     H129111   6.537   5.612   3.978
 9623WAT     H229112   6.560   5.699   3.842
 9624WAT      O29113   1.647   6.185   9.522
 9624WAT     H129114   1.702   6.109   9.488
 9624WAT     H229115   1.550   6.166   9.506
 9625WAT      O29116   4.385   8.310   0.389
 9625WAT     H129117   4.400   8.216   0.419
 9625WAT     H229118   4.402   8.316   0.290
 9626WAT      O29119   8.351   6.340   5.458
 9626WAT     H129120   8.325   6.404   5.385
 9626WAT     H229121   8.308   6.369   5.544
 9627WAT      O29122   2.857   5.415   1.237
 9627WAT     H129123   2.815   5.506   1.249
 9627WAT     H229124   2.889   5.405   1.143
 9628WAT      O29125   7.024   6.740   6.695
 9628WAT     H129126   6.997   6.649   6.726
 9628WAT     H229127   6.959   6.773   6.626
 9629WAT      O29128   3.831   9.257   7.710
 9629WAT     H129129   3.842   9.238   7.807
 9629WAT     H229130   3.857   9.352   7.692
 9630WAT      O29131   2.950   1.957   5.585
 9630WAT     H129132   3.005   2.033   5.621
 9630WAT     H229133   2.988   1.926   5.498
 9631WAT      O29134   0.899   4.143   2.740
 9631WAT     H129135   0.997   4.120   2.746
 9631WAT     H229136   0.888   4.242   2.742
 9632WAT      O29137   1.015   7.962   4.740
 9632WAT     H129138   0.947   7.889   4.729
 9632WAT     H229139   1.004   8.029   4.667
 9633WAT      O29140   8.095   1.668   3.556
 9633WAT     H129141   8.038   1.586   3.568
 9633WAT     H229142   8.038   1.749   3.559
 9634WAT      O29143   4.380   8.926   1.392
 9634WAT     H129144   4.408   8.983   1.314
 9634WAT     H229145   4.412   8.832   1.377
 9635WAT      O29146   3.184   4.665   2.496
 9635WAT     H129147   3.094   4.708   2.497
 9635WAT     H229148   3.253   4.732   2.527
 9636WAT      O29149   4.409   1.021   3.226
 9636WAT     H129150   4.359   1.092   3.176
 9636WAT     H229151   4.425   0.943   3.166
 9637WAT      O29152   9.883   9.576   9.413
 9637WAT     H129153   9.955   9.588   9.482
 9637WAT     H229154   9.805   9.636   9.436
 9638WAT      O29155   7.167   1.156   2.505
 9638WAT     H129156   7.239   1.088   2.518
 9638WAT     H229157   7.099   1.148   2.578
 9639WAT      O29158   6.125   2.584   4.751
 9639WAT     H129159   6.090   2.583   4.657
 9639WAT     H229160   6.154   2.677   4.774
 9640WAT      O29161   3.156   7.530   7.554
 9640WAT     H129162   3.186   7.606   7.611
 9640WAT     H229163   3.185   7.444   7.594
 9641WAT      O29164   9.429   3.403   1.749
 9641WAT     H129165   9.476   3.453   1.676
 9641WAT     H229166   9.471   3.313   1.759
 9642WAT      O29167   9.254   9.731   2.806
 9642WAT     H129168   9.236   9.796   2.732
 9642WAT     H229169   9.326   9.767   2.866
 9643WAT      O29170   4.239   5.203   7.258
 9643WAT     H129171   4.325   5.242   7.226
 9643WAT     H229172   4.254   5.108   7.286
 9644WAT      O29173   5.518   7.471   4.183
 9644WAT     H129174   5.554   7.488   4.274
 9644WAT     H229175   5.510   7.557   4.133
 9645WAT      O29176   7.035   2.912   1.883
 9645WAT     H129177   7.094   2.938   1.806
 9645WAT     H229178   7.012   2.993   1.936
 9646WAT      O29179   2.707   9.663   2.743
 9646WAT     H129180   2.727   9.568   2.719
 9646WAT     H229181   2.696   9.717   2.660
 9647WAT      O29182   6.058   1.810   2.138
 9647WAT     H129183   6.123   1.886   2.128
 9647WAT     H229184   5.966   1.842   2.112
 9648WAT      O29185   2.233   7.272   0.015
 9648WAT     H129186   2.315   7.225   0.050
 9648WAT     H229187   2.153   7.244   0.069
 9649WAT      O29188   7.600   3.991   9.704
 9649WAT     H129189   7.556   4.035   9.781
 9649WAT     H229190   7.587   3.892   9.710
 9650WAT      O29191   3.936   4.924   5.164
 9650WAT     H129192   3.925   4.940   5.066
 9650WAT     H229193   4.012   4.979   5.198
 9651WAT      O29194   5.530   1.236   3.285
 9651WAT     H129195   5.439   1.196   3.287
 9651WAT     H229196   5.575   1.222   3.374
 9652WAT      O29197   2.984   0.809   3.013
 9652WAT     H129198   2.932   0.894   3.019
 9652WAT     H229199   2.957   0.759   2.931
 9653WAT      O29200   9.537   5.648   1.221
 9653WAT     H129201   9.444   5.672   1.251
 9653WAT     H229202   9.598   5.725   1.235
 9654WAT      O29203   4.275   3.545   8.003
 9654WAT     H129204   4.232   3.456   8.015
 9654WAT     H229205   4.243   3.587   7.918
 9655WAT      O29206   7.232   6.265   7.023
 9655WAT     H129207   7.313   6.219   6.985
 9655WAT     H229208   7.153   6.204   7.015
 9656WAT      O29209   7.267   7.577   3.437
 9656WAT     H129210   7.194   7.590   3.505
 9656WAT     H229211   7.316   7.492   3.458
 9657WAT      O29212   3.167   7.164   0.698
 9657WAT     H129213   3.264   7.144   0.702
 9657WAT     H229214   3.141   7.186   0.603
 9658WAT      O29215   7.076   9.679   0.924
 9658WAT     H129216   7.009   9.629   0.979
 9658WAT     H229217   7.126   9.743   0.983
 9659WAT      O29218   4.465   2.274   0.142
 9659WAT     H129219   4.552   2.240   0.178
 9659WAT     H229220   4.399   2.281   0.217
 9660WAT      O29221   9.743   5.902   2.939
 9660WAT     H129222   9.702   5.812   2.953
 9660WAT     H229223   9.676   5.963   2.897
 9661WAT      O29224   1.773   6.663   9.791
 9661WAT     H129225   1.709   6.705   9.726
 9661WAT     H229226   1.848   6.727   9.810
 9662WAT      O29227   0.439   5.966   1.474
 9662WAT     H129228   0.515   6.029   1.492
 9662WAT     H229229   0.387   5.952   1.559
 9663WAT      O29230   1.410   4.636   5.744
 9663WAT     H129231   1.436   4.605   5.653
 9663WAT     H229232   1.313   4.617   5.759
 9664WAT      O29233   1.789   3.999   7.044
 9664WAT     H129234   1.853   4.044   7.106
 9664WAT     H229235   1.719   4.064   7.015
 9665WAT      O29236   9.864   5.010   4.945
 9665WAT     H129237   9.960   4.995   4.921
 9665WAT     H229238   9.858   5.068   5.026
 9666WAT      O29239   9.452   8.492   5.935
 9666WAT     H129240   9.388   8.566   5.956
 9666WAT     H229241   9.432   8.413   5.993
 9667WAT      O29242   7.896   1.044   7.115
 9667WAT     H129243   7.920   1.140   7.099
 9667WAT     H229244   7.822   1.018   7.054
 9668WAT      O29245   9.646   4.282   1.939
 9668WAT     H129246   9.565   4.341   1.946
 9668WAT     H229247   9.715   4.313   2.005
 9669WAT      O29248   5.676   4.428   1.211
 9669WAT     H129249   5.746   4.357   1.210
 9669WAT     H229250   5.635   4.433   1.302
 9670WAT      O29251   8.820   4.099   6.728
 9670WAT     H129252   8.810   4.033   6.802
 9670WAT     H229253   8.818   4.051   6.640
 9671WAT      O29254   3.760   7.897   3.445
 9671WAT     H129255   3.824   7.971   3.425
 9671WAT     H229256   3.719   7.912   3.535
 9672WAT      O29257   4.441   9.482   6.096
 9672WAT     H129258   4.536   9.460   6.074
 9672WAT     H229259   4.416   9.568   6.052
 9673WAT      O29260   1.906   0.171   3.294
 9673WAT     H129261   1.813   0.200   3.272
 9673WAT     H229262   1.969   0.247   3.280
 9674WAT      O29263   9.563   7.501   0.846
 9674WAT     H129264   9.595   7.411   0.817
 9674WAT     H229265   9.554   7.503   0.946
 9675WAT      O29266   9.682   0.717   3.468
 9675WAT     H129267   9.676   0.705   3.568
 9675WAT     H229268   9.620   0.652   3.424
 9676WAT      O29269   3.690   6.026   8.176
 9676WAT     H129270   3.730   5.961   8.242
 9676WAT     H229271   3.596   6.045   8.201
 9677WAT      O29272   5.221   0.458   1.027
 9677WAT     H129273   5.226   0.365   1.064
 9677WAT     H229274   5.136   0.501   1.056
 9678WAT      O29275   3.545   9.806   1.742
 9678WAT     H129276   3.569   9.716   1.707
 9678WAT     H229277   3.548   9.872   1.667
 9679WAT      O29278   9.141   5.767   0.824
 9679WAT     H129279   9.215   5.807   0.877
 9679WAT     H229280   9.172   5.748   0.731
 9680WAT      O29281   4.274   2.571   6.141
 9680WAT     H129282   4.308   2.599   6.051
 9680WAT     H229283   4.175   2.557   6.136
 9681WAT      O29284   1.609   0.916   5.614
 9681WAT     H129285   1.554   0.833   5.603
 9681WAT     H229286   1.699   0.891   5.649
 9682WAT      O29287   4.843   2.795   4.760
 9682WAT     H129288   4.837   2.761   4.667
 9682WAT     H229289   4.937   2.789   4.792
 9683WAT      O29290   5.017   9.790   9.406
 9683WAT     H129291   5.017   9.705   9.353
 9683WAT     H229292   5.100   9.794   9.462
 9684WAT      O29293   1.518   1.648   2.634
 9684WAT     H129294   1.548   1.603   2.550
 9684WAT     H229295   1.458   1.725   2.611
 9685WAT      O29296   9.269   0.352   6.353
 9685WAT     H129297   9.182   0.400   6.357
 9685WAT     H229298   9.344   0.419   6.354
 9686WAT      O29299   5.483   8.825   9.336
 9686WAT     H129300   5.441   8.736   9.353
 9686WAT     H229301   5.578   8.823   9.366
 9687WAT      O29302   0.710   7.952   5.059
 9687WAT     H129303   0.666   7.994   4.979
 9687WAT     H229304   0.796   7.909   5.031
 9688WAT      O29305   5.387   2.534   8.587
 9688WAT     H129306   5.398   2.514   8.684
 9688WAT     H229307   5.289   2.534   8.564
 9689WAT      O29308   4.983   0.729   6.012
 9689WAT     H129309   5.038   0.724   5.928
 9689WAT     H229310   5.043   0.749   6.089
 9690WAT      O29311   9.316   0.948   9.844
 9690WAT     H129312   9.385   0.897   9.791
 9690WAT     H229313   9.323   1.045   9.823
 9691WAT      O29314   5.467   5.290   0.966
 9691WAT     H129315   5.472   5.390   0.955
 9691WAT     H229316   5.425   5.250   0.884
 9692WAT      O29317   7.618   6.405   2.772
 9692WAT     H129318   7.625   6.494   2.817
 9692WAT     H229319   7.701   6.352   2.790
 9693WAT      O29320   2.172   8.852   3.933
 9693WAT     H129321   2.254   8.834   3.879
 9693WAT     H229322   2.196   8.909   4.012
 9694WAT      O29323   0.826   4.752   1.926
 9694WAT     H129324   0.792   4.755   1.832
 9694WAT     H229325   0.762   4.701   1.984
 9695WAT      O29326   4.829   6.431   5.204
 9695WAT     H129327   4.799   6.448   5.298
 9695WAT     H229328   4.819   6.515   5.150
 9696WAT      O29329   7.658   2.754   4.425
 9696WAT     H129330   7.671   2.663   4.386
 9696WAT     H229331   7.730   2.815   4.391
 9697WAT      O29332   7.106   0.632   4.414
 9697WAT     H129333   7.192   0.585   4.395
 9697WAT     H229334   7.056   0.582   4.485
 9698WAT      O29335   7.677   5.026   3.863
 9698WAT     H129336   7.776   5.033   3.854
 9698WAT     H229337   7.655   4.944   3.916
 9699WAT      O29338   2.708   4.149   1.116
 9699WAT     H129339   2.731   4.246   1.121
 9699WAT     H229340   2.786   4.094   1.145
 9700WAT      O29341   2.835   7.366   9.347
 9700WAT     H129342   2.771   7.344   9.420
 9700WAT     H229343   2.926   7.330   9.369
 9701WAT      O29344   8.614   5.407   1.732
 9701WAT     H129345   8.657   5.497   1.730
 9701WAT     H229346   8.593   5.383   1.827
 9702WAT      O29347   6.862   8.880   4.031
 9702WAT     H129348   6.921   8.835   3.964
 9702WAT     H229349   6.906   8.965   4.062
 9703WAT      O29350   3.396   3.928   6.223
 9703WAT     H129351   3.474   3.966   6.174
 9703WAT     H229352   3.422   3.910   6.318
 9704WAT      O29353   2.750   1.193   1.356
 9704WAT     H129354   2.834   1.141   1.373
 9704WAT     H229355   2.761   1.250   1.275
 9705WAT      O29356   8.948   1.241   8.577
 9705WAT     H129357   8.866   1.248   8.634
 9705WAT     H229358   8.921   1.235   8.481
 9706WAT      O29359   1.040   6.844   7.773
 9706WAT     H129360   0.942   6.849   7.753
 9706WAT     H229361   1.074   6.936   7.793
 9707WAT      O29362   9.222   3.585   1.220
 9707WAT     H129363   9.164   3.503   1.225
 9707WAT     H229364   9.228   3.627   1.310
 9708WAT      O29365   5.517   3.529   7.240
 9708WAT     H129366   5.488   3.439   7.207
 9708WAT     H229367   5.575   3.518   7.321
 9709WAT      O29368   8.802   3.906   6.893
 9709WAT     H129369   8.845   3.816   6.885
 9709WAT     H229370   8.823   3.945   6.982
 9710WAT      O29371   5.353   3.297   9.811
 9710WAT     H129372   5.439   3.347   9.826
 9710WAT     H229373   5.318   3.263   9.898
 9711WAT      O29374   1.749   8.119   1.424
 9711WAT     H129375   1.760   8.218   1.429
 9711WAT     H229376   1.685   8.089   1.495
 9712WAT      O29377   9.581   3.927   6.554
 9712WAT     H129378   9.658   3.879   6.595
 9712WAT     H229379   9.571   4.017   6.595
 9713WAT      O29380   4.280   7.847   5.723
 9713WAT     H129381   4.247   7.931   5.765
 9713WAT     H229382   4.315   7.785   5.794
 9714WAT      O29383   4.269   7.529   4.278
 9714WAT     H129384   4.241   7.433   4.282
 9714WAT     H229385   4.188   7.588   4.279
 9715WAT      O29386   8.158   7.391   0.188
 9715WAT     H129387   8.230   7.338   0.142
 9715WAT     H229388   8.076   7.334   0.197
 9716WAT      O29389   7.384   5.188   0.261
 9716WAT     H129390   7.475   5.149   0.267
 9716WAT     H229391   7.388   5.286   0.282
 9717WAT      O29392   5.620   3.700   3.558
 9717WAT     H129393   5.584   3.783   3.516
 9717WAT     H229394   5.551   3.627   3.553
 9718WAT      O29395   2.292   1.140   2.533
 9718WAT     H129396   2.330   1.224   2.492
 9718WAT     H229397   2.330   1.060   2.486
 9719WAT      O29398   0.482   0.224   9.873
 9719WAT     H129399   0.499   0.207   9.776
 9719WAT     H229400   0.444   0.316   9.884
 9720WAT      O29401   7.890   6.075   6.173
 9720WAT     H129402   7.864   6.124   6.090
 9720WAT     H229403   7.930   5.986   6.148
 9721WAT      O29404   6.285   5.570   4.326
 9721WAT     H129405   6.268   5.624   4.243
 9721WAT     H229406   6.323   5.629   4.397
 9722WAT      O29407   7.666   8.302   2.088
 9722WAT     H129408   7.649   8.383   2.030
 9722WAT     H229409   7.594   8.295   2.157
 9723WAT      O29410   3.427   6.450   8.415
 9723WAT     H129411   3.514   6.428   8.372
 9723WAT     H229412   3.352   6.428   8.353
 9724WAT      O29413   8.532   5.585   7.889
 9724WAT     H129414   8.536   5.494   7.848
 9724WAT     H229415   8.437   5.608   7.909
 9725WAT      O29416   2.293   8.179   2.839
 9725WAT     H129417   2.214   8.218   2.791
 9725WAT     H229418   2.288   8.203   2.936
 9726WAT      O29419   5.792   0.070   3.519
 9726WAT     H129420   5.872   0.010   3.520
 9726WAT     H229421   5.808   0.146   3.456
 9727WAT      O29422   1.182   5.324   5.266
 9727WAT     H129423   1.167   5.229   5.290
 9727WAT     H229424   1.276   5.336   5.235
 9728WAT      O29425   6.935   6.089   6.841
 9728WAT     H129426   6.961   6.114   6.748
 9728WAT     H229427   6.862   6.020   6.838
 9729WAT      O29428   2.211   0.001   0.785
 9729WAT     H129429   2.178   0.095   0.774
 9729WAT     H229430   2.213  -0.023   0.882
 9730WAT      O29431   2.299   5.772   7.399
 9730WAT     H129432   2.219   5.831   7.397
 9730WAT     H229433   2.381   5.827   7.416
 9731WAT      O29434   8.816   9.581   2.577
 9731WAT     H129435   8.812   9.523   2.495
 9731WAT     H229436   8.876   9.659   2.559
 9732WAT      O29437   8.034   2.768   6.313
 9732WAT     H129438   7.960   2.708   6.343
 9732WAT     H229439   8.032   2.777   6.213
 9733WAT      O29440   4.535   2.432   2.891
 9733WAT     H129441   4.478   2.501   2.846
 9733WAT     H229442   4.611   2.407   2.831
 9734WAT      O29443   9.240   5.111   9.707
 9734WAT     H129444   9.208   5.105   9.612
 9734WAT     H229445   9.333   5.146   9.709
 9735WAT      O29446   2.087   0.660   4.547
 9735WAT     H129447   2.014   0.669   4.480
 9735WAT     H229448   2.157   0.597   4.514
 9736WAT      O29449   3.460   0.181   4.682
 9736WAT     H129450   3.518   0.134   4.615
 9736WAT     H229451   3.499   0.171   4.773
 9737WAT      O29452   6.858   5.080   1.402
 9737WAT     H129453   6.856   5.169   1.356
 9737WAT     H229454   6.953   5.050   1.414
 9738WAT      O29455   2.993   3.874   0.874
 9738WAT     H129456   2.925   3.802   0.860
 9738WAT     H229457   3.076   3.850   0.825
 9739WAT      O29458   7.228   9.681   1.620
 9739WAT     H129459   7.171   9.719   1.548
 9739WAT     H229460   7.173   9.623   1.680
 9740WAT      O29461   5.062   8.957   5.881
 9740WAT     H129462   5.009   8.934   5.799
 9740WAT     H229463   5.020   8.914   5.961
 9741WAT      O29464   2.079   8.605   3.617
 9741WAT     H129465   2.058   8.698   3.588
 9741WAT     H229466   2.147   8.565   3.554
 9742WAT      O29467   2.533   0.143   2.748
 9742WAT     H129468   2.559   0.050   2.773
 9742WAT     H229469   2.605   0.184   2.692
 9743WAT      O29470   2.210   2.385   6.897
 9743WAT     H129471   2.113   2.366   6.911
 9743WAT     H229472   2.233   2.371   6.800
 9744WAT      O29473   5.165   2.727   5.765
 9744WAT     H129474   5.194   2.803   5.823
 9744WAT     H229475   5.206   2.736   5.675
 9745WAT      O29476   8.479   5.161   4.915
 9745WAT     H129477   8.392   5.166   4.866
 9745WAT     H229478   8.514   5.068   4.909
 9746WAT      O29479   0.134   3.306   7.792
 9746WAT     H129480   0.081   3.266   7.717
 9746WAT     H229481   0.074   3.320   7.871
 9747WAT      O29482   0.027   0.179   0.350
 9747WAT     H129483   0.127   0.187   0.341
 9747WAT     H229484  -0.008   0.260   0.399
 9748WAT      O29485   4.724   7.558   2.654
 9748WAT     H129486   4.677   7.492   2.595
 9748WAT     H229487   4.760   7.632   2.598
 9749WAT      O29488   1.248   7.525   7.612
 9749WAT     H129489   1.185   7.463   7.660
 9749WAT     H229490   1.309   7.568   7.678
 9750WAT      O29491   4.340   2.286   5.928
 9750WAT     H129492   4.408   2.240   5.985
 9750WAT     H229493   4.282   2.218   5.884
 9751WAT      O29494   9.428   1.875   6.095
 9751WAT     H129495   9.444   1.786   6.050
 9751WAT     H229496   9.365   1.862   6.171
 9752WAT      O29497   7.282   5.059   2.755
 9752WAT     H129498   7.343   5.028   2.682
 9752WAT     H229499   7.312   5.021   2.842
 9753WAT      O29500   9.121   1.285   8.181
 9753WAT     H129501   9.170   1.323   8.260
 9753WAT     H229502   9.157   1.325   8.097
 9754WAT      O29503   0.113   2.161   7.499
 9754WAT     H129504   0.125   2.227   7.426
 9754WAT     H229505   0.176   2.183   7.574
 9755WAT      O29506   2.190   8.808   3.240
 9755WAT     H129507   2.266   8.743   3.234
 9755WAT     H229508   2.216   8.883   3.300
 9756WAT      O29509   0.368   4.236   5.527
 9756WAT     H129510   0.435   4.267   5.459
 9756WAT     H229511   0.376   4.136   5.538
 9757WAT      O29512   7.307   4.308   0.241
 9757WAT     H129513   7.393   4.281   0.284
 9757WAT     H229514   7.267   4.383   0.294
 9758WAT      O29515   8.255   7.440   9.478
 9758WAT     H129516   8.166   7.445   9.433
 9758WAT     H229517   8.318   7.387   9.421
 9759WAT      O29518   8.047   1.728   1.584
 9759WAT     H129519   8.140   1.696   1.564
 9759WAT     H229520   8.024   1.705   1.678
 9760WAT      O29521   6.352   5.455   8.557
 9760WAT     H129522   6.386   5.426   8.467
 9760WAT     H229523   6.269   5.405   8.579
 9761WAT      O29524   8.989   2.124   5.597
 9761WAT     H129525   8.914   2.088   5.652
 9761WAT     H229526   9.010   2.059   5.523
 9762WAT      O29527   6.022   5.462   9.048
 9762WAT     H129528   5.934   5.426   9.019
 9762WAT     H229529   6.018   5.488   9.144
 9763WAT      O29530   5.464   8.920   0.014
 9763WAT     H129531   5.372   8.883   0.028
 9763WAT     H229532   5.465   9.017   0.036
 9764WAT      O29533   1.493   4.226   7.301
 9764WAT     H129534   1.480   4.127   7.303
 9764WAT     H229535   1.417   4.268   7.250
 9765WAT      O29536   3.454   0.763   7.399
 9765WAT     H129537   3.471   0.702   7.322
 9765WAT     H229538   3.454   0.858   7.368
 9766WAT      O29539   4.827   8.975   8.261
 9766WAT     H129540   4.837   9.070   8.291
 9766WAT     H229541   4.912   8.946   8.217
 9767WAT      O29542   5.761   6.731   4.593
 9767WAT     H129543   5.760   6.831   4.592
 9767WAT     H229544   5.793   6.699   4.681
 9768WAT      O29545   5.440   7.193   8.796
 9768WAT     H129546   5.539   7.198   8.807
 9768WAT     H229547   5.416   7.107   8.751
 9769WAT      O29548   4.813   2.118   5.044
 9769WAT     H129549   4.716   2.114   5.018
 9769WAT     H229550   4.841   2.214   5.052
 9770WAT      O29551   1.951   9.662   9.130
 9770WAT     H129552   1.878   9.595   9.141
 9770WAT     H229553   1.921   9.734   9.067
 9771WAT      O29554   0.346   1.517   2.844
 9771WAT     H129555   0.425   1.515   2.906
 9771WAT     H229556   0.271   1.464   2.884
 9772WAT      O29557   6.837   2.336   0.433
 9772WAT     H129558   6.794   2.259   0.480
 9772WAT     H229559   6.829   2.322   0.334
 9773WAT      O29560   5.988   8.332   9.160
 9773WAT     H129561   6.072   8.284   9.134
 9773WAT     H229562   5.983   8.419   9.111
 9774WAT      O29563   7.792   9.059   8.311
 9774WAT     H129564   7.764   9.119   8.386
 9774WAT     H229565   7.713   9.040   8.253
 9775WAT      O29566   0.955   6.436   8.400
 9775WAT     H129567   0.870   6.383   8.400
 9775WAT     H229568   0.957   6.495   8.480
 9776WAT      O29569   3.379   9.636   0.515
 9776WAT     H129570   3.414   9.728   0.498
 9776WAT     H229571   3.360   9.592   0.428
 9777WAT      O29572   4.133   3.067   3.283
 9777WAT     H129573   4.163   3.016   3.203
 9777WAT     H229574   4.033   3.066   3.288
 9778WAT      O29575   1.901   4.228   4.034
 9778WAT     H129576   1.914   4.325   4.014
 9778WAT     H229577   1.889   4.178   3.948
 9779WAT      O29578   1.564   8.977   5.432
 9779WAT     H129579   1.604   8.905   5.488
 9779WAT     H229580   1.495   9.027   5.484
 9780WAT      O29581   1.393   5.748   6.427
 9780WAT     H129582   1.470   5.723   6.368
 9780WAT     H229583   1.341   5.822   6.384
 9781WAT      O29584   3.743   7.031   1.430
 9781WAT     H129585   3.734   7.113   1.486
 9781WAT     H229586   3.673   6.965   1.455
 9782WAT      O29587   2.146   9.162   3.651
 9782WAT     H129588   2.111   9.256   3.652
 9782WAT     H229589   2.081   9.102   3.695
 9783WAT      O29590   9.778   5.183   7.638
 9783WAT     H129591   9.781   5.256   7.569
 9783WAT     H229592   9.708   5.205   7.706
 9784WAT      O29593   4.494   8.749   0.958
 9784WAT     H129594   4.489   8.682   1.032
 9784WAT     H229595   4.440   8.717   0.880
 9785WAT      O29596   2.885   1.364   6.300
 9785WAT     H129597   2.844   1.423   6.229
 9785WAT     H229598   2.872   1.268   6.275
 9786WAT      O29599   3.111   0.100   5.119
 9786WAT     H129600   3.134   0.159   5.041
 9786WAT     H229601   3.071   0.155   5.192
 9787WAT      O29602   1.666   5.782   4.005
 9787WAT     H129603   1.615   5.709   4.051
 9787WAT     H229604   1.615   5.815   3.926
 9788WAT      O29605   4.706   7.308   5.955
 9788WAT     H129606   4.728   7.228   6.011
 9788WAT     H229607   4.675   7.277   5.864
 9789WAT      O29608   5.138   7.647   7.557
 9789WAT     H129609   5.184   7.713   7.497
 9789WAT     H229610   5.199   7.570   7.575
 9790WAT      O29611   2.136   4.998   6.932
 9790WAT     H129612   2.117   4.901   6.952
 9790WAT     H229613   2.228   5.021   6.962
 9791WAT      O29614   3.438   8.525   9.679
 9791WAT     H129615   3.428   8.487   9.586
 9791WAT     H229616   3.369   8.595   9.693
 9792WAT      O29617   6.112   2.860   4.449
 9792WAT     H129618   6.203   2.895   4.427
 9792WAT     H229619   6.056   2.859   4.366
 9793WAT      O29620   6.428   0.481   8.283
 9793WAT     H129621   6.332   0.458   8.264
 9793WAT     H229622   6.471   0.516   8.200
 9794WAT      O29623   1.545   2.484   5.918
 9794WAT     H129624   1.472   2.459   5.855
 9794WAT     H229625   1.575   2.578   5.900
 9795WAT      O29626   5.739   5.161   8.228
 9795WAT     H129627   5.823   5.163   8.284
 9795WAT     H229628   5.763   5.146   8.132
 9796WAT      O29629   1.316   1.394   9.258
 9796WAT     H129630   1.352   1.448   9.182
 9796WAT     H229631   1.263   1.453   9.319
 9797WAT      O29632   1.273   3.781   7.266
 9797WAT     H129633   1.209   3.848   7.229
 9797WAT     H229634   1.366   3.818   7.262
 9798WAT      O29635   5.136   2.701   8.625
 9798WAT     H129636   5.152   2.797   8.644
 9798WAT     H229637   5.103   2.655   8.707
 9799WAT      O29638   8.450   1.634   8.686
 9799WAT     H129639   8.480   1.716   8.638
 9799WAT     H229640   8.353   1.644   8.712
 9800WAT      O29641   3.912   5.528   1.976
 9800WAT     H129642   3.844   5.601   1.982
 9800WAT     H229643   3.992   5.552   2.032
 9801WAT      O29644   5.552   0.453   1.227
 9801WAT     H129645   5.500   0.376   1.263
 9801WAT     H229646   5.491   0.532   1.216
 9802WAT      O29647   1.485   5.903   7.472
 9802WAT     H129648   1.572   5.952   7.466
 9802WAT     H229649   1.468   5.855   7.385
 9803WAT      O29650   7.756   8.879   4.805
 9803WAT     H129651   7.841   8.835   4.833
 9803WAT     H229652   7.681   8.848   4.864
 9804WAT      O29653   9.043   4.485   1.728
 9804WAT     H129654   9.015   4.580   1.742
 9804WAT     H229655   8.971   4.437   1.677
 9805WAT      O29656   9.211   0.794   6.551
 9805WAT     H129657   9.118   0.781   6.584
 9805WAT     H229658   9.215   0.773   6.454
 9806WAT      O29659   4.798   2.960   3.530
 9806WAT     H129660   4.897   2.966   3.531
 9806WAT     H229661   4.770   2.875   3.485
 9807WAT      O29662   3.937   8.630   7.657
 9807WAT     H129663   4.008   8.647   7.589
 9807WAT     H229664   3.882   8.713   7.669
 9808WAT      O29665   6.196   2.400   0.703
 9808WAT     H129666   6.293   2.394   0.728
 9808WAT     H229667   6.186   2.455   0.620
 9809WAT      O29668   5.494   4.611   4.857
 9809WAT     H129669   5.420   4.664   4.899
 9809WAT     H229670   5.484   4.614   4.758
 9810WAT      O29671   8.168   7.680   5.063
 9810WAT     H129672   8.093   7.745   5.055
 9810WAT     H229673   8.213   7.692   5.152
 9811WAT      O29674   4.911   1.741   4.141
 9811WAT     H129675   4.961   1.786   4.066
 9811WAT     H229676   4.969   1.670   4.182
 9812WAT      O29677   1.966   5.856   3.730
 9812WAT     H129678   1.973   5.775   3.789
 9812WAT     H229679   1.903   5.837   3.655
 9813WAT      O29680   5.143   7.325   3.891
 9813WAT     H129681   5.175   7.304   3.798
 9813WAT     H229682   5.049   7.358   3.888
 9814WAT      O29683   9.575   8.007   6.173
 9814WAT     H129684   9.644   7.962   6.116
 9814WAT     H229685   9.617   8.037   6.259
 9815WAT      O29686   2.408   3.009   0.507
 9815WAT     H129687   2.375   3.034   0.598
 9815WAT     H229688   2.356   3.059   0.438
 9816WAT      O29689   6.502   1.021   4.275
 9816WAT     H129690   6.575   0.962   4.242
 9816WAT     H229691   6.414   0.989   4.241
 9817WAT      O29692   5.767   4.602   6.996
 9817WAT     H129693   5.841   4.644   7.048
 9817WAT     H229694   5.679   4.633   7.032
 9818WAT      O29695   8.916   1.275   1.244
 9818WAT     H129696   8.993   1.212   1.252
 9818WAT     H229697   8.936   1.342   1.172
 9819WAT      O29698   7.734   1.151   0.133
 9819WAT     H129699   7.748   1.181   0.039
 9819WAT     H229700   7.639   1.123   0.145
 9820WAT      O29701   0.447   5.560   0.644
 9820WAT     H129702   0.482   5.650   0.618
 9820WAT     H229703   0.349   5.566   0.661
 9821WAT      O29704   2.074   7.662   8.138
 9821WAT     H129705   1.980   7.630   8.125
 9821WAT     H229706   2.111   7.692   8.050
 9822WAT      O29707   7.667   0.797   9.837
 9822WAT     H129708   7.571   0.824   9.845
 9822WAT     H229709   7.693   0.794   9.741
 9823WAT      O29710   0.990   8.900   7.621
 9823WAT     H129711   0.985   8.800   7.622
 9823WAT     H229712   0.956   8.936   7.708
 9824WAT      O29713   1.897   8.992   4.167
 9824WAT     H129714   1.854   9.038   4.089
 9824WAT     H229715   1.908   9.057   4.242
 9825WAT      O29716   1.200   7.708   0.898
 9825WAT     H129717   1.204   7.619   0.944
 9825WAT     H229718   1.271   7.712   0.828
 9826WAT      O29719   2.728   6.028   7.804
 9826WAT     H129720   2.741   6.126   7.818
 9826WAT     H229721   2.811   5.989   7.763
 9827WAT      O29722   0.491   5.799   4.107
 9827WAT     H129723   0.411   5.738   4.106
 9827WAT     H229724   0.463   5.892   4.083
 9828WAT      O29725   0.640   2.828   4.598
 9828WAT     H129726   0.636   2.916   4.647
 9828WAT     H229727   0.646   2.754   4.664
 9829WAT      O29728   5.122   2.756   9.146
 9829WAT     H129729   5.081   2.806   9.222
 9829WAT     H229730   5.177   2.819   9.091
 9830WAT      O29731   4.598   8.320   9.524
 9830WAT     H129732   4.507   8.312   9.565
 9830WAT     H229733   4.666   8.279   9.584
 9831WAT      O29734   7.527   6.264   4.391
 9831WAT     H129735   7.614   6.219   4.369
 9831WAT     H229736   7.500   6.239   4.484
 9832WAT      O29737   0.333   0.751   4.560
 9832WAT     H129738   0.369   0.756   4.653
 9832WAT     H229739   0.270   0.673   4.552
 9833WAT      O29740   0.505   4.383   6.636
 9833WAT     H129741   0.419   4.435   6.635
 9833WAT     H229742   0.497   4.307   6.701
 9834WAT      O29743   7.950   5.455   2.208
 9834WAT     H129744   7.953   5.356   2.221
 9834WAT     H229745   7.995   5.479   2.122
 9835WAT      O29746   1.629   3.683   8.416
 9835WAT     H129747   1.611   3.623   8.494
 9835WAT     H229748   1.688   3.759   8.444
 9836WAT      O29749   2.927   3.987   2.692
 9836WAT     H129750   2.916   4.040   2.776
 9836WAT     H229751   3.009   4.019   2.643
 9837WAT      O29752   4.204   6.382   1.012
 9837WAT     H129753   4.251   6.306   0.968
 9837WAT     H229754   4.114   6.351   1.045
 9838WAT      O29755   2.034   6.476   1.715
 9838WAT     H129756   2.118   6.451   1.666
 9838WAT     H229757   2.028   6.576   1.722
 9839WAT      O29758   7.066   4.660   7.540
 9839WAT     H129759   6.970   4.684   7.554
 9839WAT     H229760   7.074   4.563   7.518
 9840WAT      O29761   0.766   4.615   2.519
 9840WAT     H129762   0.818   4.697   2.494
 9840WAT     H229763   0.695   4.639   2.585
 9841WAT      O29764   2.980   0.821   6.354
 9841WAT     H129765   2.941   0.742   6.307
 9841WAT     H229766   3.048   0.864   6.296
 9842WAT      O29767   2.391   2.440   0.467
 9842WAT     H129768   2.385   2.484   0.556
 9842WAT     H229769   2.477   2.465   0.422
 9843WAT      O29770   6.252   4.573   0.412
 9843WAT     H129771   6.173   4.546   0.467
 9843WAT     H229772   6.265   4.672   0.420
 9844WAT      O29773   5.365   7.266   3.093
 9844WAT     H129774   5.276   7.224   3.111
 9844WAT     H229775   5.418   7.268   3.177
 9845WAT      O29776   2.125   1.228   5.558
 9845WAT     H129777   2.160   1.203   5.468
 9845WAT     H229778   2.159   1.318   5.584
 9846WAT      O29779   8.662   3.099   8.722
 9846WAT     H129780   8.650   3.103   8.821
 9846WAT     H229781   8.730   3.028   8.700
 9847WAT      O29782   6.615   6.876   1.499
 9847WAT     H129783   6.590   6.806   1.433
 9847WAT     H229784   6.587   6.966   1.465
 9848WAT      O29785   6.838   0.052   7.005
 9848WAT     H129786   6.784  -0.030   6.982
 9848WAT     H229787   6.901   0.072   6.930
 9849WAT      O29788   5.191   8.384   5.502
 9849WAT     H129789   5.122   8.413   5.569
 9849WAT     H229790   5.281   8.382   5.545
 9850WAT      O29791   9.675   3.768   1.429
 9850WAT     H129792   9.751   3.756   1.492
 9850WAT     H229793   9.709   3.793   1.338
 9851WAT      O29794   3.239   2.716   7.532
 9851WAT     H129795   3.293   2.635   7.554
 9851WAT     H229796   3.250   2.737   7.435
 9852WAT      O29797   3.980   0.831   4.476
 9852WAT     H129798   3.924   0.786   4.546
 9852WAT     H229799   4.047   0.890   4.521
 9853WAT      O29800   6.133   7.447   8.383
 9853WAT     H129801   6.141   7.397   8.297
 9853WAT     H229802   6.041   7.485   8.392
 9854WAT      O29803   7.776   0.566   3.618
 9854WAT     H129804   7.745   0.618   3.698
 9854WAT     H229805   7.783   0.627   3.540
 9855WAT      O29806   8.848   6.123   5.025
 9855WAT     H129807   8.905   6.205   5.022
 9855WAT     H229808   8.766   6.141   5.080
 9856WAT      O29809   0.248   5.191   2.733
 9856WAT     H129810   0.175   5.251   2.764
 9856WAT     H229811   0.316   5.182   2.806
 9857WAT      O29812   7.433   3.649   7.473
 9857WAT     H129813   7.452   3.715   7.401
 9857WAT     H229814   7.383   3.695   7.547
 9858WAT      O29815   6.673   6.441   0.942
 9858WAT     H129816   6.709   6.398   1.024
 9858WAT     H229817   6.627   6.373   0.886
 9859WAT      O29818   0.389   0.677   0.565
 9859WAT     H129819   0.424   0.651   0.655
 9859WAT     H229820   0.388   0.597   0.505
 9860WAT      O29821   1.297   4.531   3.782
 9860WAT     H129822   1.198   4.547   3.785
 9860WAT     H229823   1.331   4.518   3.875
 9861WAT      O29824   8.099   0.723   1.395
 9861WAT     H129825   8.115   0.631   1.359
 9861WAT     H229826   8.106   0.790   1.321
 9862WAT      O29827   9.432   6.187   6.187
 9862WAT     H129828   9.387   6.181   6.276
 9862WAT     H229829   9.372   6.147   6.117
 9863WAT      O29830   0.793   4.190   3.298
 9863WAT     H129831   0.782   4.166   3.395
 9863WAT     H229832   0.787   4.108   3.242
 9864WAT      O29833   2.360   5.903   2.085
 9864WAT     H129834   2.261   5.896   2.073
 9864WAT     H229835   2.399   5.956   2.010
 9865WAT      O29836   5.279   6.643   6.941
 9865WAT     H129837   5.181   6.647   6.925
 9865WAT     H229838   5.312   6.731   6.974
 9866WAT      O29839   2.197   1.972   3.674
 9866WAT     H129840   2.212   1.892   3.731
 9866WAT     H229841   2.278   1.991   3.620
 9867WAT      O29842   4.946   3.806   8.407
 9867WAT     H129843   4.976   3.885   8.353
 9867WAT     H229844   5.015   3.733   8.401
 9868WAT      O29845   8.138   2.806   9.647
 9868WAT     H129846   8.154   2.875   9.717
 9868WAT     H229847   8.221   2.794   9.593
 9869WAT      O29848   1.526   5.823   3.775
 9869WAT     H129849   1.544   5.873   3.691
 9869WAT     H229850   1.539   5.725   3.759
 9870WAT      O29851   7.392   1.175   4.860
 9870WAT     H129852   7.384   1.238   4.938
 9870WAT     H229853   7.419   1.227   4.779
 9871WAT      O29854   6.328   3.807   9.532
 9871WAT     H129855   6.343   3.741   9.458
 9871WAT     H229856   6.279   3.886   9.495
 9872WAT      O29857   8.725   4.333   0.476
 9872WAT     H129858   8.634   4.359   0.444
 9872WAT     H229859   8.786   4.322   0.398
 9873WAT      O29860   8.578   4.690   0.264
 9873WAT     H129861   8.649   4.752   0.298
 9873WAT     H229862   8.621   4.608   0.226
 9874WAT      O29863   5.204   2.825   1.660
 9874WAT     H129864   5.223   2.830   1.758
 9874WAT     H229865   5.223   2.913   1.618
 9875WAT      O29866   1.636   0.578   3.403
 9875WAT     H129867   1.710   0.642   3.385
 9875WAT     H229868   1.568   0.584   3.330
 9876WAT      O29869   0.157   5.868   6.826
 9876WAT     H129870   0.240   5.919   6.847
 9876WAT     H229871   0.129   5.888   6.732
 9877WAT      O29872   0.949   5.332   5.607
 9877WAT     H129873   0.893   5.250   5.597
 9877WAT     H229874   1.043   5.311   5.580
 9878WAT      O29875   3.386   1.812   2.948
 9878WAT     H129876   3.392   1.776   3.041
 9878WAT     H229877   3.396   1.737   2.883
 9879WAT      O29878   8.466   3.262   8.162
 9879WAT     H129879   8.380   3.309   8.182
 9879WAT     H229880   8.491   3.204   8.239
 9880WAT      O29881   3.205   7.601   6.364
 9880WAT     H129882   3.128   7.659   6.389
 9880WAT     H229883   3.287   7.657   6.352
 9881WAT      O29884   3.347   8.337   6.663
 9881WAT     H129885   3.250   8.338   6.689
 9881WAT     H229886   3.391   8.257   6.704
 9882WAT      O29887   8.091   6.738   3.482
 9882WAT     H129888   8.142   6.655   3.460
 9882WAT     H229889   8.149   6.818   3.470
 9883WAT      O29890   3.915   5.099   1.705
 9883WAT     H129891   3.884   5.033   1.774
 9883WAT     H229892   3.954   5.179   1.751
 9884WAT      O29893   6.098   4.623   6.404
 9884WAT     H129894   6.128   4.699   6.346
 9884WAT     H229895   6.173   4.558   6.416
 9885WAT      O29896   5.486   6.302   2.701
 9885WAT     H129897   5.452   6.238   2.632
 9885WAT     H229898   5.434   6.290   2.786
 9886WAT      O29899   6.975   7.959   6.609
 9886WAT     H129900   7.023   8.038   6.647
 9886WAT     H229901   7.038   7.906   6.552
 9887WAT      O29902   2.267   2.986   3.592
 9887WAT     H129903   2.281   3.034   3.678
 9887WAT     H229904   2.299   2.891   3.601
 9888WAT      O29905   9.238   3.100   5.820
 9888WAT     H129906   9.334   3.099   5.845
 9888WAT     H229907   9.185   3.049   5.888
 9889WAT      O29908   3.597   6.963   5.190
 9889WAT     H129909   3.572   7.048   5.143
 9889WAT     H229910   3.552   6.886   5.146
 9890WAT      O29911   9.608   9.208   7.054
 9890WAT     H129912   9.593   9.205   6.955
 9890WAT     H229913   9.534   9.157   7.099
 9891WAT      O29914   2.827   5.560   4.148
 9891WAT     H129915   2.802   5.651   4.179
 9891WAT     H229916   2.798   5.548   4.053
 9892WAT      O29917   5.699   4.687   4.302
 9892WAT     H129918   5.634   4.758   4.274
 9892WAT     H229919   5.693   4.673   4.401
 9893WAT      O29920   8.370   8.596   6.445
 9893WAT     H129921   8.362   8.559   6.352
 9893WAT     H229922   8.466   8.613   6.466
 9894WAT      O29923   1.143   2.368   3.712
 9894WAT     H129924   1.188   2.320   3.637
 9894WAT     H229925   1.160   2.466   3.704
 9895WAT      O29926   1.471   8.915   0.777
 9895WAT     H129927   1.372   8.920   0.794
 9895WAT     H229928   1.515   8.863   0.850
 9896WAT      O29929   4.818   4.305   7.777
 9896WAT     H129930   4.735   4.249   7.768
 9896WAT     H229931   4.863   4.312   7.688
 9897WAT      O29932   9.487   1.162   4.202
 9897WAT     H129933   9.495   1.095   4.129
 9897WAT     H229934   9.511   1.253   4.168
 9898WAT      O29935   3.195   3.346   7.389
 9898WAT     H129936   3.232   3.254   7.375
 9898WAT     H229937   3.134   3.345   7.468
 9899WAT      O29938   5.372   0.677   9.560
 9899WAT     H129939   5.330   0.733   9.489
 9899WAT     H229940   5.461   0.644   9.528
 9900WAT      O29941   1.615   4.752   6.913
 9900WAT     H129942   1.558   4.797   6.845
 9900WAT     H229943   1.661   4.673   6.871
 9901WAT      O29944   8.460   6.982   7.087
 9901WAT     H129945   8.537   7.038   7.116
 9901WAT     H229946   8.483   6.885   7.098
 9902WAT      O29947   4.234   1.457   8.014
 9902WAT     H129948   4.295   1.536   8.013
 9902WAT     H229949   4.288   1.373   8.028
 9903WAT      O29950   7.747   6.913   8.588
 9903WAT     H129951   7.661   6.913   8.639
 9903WAT     H229952   7.739   6.853   8.508
 9904WAT      O29953   3.780   3.543   1.983
 9904WAT     H129954   3.696   3.578   2.024
 9904WAT     H229955   3.763   3.453   1.942
 9905WAT      O29956   9.846   8.351   4.370
 9905WAT     H129957   9.846   8.449   4.350
 9905WAT     H229958   9.936   8.325   4.405
 9906WAT      O29959   2.578   7.731   2.112
 9906WAT     H129960   2.525   7.810   2.082
 9906WAT     H229961   2.549   7.704   2.204
 9907WAT      O29962   2.195   0.553   9.507
 9907WAT     H129963   2.143   0.532   9.424
 9907WAT     H229964   2.223   0.467   9.551
 9908WAT      O29965   0.890   7.478   2.876
 9908WAT     H129966   0.851   7.411   2.939
 9908WAT     H229967   0.981   7.448   2.848
 9909WAT      O29968   1.387   0.162   3.239
 9909WAT     H129969   1.402   0.077   3.187
 9909WAT     H229970   1.289   0.179   3.248
 9910WAT      O29971   7.778   3.367   1.486
 9910WAT     H129972   7.686   3.332   1.503
 9910WAT     H229973   7.829   3.301   1.430
 9911WAT      O29974   7.901   5.615   7.061
 9911WAT     H129975   7.873   5.592   7.154
 9911WAT     H229976   7.887   5.537   7.001
 9912WAT      O29977   2.086   9.009   0.320
 9912WAT     H129978   2.036   8.930   0.284
 9912WAT     H229979   2.158   9.035   0.256
 9913WAT      O29980   4.037   2.930   7.283
 9913WAT     H129981   4.100   2.921   7.360
 9913WAT     H229982   4.084   2.906   7.198
 9914WAT      O29983   4.641   4.764   4.603
 9914WAT     H129984   4.657   4.846   4.548
 9914WAT     H229985   4.729   4.720   4.623
 9915WAT      O29986   1.663   0.259   1.675
 9915WAT     H129987   1.715   0.289   1.596
 9915WAT     H229988   1.568   0.239   1.648
 9916WAT      O29989   9.089   7.078   6.000
 9916WAT     H129990   8.990   7.062   5.995
 9916WAT     H229991   9.137   6.993   5.979
 9917WAT      O29992   6.009   2.014   2.499
 9917WAT     H129993   6.025   2.081   2.572
 9917WAT     H229994   6.050   1.926   2.526
 9918WAT      O29995   5.731   2.873   9.153
 9918WAT     H129996   5.670   2.872   9.232
 9918WAT     H229997   5.815   2.822   9.175
 9919WAT      O29998   2.469   7.968   9.672
 9919WAT     H129999   2.560   8.006   9.685
 9919WAT     H230000   2.428   7.947   9.762
 9920WAT      O30001   1.167   9.208   0.743
 9920WAT     H130002   1.249   9.235   0.794
 9920WAT     H230003   1.166   9.109   0.730
 9921WAT      O30004   8.928   8.677   5.168
 9921WAT     H130005   8.869   8.665   5.087
 9921WAT     H230006   8.885   8.741   5.231
 9922WAT      O30007   3.416   9.103   4.748
 9922WAT     H130008   3.508   9.065   4.756
 9922WAT     H230009   3.418   9.200   4.772
 9923WAT      O30010   6.131   3.040   8.579
 9923WAT     H130011   6.217   3.028   8.529
 9923WAT     H230012   6.148   3.092   8.662
 9924WAT      O30013   2.822   5.260   3.282
 9924WAT     H130014   2.839   5.266   3.183
 9924WAT     H230015   2.900   5.299   3.331
 9925WAT      O30016   7.669   5.942   2.758
 9925WAT     H130017   7.703   6.005   2.688
 9925WAT     H230018   7.577   5.970   2.787
 9926WAT      O30019   2.016   4.683   5.273
 9926WAT     H130020   1.925   4.682   5.230
 9926WAT     H230021   2.086   4.688   5.203
 9927WAT      O30022   1.524   1.516   7.089
 9927WAT     H130023   1.456   1.449   7.057
 9927WAT     H230024   1.478   1.600   7.118
 9928WAT      O30025   1.381   7.481   0.537
 9928WAT     H130026   1.306   7.541   0.508
 9928WAT     H230027   1.457   7.490   0.473
 9929WAT      O30028   5.350   2.533   1.810
 9929WAT     H130029   5.347   2.615   1.753
 9929WAT     H230030   5.260   2.488   1.808
 9930WAT      O30031   8.393   2.990   3.114
 9930WAT     H130032   8.324   2.927   3.079
 9930WAT     H230033   8.466   3.000   3.046
 9931WAT      O30034   3.322   7.744   3.050
 9931WAT     H130035   3.277   7.816   3.102
 9931WAT     H230036   3.328   7.771   2.954
 9932WAT      O30037   3.801   6.142   9.638
 9932WAT     H130038   3.787   6.230   9.684
 9932WAT     H230039   3.786   6.153   9.540
 9933WAT      O30040   8.764   0.514   3.414
 9933WAT     H130041   8.695   0.587   3.413
 9933WAT     H230042   8.829   0.529   3.339
 9934WAT      O30043   4.017   1.567   0.586
 9934WAT     H130044   4.109   1.561   0.546
 9934WAT     H230045   3.973   1.651   0.557
 9935WAT      O30046   8.905   5.803   0.933
 9935WAT     H130047   9.003   5.798   0.914
 9935WAT     H230048   8.885   5.756   1.019
 9936WAT      O30049   1.740   8.526   9.861
 9936WAT     H130050   1.789   8.484   9.937
 9936WAT     H230051   1.767   8.622   9.854
 9937WAT      O30052   3.856   3.105   3.021
 9937WAT     H130053   3.917   3.037   2.982
 9937WAT     H230054   3.846   3.089   3.120
 9938WAT      O30055   5.961   6.767   0.944
 9938WAT     H130056   5.973   6.846   1.004
 9938WAT     H230057   5.981   6.793   0.850
 9939WAT      O30058   4.130   5.552   7.065
 9939WAT     H130059   4.074   5.635   7.060
 9939WAT     H230060   4.166   5.542   7.157
 9940WAT      O30061   2.341   3.924   4.750
 9940WAT     H130062   2.388   3.947   4.665
 9940WAT     H230063   2.275   3.851   4.733
 9941WAT      O30064   9.228   1.106   1.935
 9941WAT     H130065   9.319   1.135   1.908
 9941WAT     H230066   9.171   1.093   1.854
 9942WAT      O30067   5.261   7.972   0.815
 9942WAT     H130068   5.172   8.017   0.807
 9942WAT     H230069   5.250   7.873   0.808
 9943WAT      O30070   7.242   8.671   0.313
 9943WAT     H130071   7.208   8.700   0.402
 9943WAT     H230072   7.231   8.747   0.248
 9944WAT      O30073   9.473   1.419   5.017
 9944WAT     H130074   9.546   1.350   5.016
 9944WAT     H230075   9.514   1.510   5.017
 9945WAT      O30076   2.274   2.392   0.195
 9945WAT     H130077   2.318   2.384   0.284
 9945WAT     H230078   2.258   2.489   0.175
 9946WAT      O30079   7.058   1.871   5.806
 9946WAT     H130080   7.146   1.873   5.760
 9946WAT     H230081   6.999   1.802   5.763
 9947WAT      O30082   0.667   1.201   4.179
 9947WAT     H130083   0.573   1.192   4.146
 9947WAT     H230084   0.675   1.155   4.268
 9948WAT      O30085   4.852   9.713   4.445
 9948WAT     H130086   4.767   9.695   4.395
 9948WAT     H230087   4.880   9.808   4.430
 9949WAT      O30088   3.968   7.189   4.383
 9949WAT     H130089   3.920   7.258   4.438
 9949WAT     H230090   3.909   7.108   4.372
 9950WAT      O30091   8.096   1.172   3.132
 9950WAT     H130092   8.101   1.272   3.132
 9950WAT     H230093   8.114   1.138   3.224
 9951WAT      O30094   4.620   9.475   9.111
 9951WAT     H130095   4.552   9.543   9.082
 9951WAT     H230096   4.587   9.383   9.090
 9952WAT      O30097   9.364   1.231   9.863
 9952WAT     H130098   9.267   1.222   9.840
 9952WAT     H230099   9.401   1.312   9.818
 9953WAT      O30100   8.587   6.119   9.146
 9953WAT     H130101   8.519   6.046   9.135
 9953WAT     H230102   8.667   6.098   9.089
 9954WAT      O30103   3.048   0.520   9.630
 9954WAT     H130104   3.011   0.526   9.537
 9954WAT     H230105   3.063   0.612   9.665
 9955WAT      O30106   2.597   0.408   1.458
 9955WAT     H130107   2.539   0.489   1.463
 9955WAT     H230108   2.585   0.352   1.540
 9956WAT      O30109   8.492   3.988   6.286
 9956WAT     H130110   8.485   4.043   6.202
 9956WAT     H230111   8.404   3.947   6.306
 9957WAT      O30112   8.559   5.116   6.366
 9957WAT     H130113   8.506   5.168   6.433
 9957WAT     H230114   8.497   5.060   6.311
 9958WAT      O30115   4.270   6.645   1.880
 9958WAT     H130116   4.182   6.599   1.892
 9958WAT     H230117   4.323   6.637   1.965
 9959WAT      O30118   3.699   0.351   7.637
 9959WAT     H130119   3.715   0.269   7.582
 9959WAT     H230120   3.742   0.430   7.593
 9960WAT      O30121   3.286   7.177   3.682
 9960WAT     H130122   3.310   7.157   3.777
 9960WAT     H230123   3.245   7.096   3.641
 9961WAT      O30124   7.540   4.577   6.054
 9961WAT     H130125   7.485   4.587   6.137
 9961WAT     H230126   7.496   4.624   5.978
 9962WAT      O30127   5.620   6.589   4.989
 9962WAT     H130128   5.660   6.567   5.078
 9962WAT     H230129   5.649   6.522   4.921
 9963WAT      O30130   2.993   2.276   1.054
 9963WAT     H130131   3.025   2.314   1.141
 9963WAT     H230132   2.973   2.351   0.991
 9964WAT      O30133   0.966   6.690   4.056
 9964WAT     H130134   0.880   6.739   4.068
 9964WAT     H230135   0.951   6.592   4.068
 9965WAT      O30136   0.973   1.887   0.013
 9965WAT     H130137   1.030   1.885  -0.069
 9965WAT     H230138   1.022   1.936   0.086
 9966WAT      O30139   8.483   3.363   7.804
 9966WAT     H130140   8.542   3.287   7.779
 9966WAT     H230141   8.396   3.355   7.755
 9967WAT      O30142   0.471   3.876   6.679
 9967WAT     H130143   0.464   3.871   6.580
 9967WAT     H230144   0.567   3.866   6.706
 9968WAT      O30145   9.329   0.649   7.964
 9968WAT     H130146   9.337   0.715   7.890
 9968WAT     H230147   9.387   0.678   8.041
 9969WAT      O30148   3.365   3.821   7.608
 9969WAT     H130149   3.447   3.789   7.561
 9969WAT     H230150   3.383   3.826   7.707
 9970WAT      O30151   6.932   7.515   8.464
 9970WAT     H130152   6.970   7.439   8.411
 9970WAT     H230153   6.903   7.481   8.554
 9971WAT      O30154   1.741   1.758   9.758
 9971WAT     H130155   1.667   1.824   9.753
 9971WAT     H230156   1.733   1.693   9.682
 9972WAT      O30157   7.846   7.084   3.948
 9972WAT     H130158   7.809   7.067   4.039
 9972WAT     H230159   7.927   7.026   3.934
 9973WAT      O30160   1.095   7.915   9.320
 9973WAT     H130161   1.072   7.832   9.269
 9973WAT     H230162   1.035   7.922   9.400
 9974WAT      O30163   2.189   4.429   1.033
 9974WAT     H130164   2.268   4.429   0.971
 9974WAT     H230165   2.143   4.341   1.028
 9975WAT      O30166   2.179   9.189   1.287
 9975WAT     H130167   2.211   9.182   1.381
 9975WAT     H230168   2.210   9.109   1.236
 9976WAT      O30169   4.093   4.844   8.552
 9976WAT     H130170   4.020   4.788   8.590
 9976WAT     H230171   4.070   4.941   8.565
 9977WAT      O30172   6.106   8.264   6.254
 9977WAT     H130173   6.069   8.309   6.335
 9977WAT     H230174   6.085   8.320   6.173
 9978WAT      O30175   7.256   3.687   8.173
 9978WAT     H130176   7.189   3.627   8.217
 9978WAT     H230177   7.345   3.641   8.170
 9979WAT      O30178   3.050   1.921   9.241
 9979WAT     H130179   3.149   1.929   9.256
 9979WAT     H230180   3.033   1.901   9.144
 9980WAT      O30181   7.051   6.544   9.780
 9980WAT     H130182   7.044   6.450   9.747
 9980WAT     H230183   7.039   6.546   9.880
 9981WAT      O30184   4.872   2.590   9.117
 9981WAT     H130185   4.817   2.605   9.199
 9981WAT     H230186   4.964   2.627   9.131
 9982WAT      O30187   8.421   2.774   8.421
 9982WAT     H130188   8.366   2.826   8.486
 9982WAT     H230189   8.516   2.772   8.452
 9983WAT      O30190   5.593   2.570   6.245
 9983WAT     H130191   5.494   2.558   6.240
 9983WAT     H230192   5.630   2.511   6.317
 9984WAT      O30193   0.208   7.931   1.819
 9984WAT     H130194   0.266   8.008   1.846
 9984WAT     H230195   0.254   7.845   1.839
 9985WAT      O30196   3.366   4.825   4.751
 9985WAT     H130197   3.382   4.842   4.848
 9985WAT     H230198   3.402   4.901   4.697
 9986WAT      O30199   1.768   0.765   4.997
 9986WAT     H130200   1.862   0.777   4.964
 9986WAT     H230201   1.734   0.676   4.967
 9987WAT      O30202   6.521   1.370   6.537
 9987WAT     H130203   6.498   1.400   6.629
 9987WAT     H230204   6.448   1.397   6.474
 9988WAT      O30205   9.448   0.015   4.908
 9988WAT     H130206   9.472   0.032   4.813
 9988WAT     H230207   9.396   0.092   4.944
 9989WAT      O30208   8.868   9.148   6.661
 9989WAT     H130209   8.883   9.071   6.598
 9989WAT     H230210   8.884   9.118   6.755
 9990WAT      O30211   7.602   5.101   4.461
 9990WAT     H130212   7.603   5.106   4.361
 9990WAT     H230213   7.693   5.120   4.496
 9991WAT      O30214   9.642   7.464   2.060
 9991WAT     H130215   9.655   7.558   2.093
 9991WAT     H230216   9.584   7.466   1.979
 9992WAT      O30217   6.386   4.352   7.168
 9992WAT     H130218   6.436   4.298   7.101
 9992WAT     H230219   6.310   4.400   7.124
 9993WAT      O30220   7.908   1.514   0.233
 9993WAT     H130221   7.900   1.415   0.240
 9993WAT     H230222   7.874   1.544   0.144
 9994WAT      O30223   9.240   8.204   3.773
 9994WAT     H130224   9.277   8.202   3.866
 9994WAT     H230225   9.303   8.156   3.711
 9995WAT      O30226   1.629   9.473   5.025
 9995WAT     H130227   1.653   9.393   4.970
 9995WAT     H230228   1.616   9.552   4.965
 9996WAT      O30229   5.346   2.031   1.208
 9996WAT     H130230   5.370   2.013   1.113
 9996WAT     H230231   5.302   1.950   1.247
 9997WAT      O30232   3.845   6.349   3.100
 9997WAT     H130233   3.765   6.292   3.117
 9997WAT     H230234   3.835   6.437   3.147
 9998WAT      O30235   8.710   2.968   2.253
 9998WAT     H130236   8.629   2.932   2.299
 9998WAT     H230237   8.731   2.912   2.173
 9999WAT      O30238   2.842   8.803   7.196
 9999WAT     H130239   2.807   8.865   7.266
 9999WAT     H230240   2.766   8.751   7.156
10000WAT      O30241   3.557   3.902   0.074
10000WAT     H130242   3.533   3.995   0.045
10000WAT     H230243   3.568   3.899   0.173
10001WAT      O30244   7.090   9.790   0.586
10001WAT     H130245   7.067   9.697   0.615
10001WAT     H230246   7.154   9.830   0.652
10002WAT      O30247   3.873   0.701   0.042
10002WAT     H130248   3.885   0.757   0.124
10002WAT     H230249   3.957   0.702  -0.013
10003WAT      O30250   9.389   1.860   3.948
10003WAT     H130251   9.298   1.849   3.990
10003WAT     H230252   9.384   1.834   3.851
10004WAT      O30253   7.956   1.876   0.884
10004WAT     H130254   7.973   1.915   0.975
10004WAT     H230255   7.859   1.857   0.874
10005WAT      O30256   7.121   4.142   1.116
10005WAT     H130257   7.215   4.177   1.120
10005WAT     H230258   7.110   4.068   1.181
10006WAT      O30259   7.144   1.618   6.178
10006WAT     H130260   7.157   1.714   6.156
10006WAT     H230261   7.228   1.567   6.156
10007WAT      O30262   0.486   1.049   1.372
10007WAT     H130263   0.451   0.999   1.293
10007WAT     H230264   0.415   1.053   1.443
10008WAT      O30265   2.361   2.436   3.617
10008WAT     H130266   2.262   2.424   3.631
10008WAT     H230267   2.405   2.455   3.704
10009WAT      O30268   6.876   9.723   7.390
10009WAT     H130269   6.879   9.666   7.473
10009WAT     H230270   6.968   9.752   7.366
10010WAT      O30271   3.243   1.755   5.811
10010WAT     H130272   3.151   1.764   5.849
10010WAT     H230273   3.298   1.834   5.836
10011WAT      O30274   1.026   7.765   9.669
10011WAT     H130275   1.125   7.772   9.684
10011WAT     H230276   1.007   7.686   9.611
10012WAT      O30277   4.533   5.265   8.588
10012WAT     H130278   4.607   5.197   8.593
10012WAT     H230279   4.445   5.219   8.599
10013WAT      O30280   6.846   2.754   5.933
10013WAT     H130281   6.879   2.697   5.858
10013WAT     H230282   6.791   2.698   5.995
10014WAT      O30283   0.244   6.780   1.669
10014WAT     H130284   0.238   6.691   1.624
10014WAT     H230285   0.233   6.768   1.768
10015WAT      O30286   7.198   5.414   5.029
10015WAT     H130287   7.172   5.467   4.948
10015WAT     H230288   7.253   5.471   5.090
10016WAT      O30289   4.934   5.430   9.489
10016WAT     H130290   4.902   5.337   9.472
10016WAT     H230291   4.994   5.459   9.414
10017WAT      O30292   8.504   0.896   1.450
10017WAT     H130293   8.569   0.873   1.522
10017WAT     H230294   8.463   0.985   1.468
10018WAT      O30295   1.346   1.168   1.524
10018WAT     H130296   1.409   1.226   1.575
10018WAT     H230297   1.336   1.080   1.571
10019WAT      O30298   5.573   5.074   1.366
10019WAT     H130299   5.576   4.998   1.300
10019WAT     H230300   5.630   5.053   1.445
10020WAT      O30301   4.560   4.070   4.373
10020WAT     H130302   4.461   4.081   4.376
10020WAT     H230303   4.600   4.145   4.320
10021WAT      O30304   0.387   5.347   9.425
10021WAT     H130305   0.356   5.441   9.432
10021WAT     H230306   0.315   5.291   9.382
10022WAT      O30307   9.858   2.915   5.454
10022WAT     H130308   9.771   2.880   5.420
10022WAT     H230309   9.906   2.963   5.381
10023WAT      O30310   9.840   3.851   6.594
10023WAT     H130311   9.860   3.949   6.583
10023WAT     H230312   9.850   3.826   6.690
10024WAT      O30313   3.942   8.560   3.887
10024WAT     H130314   3.845   8.569   3.906
10024WAT     H230315   3.956   8.550   3.789
10025WAT      O30316   1.971   1.901   5.373
10025WAT     H130317   1.930   1.887   5.463
10025WAT     H230318   2.000   1.813   5.336
10026WAT      O30319   8.825   4.202   7.372
10026WAT     H130320   8.782   4.276   7.322
10026WAT     H230321   8.922   4.198   7.349
10027WAT      O30322   6.592   8.760   0.360
10027WAT     H130323   6.637   8.675   0.332
10027WAT     H230324   6.494   8.743   0.374
10028WAT      O30325   6.971   3.535   5.498
10028WAT     H130326   7.040   3.590   5.450
10028WAT     H230327   6.983   3.548   5.597
10029WAT      O30328   6.589   6.962   4.288
10029WAT     H130329   6.581   7.000   4.380
10029WAT     H230330   6.589   6.862   4.293
10030WAT      O30331   3.562   0.019   2.945
10030WAT     H130332   3.495  -0.014   2.878
10030WAT     H230333   3.553  -0.033   3.029
10031WAT      O30334   4.024   3.836   4.995
10031WAT     H130335   4.086   3.758   4.979
10031WAT     H230336   4.056   3.915   4.942
10032WAT      O30337   9.487   1.431   2.256
10032WAT     H130338   9.434   1.347   2.268
10032WAT     H230339   9.522   1.461   2.345
10033WAT      O30340   2.162   5.989   3.599
10033WAT     H130341   2.253   5.972   3.635
10033WAT     H230342   2.094   5.945   3.658
10034WAT      O30343   5.923   2.821   7.979
10034WAT     H130344   6.004   2.773   8.013
10034WAT     H230345   5.843   2.790   8.030
10035WAT      O30346   3.134   3.296   9.151
10035WAT     H130347   3.043   3.267   9.181
10035WAT     H230348   3.125   3.359   9.074
10036WAT      O30349   6.811   2.200   4.518
10036WAT     H130350   6.821   2.287   4.469
10036WAT     H230351   6.721   2.195   4.561
10037WAT      O30352   8.522   7.856   2.780
10037WAT     H130353   8.477   7.855   2.691
10037WAT     H230354   8.596   7.922   2.780
10038WAT      O30355   0.110   9.071   1.596
10038WAT     H130356   0.201   9.052   1.560
10038WAT     H230357   0.043   9.064   1.522
10039WAT      O30358   6.791   4.149   4.882
10039WAT     H130359   6.740   4.119   4.802
10039WAT     H230360   6.858   4.080   4.908
10040WAT      O30361   5.833   9.417   7.282
10040WAT     H130362   5.931   9.412   7.302
10040WAT     H230363   5.783   9.448   7.363
10041WAT      O30364   2.503   1.612   0.837
10041WAT     H130365   2.419   1.644   0.882
10041WAT     H230366   2.490   1.518   0.805
10042WAT      O30367   9.663   2.401   1.909
10042WAT     H130368   9.629   2.406   1.816
10042WAT     H230369   9.587   2.404   1.973
10043WAT      O30370   1.029   4.771   9.572
10043WAT     H130371   1.071   4.712   9.503
10043WAT     H230372   0.935   4.792   9.545
10044WAT      O30373   3.991   3.078   2.645
10044WAT     H130374   3.937   3.158   2.671
10044WAT     H230375   3.985   3.064   2.547
10045WAT      O30376   5.260   1.731   8.355
10045WAT     H130377   5.346   1.780   8.342
10045WAT     H230378   5.223   1.751   8.446
10046WAT      O30379   5.577   6.194   6.946
10046WAT     H130380   5.675   6.202   6.959
10046WAT     H230381   5.536   6.285   6.940
10047WAT      O30382   1.206   3.836   1.373
10047WAT     H130383   1.205   3.849   1.473
10047WAT     H230384   1.155   3.910   1.329
10048WAT      O30385   3.979   4.050   5.177
10048WAT     H130386   3.988   3.969   5.119
10048WAT     H230387   3.889   4.092   5.163
10049WAT      O30388   0.720   6.325   8.332
10049WAT     H130389   0.656   6.379   8.277
10049WAT     H230390   0.688   6.322   8.426
10050WAT      O30391   6.505   3.466   2.092
10050WAT     H130392   6.504   3.530   2.169
10050WAT     H230393   6.560   3.504   2.018
10051WAT      O30394   4.152   1.887   6.976
10051WAT     H130395   4.158   1.987   6.978
10051WAT     H230396   4.244   1.848   6.968
10052WAT      O30397   5.689   1.070   8.600
10052WAT     H130398   5.639   1.041   8.682
10052WAT     H230399   5.761   1.004   8.580
10053WAT      O30400   4.245   7.423   9.436
10053WAT     H130401   4.186   7.503   9.449
10053WAT     H230402   4.191   7.346   9.403
10054WAT      O30403   2.448   8.080   8.629
10054WAT     H130404   2.516   8.057   8.698
10054WAT     H230405   2.491   8.081   8.539
10055WAT      O30406   2.963   5.666   0.545
10055WAT     H130407   2.901   5.736   0.581
10055WAT     H230408   2.935   5.641   0.453
10056WAT      O30409   4.332   6.709   8.705
10056WAT     H130410   4.281   6.740   8.785
10056WAT     H230411   4.358   6.614   8.717
10057WAT      O30412   9.748   2.891   6.692
10057WAT     H130413   9.817   2.926   6.756
10057WAT     H230414   9.743   2.792   6.700
10058WAT      O30415   3.349   1.493   1.228
10058WAT     H130416   3.332   1.395   1.240
10058WAT     H230417   3.405   1.506   1.146
10059WAT      O30418   6.893   4.855   9.018
10059WAT     H130419   6.886   4.813   8.928
10059WAT     H230420   6.970   4.814   9.068
10060WAT      O30421   4.348   8.512   7.233
10060WAT     H130422   4.349   8.422   7.190
10060WAT     H230423   4.333   8.502   7.331
10061WAT      O30424   1.288   8.655   2.920
10061WAT     H130425   1.212   8.678   2.980
10061WAT     H230426   1.335   8.739   2.892
10062WAT      O30427   5.911   0.307   1.329
10062WAT     H130428   5.832   0.327   1.387
10062WAT     H230429   5.965   0.233   1.370
10063WAT      O30430   5.645   3.634   2.290
10063WAT     H130431   5.560   3.598   2.328
10063WAT     H230432   5.694   3.686   2.360
10064WAT      O30433   1.995   5.692   9.764
10064WAT     H130434   2.080   5.735   9.794
10064WAT     H230435   1.986   5.700   9.665
10065WAT      O30436   4.158   1.805   1.281
10065WAT     H130437   4.151   1.905   1.287
10065WAT     H230438   4.124   1.765   1.366
10066WAT      O30439   0.957   2.904   8.990
10066WAT     H130440   0.976   2.974   9.059
10066WAT     H230441   0.920   2.822   9.035
10067WAT      O30442   7.161   8.084   6.314
10067WAT     H130443   7.183   8.003   6.368
10067WAT     H230444   7.090   8.137   6.361
10068WAT      O30445   6.801   4.755   3.421
10068WAT     H130446   6.798   4.691   3.498
10068WAT     H230447   6.895   4.785   3.405
10069WAT      O30448   6.842   3.976   8.498
10069WAT     H130449   6.811   3.899   8.554
10069WAT     H230450   6.770   4.045   8.495
10070WAT      O30451   2.964   3.051   3.794
10070WAT     H130452   2.983   3.107   3.714
10070WAT     H230453   3.023   3.081   3.870
10071WAT      O30454   9.814   7.060   5.111
10071WAT     H130455   9.887   7.000   5.142
10071WAT     H230456   9.786   7.035   5.019
10072WAT      O30457   6.402   0.415   0.684
10072WAT     H130458   6.354   0.340   0.730
10072WAT     H230459   6.374   0.418   0.588
10073WAT      O30460   1.322   2.695   6.544
10073WAT     H130461   1.362   2.672   6.633
10073WAT     H230462   1.388   2.674   6.471
10074WAT      O30463   4.582   7.085   0.478
10074WAT     H130464   4.534   7.086   0.566
10074WAT     H230465   4.624   7.175   0.463
10075WAT      O30466   5.749   9.382   4.076
10075WAT     H130467   5.695   9.358   3.995
10075WAT     H230468   5.689   9.421   4.146
10076WAT      O30469   5.659   2.352   1.322
10076WAT     H130470   5.701   2.353   1.231
10076WAT     H230471   5.652   2.445   1.357
10077WAT      O30472   3.640   2.731   3.386
10077WAT     H130473   3.687   2.819   3.381
10077WAT     H230474   3.655   2.690   3.476
10078WAT      O30475   7.661   7.635   0.980
10078WAT     H130476   7.613   7.670   1.060
10078WAT     H230477   7.598   7.578   0.926
10079WAT      O30478   2.088   2.406   3.623
10079WAT     H130479   2.048   2.465   3.693
10079WAT     H230480   2.026   2.330   3.604
10080WAT      O30481   6.262   7.306   2.078
10080WAT     H130482   6.299   7.213   2.075
10080WAT     H230483   6.168   7.303   2.111
10081WAT      O30484   1.265   5.862   9.567
10081WAT     H130485   1.296   5.789   9.505
10081WAT     H230486   1.345   5.906   9.607
10082WAT      O30487   8.794   0.660   1.453
10082WAT     H130488   8.765   0.713   1.533
10082WAT     H230489   8.855   0.587   1.481
10083WAT      O30490   2.396   0.894   3.141
10083WAT     H130491   2.310   0.843   3.148
10083WAT     H230492   2.376   0.989   3.116
10084WAT      O30493   7.554   9.513   2.590
10084WAT     H130494   7.615   9.439   2.562
10084WAT     H230495   7.482   9.525   2.521
10085WAT      O30496   9.107   9.559   8.079
10085WAT     H130497   9.117   9.506   8.163
10085WAT     H230498   9.035   9.517   8.023
10086WAT      O30499   5.634   9.226   7.943
10086WAT     H130500   5.551   9.279   7.959
10086WAT     H230501   5.632   9.143   7.998
10087WAT      O30502   5.656   7.146   0.755
10087WAT     H130503   5.666   7.235   0.799
10087WAT     H230504   5.561   7.115   0.766
10088WAT      O30505   2.108   3.718   7.852
10088WAT     H130506   2.152   3.773   7.780
10088WAT     H230507   2.173   3.651   7.887
10089WAT      O30508   7.111   0.108   8.391
10089WAT     H130509   7.078   0.027   8.439
10089WAT     H230510   7.042   0.180   8.395
10090WAT      O30511   5.852   2.511   0.561
10090WAT     H130512   5.807   2.568   0.631
10090WAT     H230513   5.839   2.552   0.471
10091WAT      O30514   3.643   1.911   4.717
10091WAT     H130515   3.662   1.880   4.810
10091WAT     H230516   3.558   1.868   4.685
10092WAT      O30517   6.228   4.428   6.612
10092WAT     H130518   6.210   4.524   6.635
10092WAT     H230519   6.142   4.383   6.589
10093WAT      O30520   5.941   0.063   5.864
10093WAT     H130521   5.963   0.056   5.962
10093WAT     H230522   5.977   0.149   5.829
10094WAT      O30523   0.664   0.965   7.375
10094WAT     H130524   0.659   0.952   7.474
10094WAT     H230525   0.758   0.950   7.345
10095WAT      O30526   1.967   4.012   5.170
10095WAT     H130527   2.023   3.934   5.200
10095WAT     H230528   1.998   4.043   5.080
10096WAT      O30529   7.874   2.996   8.892
10096WAT     H130530   7.912   3.086   8.914
10096WAT     H230531   7.944   2.926   8.902
10097WAT      O30532   6.915   2.923   2.791
10097WAT     H130533   6.932   2.979   2.710
10097WAT     H230534   6.818   2.926   2.814
10098WAT      O30535   9.867   0.518   9.608
10098WAT     H130536   9.817   0.599   9.580
10098WAT     H230537   9.805   0.439   9.609
10099WAT      O30538   3.253   6.854   8.628
10099WAT     H130539   3.271   6.900   8.542
10099WAT     H230540   3.328   6.791   8.649
10100WAT      O30541   5.270   2.348   0.909
10100WAT     H130542   5.193   2.287   0.925
10100WAT     H230543   5.322   2.316   0.830
10101WAT      O30544   3.837   6.653   4.147
10101WAT     H130545   3.932   6.642   4.178
10101WAT     H230546   3.778   6.671   4.225
10102WAT      O30547   8.276   2.773   2.660
10102WAT     H130548   8.372   2.801   2.673
10102WAT     H230549   8.222   2.853   2.634
10103WAT      O30550   8.998   0.915   6.859
10103WAT     H130551   8.923   0.896   6.795
10103WAT     H230552   9.075   0.954   6.809
10104WAT      O30553   7.121   5.890   0.097
10104WAT     H130554   7.219   5.871   0.085
10104WAT     H230555   7.098   5.975   0.050
10105WAT      O30556   4.057   5.856   3.266
10105WAT     H130557   4.072   5.765   3.306
10105WAT     H230558   4.098   5.859   3.175
10106WAT      O30559   9.773   5.611   0.719
10106WAT     H130560   9.767   5.522   0.674
10106WAT     H230561   9.741   5.604   0.813
10107WAT      O30562   1.850   5.333   0.032
10107WAT     H130563   1.823   5.401  -0.036
10107WAT     H230564   1.873   5.378   0.117
10108WAT      O30565   5.728   0.412   7.634
10108WAT     H130566   5.760   0.504   7.614
10108WAT     H230567   5.717   0.361   7.548
10109WAT      O30568   4.326   9.623   6.728
10109WAT     H130569   4.294   9.699   6.672
10109WAT     H230570   4.322   9.648   6.825
10110WAT      O30571   2.054   2.373   8.379
10110WAT     H130572   2.145   2.414   8.372
10110WAT     H230573   1.993   2.416   8.312
10111WAT      O30574   1.700   6.590   8.068
10111WAT     H130575   1.697   6.492   8.088
10111WAT     H230576   1.772   6.608   8.002
10112WAT      O30577   7.413   9.078   9.094
10112WAT     H130578   7.380   9.014   9.025
10112WAT     H230579   7.444   9.028   9.175
10113WAT      O30580   2.862   6.850   0.717
10113WAT     H130581   2.852   6.860   0.816
10113WAT     H230582   2.829   6.933   0.671
10114WAT      O30583   2.905   9.672   0.072
10114WAT     H130584   2.905   9.631   0.163
10114WAT     H230585   2.996   9.664   0.031
10115WAT      O30586   5.810   8.824   6.606
10115WAT     H130587   5.806   8.885   6.685
10115WAT     H230588   5.717   8.801   6.577
10116WAT      O30589   8.535   7.099   5.098
10116WAT     H130590   8.448   7.053   5.086
10116WAT     H230591   8.539   7.179   5.039
10117WAT      O30592   6.026   6.618   9.469
10117WAT     H130593   6.088   6.693   9.447
10117WAT     H230594   6.024   6.553   9.394
10118WAT      O30595   8.356   6.715   0.136
10118WAT     H130596   8.360   6.707   0.236
10118WAT     H230597   8.263   6.739   0.108
10119WAT      O30598   5.637   6.870   5.555
10119WAT     H130599   5.616   6.836   5.647
10119WAT     H230600   5.618   6.798   5.488
10120WAT      O30601   1.615   7.285   3.749
10120WAT     H130602   1.533   7.342   3.747
10120WAT     H230603   1.695   7.341   3.725
10121WAT      O30604   6.227   2.274   3.354
10121WAT     H130605   6.303   2.285   3.417
10121WAT     H230606   6.202   2.177   3.348
10122WAT      O30607   0.877   9.652   0.548
10122WAT     H130608   0.975   9.641   0.528
10122WAT     H230609   0.827   9.575   0.510
10123WAT      O30610   3.341   6.585   6.168
10123WAT     H130611   3.307   6.499   6.132
10123WAT     H230612   3.317   6.660   6.105
10124WAT      O30613   3.607   6.779   7.587
10124WAT     H130614   3.575   6.873   7.588
10124WAT     H230615   3.538   6.720   7.630
10125WAT      O30616   7.694   9.688   3.223
10125WAT     H130617   7.606   9.666   3.181
10125WAT     H230618   7.746   9.748   3.162
10126WAT      O30619   8.808   3.421   3.796
10126WAT     H130620   8.843   3.490   3.860
10126WAT     H230621   8.740   3.364   3.841
10127WAT      O30622   9.589   0.633   0.240
10127WAT     H130623   9.610   0.649   0.336
10127WAT     H230624   9.669   0.654   0.184
10128WAT      O30625   0.447   7.592   3.016
10128WAT     H130626   0.505   7.610   2.937
10128WAT     H230627   0.503   7.557   3.091
10129WAT      O30628   3.449   1.833   8.291
10129WAT     H130629   3.465   1.804   8.196
10129WAT     H230630   3.530   1.881   8.325
10130WAT      O30631   4.337   4.738   3.508
10130WAT     H130632   4.306   4.693   3.425
10130WAT     H230633   4.396   4.676   3.560
10131WAT      O30634   9.213   0.220   9.683
10131WAT     H130635   9.194   0.207   9.781
10131WAT     H230636   9.127   0.213   9.632
10132WAT      O30637   0.723   3.023   5.952
10132WAT     H130638   0.812   3.023   5.907
10132WAT     H230639   0.666   2.951   5.911
10133WAT      O30640   8.204   2.912   1.144
10133WAT     H130641   8.144   2.936   1.069
10133WAT     H230642   8.242   2.820   1.130
10134WAT      O30643   5.876   5.533   0.437
10134WAT     H130644   5.799   5.592   0.464
10134WAT     H230645   5.844   5.468   0.367
10135WAT      O30646   2.543   3.792   2.558
10135WAT     H130647   2.636   3.816   2.533
10135WAT     H230648   2.500   3.868   2.607
10136WAT      O30649   9.337   1.434   5.768
10136WAT     H130650   9.320   1.359   5.833
10136WAT     H230651   9.372   1.514   5.817
10137WAT      O30652   5.899   1.212   9.105
10137WAT     H130653   5.937   1.153   9.177
10137WAT     H230654   5.817   1.257   9.139
10138WAT      O30655   7.222   4.405   8.302
10138WAT     H130656   7.171   4.320   8.290
10138WAT     H230657   7.161   4.477   8.335
10139WAT      O30658   3.735   8.772   0.996
10139WAT     H130659   3.746   8.737   1.090
10139WAT     H230660   3.699   8.865   0.999
10140WAT      O30661   1.572   8.471   6.198
10140WAT     H130662   1.648   8.466   6.132
10140WAT     H230663   1.606   8.446   6.289
10141WAT      O30664   4.328   6.684   3.429
10141WAT     H130665   4.329   6.729   3.340
10141WAT     H230666   4.248   6.715   3.481
10142WAT      O30667   5.997   3.351   1.427
10142WAT     H130668   5.939   3.297   1.488
10142WAT     H230669   6.020   3.297   1.346
10143WAT      O30670   0.617   6.620   5.248
10143WAT     H130671   0.526   6.586   5.269
10143WAT     H230672   0.683   6.581   5.313
10144WAT      O30673   7.090   4.067   5.186
10144WAT     H130674   7.130   3.993   5.240
10144WAT     H230675   7.164   4.121   5.144
10145WAT      O30676   5.494   4.225   6.731
10145WAT     H130677   5.484   4.320   6.701
10145WAT     H230678   5.458   4.164   6.660
10146WAT      O30679   7.750   8.445   0.810
10146WAT     H130680   7.713   8.502   0.883
10146WAT     H230681   7.689   8.366   0.796
10147WAT      O30682   9.650   6.724   7.242
10147WAT     H130683   9.606   6.660   7.180
10147WAT     H230684   9.746   6.736   7.215
10148WAT      O30685   4.145   8.255   9.643
10148WAT     H130686   4.134   8.206   9.730
10148WAT     H230687   4.081   8.331   9.640
10149WAT      O30688   1.129   3.449   2.429
10149WAT     H130689   1.129   3.520   2.499
10149WAT     H230690   1.200   3.381   2.450
10150WAT      O30691   1.656   8.782   8.537
10150WAT     H130692   1.576   8.802   8.480
10150WAT     H230693   1.642   8.818   8.629
10151WAT      O30694   3.800   2.424   5.703
10151WAT     H130695   3.741   2.444   5.781
10151WAT     H230696   3.795   2.327   5.681
10152WAT      O30697   5.987   8.480   2.101
10152WAT     H130698   5.899   8.434   2.090
10152WAT     H230699   6.051   8.419   2.149
10153WAT      O30700   4.896   7.711   7.157
10153WAT     H130701   4.891   7.619   7.194
10153WAT     H230702   4.805   7.752   7.158
10154WAT      O30703   3.485   4.228   6.498
10154WAT     H130704   3.509   4.164   6.571
10154WAT     H230705   3.470   4.319   6.537
10155WAT      O30706   4.831   8.013   6.373
10155WAT     H130707   4.843   7.918   6.345
10155WAT     H230708   4.748   8.050   6.331
10156WAT      O30709   7.628   6.386   7.277
10156WAT     H130710   7.620   6.455   7.206
10156WAT     H230711   7.617   6.295   7.236
10157WAT      O30712   7.655   3.507   8.942
10157WAT     H130713   7.669   3.605   8.959
10157WAT     H230714   7.664   3.489   8.844
10158WAT      O30715   8.170   6.298   8.550
10158WAT     H130716   8.161   6.378   8.491
10158WAT     H230717   8.081   6.254   8.560
10159WAT      O30718   7.741   1.247   3.058
10159WAT     H130719   7.822   1.276   3.008
10159WAT     H230720   7.764   1.236   3.155
10160WAT      O30721   3.397   6.087   8.662
10160WAT     H130722   3.417   6.036   8.746
10160WAT     H230723   3.300   6.079   8.641
10161WAT      O30724   3.012   9.172   5.054
10161WAT     H130725   3.002   9.238   5.129
10161WAT     H230726   3.005   9.079   5.090
10162WAT      O30727   7.905   8.459   7.347
10162WAT     H130728   7.856   8.381   7.388
10162WAT     H230729   7.948   8.513   7.419
10163WAT      O30730   4.137   0.181   8.261
10163WAT     H130731   4.231   0.167   8.290
10163WAT     H230732   4.120   0.279   8.247
10164WAT      O30733   3.533   7.673   6.727
10164WAT     H130734   3.498   7.605   6.662
10164WAT     H230735   3.471   7.678   6.805
10165WAT      O30736   1.844   9.538   2.724
10165WAT     H130737   1.927   9.505   2.679
10165WAT     H230738   1.773   9.468   2.718
10166WAT      O30739   2.114   1.173   1.635
10166WAT     H130740   2.150   1.264   1.656
10166WAT     H230741   2.032   1.182   1.579
10167WAT      O30742   5.369   9.139   6.066
10167WAT     H130743   5.357   9.088   5.981
10167WAT     H230744   5.442   9.097   6.120
10168WAT      O30745   8.807   3.047   6.849
10168WAT     H130746   8.860   3.131   6.843
10168WAT     H230747   8.783   3.015   6.757
10169WAT      O30748   4.111   5.119   3.472
10169WAT     H130749   4.097   5.107   3.374
10169WAT     H230750   4.093   5.214   3.497
10170WAT      O30751   6.066   5.773   5.312
10170WAT     H130752   6.125   5.731   5.381
10170WAT     H230753   5.990   5.820   5.358
10171WAT      O30754   1.372   9.597   5.172
10171WAT     H130755   1.372   9.569   5.076
10171WAT     H230756   1.376   9.696   5.178
10172WAT      O30757   2.317   8.191   3.961
10172WAT     H130758   2.349   8.233   3.876
10172WAT     H230759   2.262   8.258   4.012
10173WAT      O30760   3.772   6.685   4.421
10173WAT     H130761   3.728   6.698   4.510
10173WAT     H230762   3.841   6.613   4.428
10174WAT      O30763   6.463   2.006   3.500
10174WAT     H130764   6.460   2.031   3.597
10174WAT     H230765   6.371   2.015   3.461
10175WAT      O30766   3.570   8.324   6.314
10175WAT     H130767   3.533   8.387   6.382
10175WAT     H230768   3.668   8.342   6.302
10176WAT      O30769   0.359   4.590   3.711
10176WAT     H130770   0.273   4.543   3.731
10176WAT     H230771   0.432   4.550   3.767
10177WAT      O30772   0.425   1.379   7.554
10177WAT     H130773   0.350   1.443   7.542
10177WAT     H230774   0.403   1.293   7.506
10178WAT      O30775   0.787   0.539   3.475
10178WAT     H130776   0.787   0.575   3.568
10178WAT     H230777   0.790   0.615   3.410
10179WAT      O30778   0.386   4.691   9.807
10179WAT     H130779   0.398   4.597   9.837
10179WAT     H230780   0.339   4.693   9.719
10180WAT      O30781   9.553   4.343   4.350
10180WAT     H130782   9.524   4.248   4.340
10180WAT     H230783   9.596   4.355   4.439
10181WAT      O30784   6.253   6.323   8.455
10181WAT     H130785   6.168   6.271   8.458
10181WAT     H230786   6.285   6.340   8.549
10182WAT      O30787   1.416   7.002   1.899
10182WAT     H130788   1.335   7.048   1.935
10182WAT     H230789   1.427   7.024   1.802
10183WAT      O30790   5.429   7.235   0.348
10183WAT     H130791   5.393   7.210   0.438
10183WAT     H230792   5.527   7.250   0.354
10184WAT      O30793   0.502   4.450   4.619
10184WAT     H130794   0.451   4.455   4.533
10184WAT     H230795   0.459   4.510   4.687
10185WAT      O30796   5.567   9.667   3.981
10185WAT     H130797   5.596   9.696   4.072
10185WAT     H230798   5.498   9.595   3.989
10186WAT      O30799   5.173   1.373   1.122
10186WAT     H130800   5.084   1.328   1.117
10186WAT     H230801   5.183   1.435   1.044
10187WAT      O30802   6.676   1.931   7.528
10187WAT     H130803   6.710   1.959   7.438
10187WAT     H230804   6.742   1.870   7.572
10188WAT      O30805   7.925   9.408   1.078
10188WAT     H130806   7.925   9.375   1.173
10188WAT     H230807   7.936   9.331   1.016
10189WAT      O30808   7.387   5.200   7.926
10189WAT     H130809   7.369   5.101   7.917
10189WAT     H230810   7.339   5.248   7.852
10190WAT      O30811   2.643   3.932   8.707
10190WAT     H130812   2.704   3.907   8.631
10190WAT     H230813   2.586   4.010   8.680
10191WAT      O30814   4.303   7.352   3.876
10191WAT     H130815   4.326   7.279   3.812
10191WAT     H230816   4.369   7.352   3.951
10192WAT      O30817   3.700   2.673   1.104
10192WAT     H130818   3.792   2.712   1.100
10192WAT     H230819   3.654   2.685   1.016
10193WAT      O30820   1.265   2.920   0.079
10193WAT     H130821   1.256   2.951   0.173
10193WAT     H230822   1.208   2.839   0.065
10194WAT      O30823   3.193   6.714   9.136
10194WAT     H130824   3.171   6.770   9.216
10194WAT     H230825   3.135   6.633   9.136
10195WAT      O30826   0.338   1.193   5.210
10195WAT     H130827   0.261   1.144   5.170
10195WAT     H230828   0.321   1.291   5.208
10196WAT      O30829   6.896   1.677   5.057
10196WAT     H130830   6.922   1.708   4.966
10196WAT     H230831   6.885   1.577   5.057
10197WAT      O30832   8.215   9.751   4.383
10197WAT     H130833   8.196   9.685   4.456
10197WAT     H230834   8.131   9.769   4.332
10198WAT      O30835   9.486   0.059   6.633
10198WAT     H130836   9.561  -0.003   6.609
10198WAT     H230837   9.522   0.138   6.682
10199WAT      O30838   1.458   5.915   9.831
10199WAT     H130839   1.421   6.005   9.856
10199WAT     H230840   1.387   5.846   9.843
10200WAT      O30841   2.739   5.145   9.157
10200WAT     H130842   2.839   5.149   9.153
10200WAT     H230843   2.711   5.136   9.253
10201WAT      O30844   6.443   4.794   7.380
10201WAT     H130845   6.487   4.793   7.290
10201WAT     H230846   6.506   4.832   7.448
10202WAT      O30847   0.360   1.304   9.187
10202WAT     H130848   0.263   1.287   9.201
10202WAT     H230849   0.397   1.237   9.122
10203WAT      O30850   5.383   1.936   4.719
10203WAT     H130851   5.447   2.012   4.731
10203WAT     H230852   5.307   1.946   4.783
10204WAT      O30853   3.283   6.169   9.577
10204WAT     H130854   3.278   6.255   9.629
10204WAT     H230855   3.191   6.131   9.568
10205WAT      O30856   9.331   8.823   5.258
10205WAT     H130857   9.391   8.773   5.195
10205WAT     H230858   9.269   8.882   5.206
10206WAT      O30859   8.363   8.441   7.760
10206WAT     H130860   8.409   8.529   7.767
10206WAT     H230861   8.304   8.428   7.840
10207WAT      O30862   6.447   9.418   5.207
10207WAT     H130863   6.461   9.381   5.299
10207WAT     H230864   6.411   9.511   5.215
10208WAT      O30865   8.942   9.356   3.237
10208WAT     H130866   8.854   9.366   3.191
10208WAT     H230867   9.007   9.422   3.199
10209WAT      O30868   6.502   2.652   1.002
10209WAT     H130869   6.506   2.654   1.102
10209WAT     H230870   6.523   2.743   0.967
10210WAT      O30871   6.681   5.534   8.925
10210WAT     H130872   6.667   5.495   8.834
10210WAT     H230873   6.656   5.468   8.995
10211WAT      O30874   1.674   7.974   0.769
10211WAT     H130875   1.631   7.884   0.766
10211WAT     H230876   1.723   7.984   0.857
10212WAT      O30877   9.793   6.981   6.766
10212WAT     H130878   9.892   6.974   6.772
10212WAT     H230879   9.766   6.990   6.670
10213WAT      O30880   7.892   3.237   1.276
10213WAT     H130881   7.946   3.321   1.279
10213WAT     H230882   7.804   3.256   1.232
10214WAT      O30883   2.737   9.203   8.319
10214WAT     H130884   2.733   9.182   8.222
10214WAT     H230885   2.774   9.295   8.333
10215WAT      O30886   5.288   4.034   8.451
10215WAT     H130887   5.380   4.045   8.487
10215WAT     H230888   5.285   4.068   8.357
10216WAT      O30889   2.065   0.956   0.262
10216WAT     H130890   2.136   0.982   0.327
10216WAT     H230891   2.062   0.856   0.255
10217WAT      O30892   9.327   5.026   6.158
10217WAT     H130893   9.255   5.076   6.204
10217WAT     H230894   9.416   5.056   6.193
10218WAT      O30895   2.489   5.528   8.861
10218WAT     H130896   2.393   5.501   8.863
10218WAT     H230897   2.509   5.577   8.777
10219WAT      O30898   9.284   2.324   2.351
10219WAT     H130899   9.242   2.275   2.275
10219WAT     H230900   9.282   2.422   2.332
10220WAT      O30901   7.506   3.940   0.227
10220WAT     H130902   7.587   3.885   0.205
10220WAT     H230903   7.430   3.879   0.249
10221WAT      O30904   6.108   4.633   0.071
10221WAT     H130905   6.158   4.690   0.005
10221WAT     H230906   6.067   4.691   0.141
10222WAT      O30907   9.215   7.310   0.879
10222WAT     H130908   9.220   7.328   0.977
10222WAT     H230909   9.210   7.397   0.829
10223WAT      O30910   7.868   1.994   6.863
10223WAT     H130911   7.930   2.025   6.791
10223WAT     H230912   7.776   2.027   6.844
10224WAT      O30913   4.030   8.293   4.650
10224WAT     H130914   3.974   8.235   4.591
10224WAT     H230915   4.119   8.308   4.606
10225WAT      O30916   4.352   3.773   5.495
10225WAT     H130917   4.286   3.724   5.438
10225WAT     H230918   4.306   3.808   5.577
10226WAT      O30919   6.064   2.351   1.116
10226WAT     H130920   5.966   2.342   1.133
10226WAT     H230921   6.079   2.393   1.026
10227WAT      O30922   1.581   0.396   5.304
10227WAT     H130923   1.548   0.461   5.235
10227WAT     H230924   1.618   0.446   5.382
10228WAT      O30925   4.264   6.902   5.262
10228WAT     H130926   4.327   6.886   5.337
10228WAT     H230927   4.208   6.983   5.281
10229WAT      O30928   0.853   6.181   7.661
10229WAT     H130929   0.764   6.226   7.654
10229WAT     H230930   0.923   6.249   7.682
10230WAT      O30931   1.813   7.932   0.033
10230WAT     H130932   1.884   7.962   0.097
10230WAT     H230933   1.724   7.932   0.079
10231WAT      O30934   0.747   6.364   3.825
10231WAT     H130935   0.729   6.317   3.911
10231WAT     H230936   0.768   6.298   3.753
10232WAT      O30937   7.233   0.008   9.048
10232WAT     H130938   7.201   0.061   8.969
10232WAT     H230939   7.160  -0.001   9.115
10233WAT      O30940   2.139   2.544   5.207
10233WAT     H130941   2.144   2.460   5.261
10233WAT     H230942   2.121   2.522   5.111
10234WAT      O30943   2.485   4.820   9.079
10234WAT     H130944   2.405   4.867   9.117
10234WAT     H230945   2.565   4.840   9.135
10235WAT      O30946   1.402   4.568   6.149
10235WAT     H130947   1.333   4.626   6.105
10235WAT     H230948   1.366   4.475   6.158
10236WAT      O30949   7.834   3.996   5.514
10236WAT     H130950   7.784   3.919   5.475
10236WAT     H230951   7.805   4.081   5.470
10237WAT      O30952   5.703   5.185   9.664
10237WAT     H130953   5.758   5.266   9.687
10237WAT     H230954   5.746   5.136   9.588
10238WAT      O30955   7.052   9.087   3.633
10238WAT     H130956   7.134   9.065   3.582
10238WAT     H230957   7.064   9.062   3.729
10239WAT      O30958   4.782   6.981   9.703
10239WAT     H130959   4.777   7.075   9.671
10239WAT     H230960   4.815   6.922   9.629
10240WAT      O30961   1.673   1.463   3.437
10240WAT     H130962   1.734   1.460   3.516
10240WAT     H230963   1.579   1.478   3.467
10241WAT      O30964   2.025   7.757   6.006
10241WAT     H130965   2.006   7.712   5.919
10241WAT     H230966   1.990   7.700   6.081
10242WAT      O30967   3.126   9.710   1.825
10242WAT     H130968   3.041   9.682   1.780
10242WAT     H230969   3.181   9.766   1.763
10243WAT      O30970   1.276   3.754   3.598
10243WAT     H130971   1.269   3.853   3.612
10243WAT     H230972   1.370   3.730   3.573
10244WAT      O30973   2.318   8.041   8.279
10244WAT     H130974   2.281   8.072   8.191
10244WAT     H230975   2.315   8.117   8.344
10245WAT      O30976   2.844   8.779   3.734
10245WAT     H130977   2.860   8.877   3.731
10245WAT     H230978   2.829   8.751   3.829
10246WAT      O30979   6.142   5.784   8.663
10246WAT     H130980   6.127   5.690   8.696
10246WAT     H230981   6.234   5.791   8.624
10247WAT      O30982   4.638   2.988   3.215
10247WAT     H130983   4.565   2.965   3.280
10247WAT     H230984   4.711   3.036   3.262
10248WAT      O30985   6.857   4.262   1.460
10248WAT     H130986   6.934   4.279   1.522
10248WAT     H230987   6.870   4.316   1.377
10249WAT      O30988   3.626   7.900   9.069
10249WAT     H130989   3.702   7.956   9.099
10249WAT     H230990   3.542   7.931   9.114
10250WAT      O30991   5.328   9.656   4.203
10250WAT     H130992   5.337   9.596   4.123
10250WAT     H230993   5.251   9.718   4.189
10251WAT      O30994   4.450   6.158   2.147
10251WAT     H130995   4.546   6.172   2.171
10251WAT     H230996   4.436   6.179   2.050
10252WAT      O30997   1.777   2.196   1.762
10252WAT     H130998   1.835   2.276   1.746
10252WAT     H230999   1.753   2.153   1.674
10253WAT      O31000   0.716   6.048   3.767
10253WAT     H131001   0.701   5.985   3.691
10253WAT     H231002   0.631   6.062   3.817
10254WAT      O31003   7.323   2.362   1.475
10254WAT     H131004   7.349   2.368   1.378
10254WAT     H231005   7.234   2.407   1.488
10255WAT      O31006   5.499   0.785   9.792
10255WAT     H131007   5.479   0.716   9.862
10255WAT     H231008   5.486   0.744   9.701
10256WAT      O31009   7.550   4.196   0.318
10256WAT     H131010   7.643   4.230   0.301
10256WAT     H231011   7.544   4.100   0.293
10257WAT      O31012   8.829   3.826   9.511
10257WAT     H131013   8.817   3.785   9.602
10257WAT     H231014   8.872   3.759   9.450
10258WAT      O31015   9.627   8.280   5.836
10258WAT     H131016   9.710   8.335   5.825
10258WAT     H231017   9.566   8.325   5.901
10259WAT      O31018   1.254   1.991   1.061
10259WAT     H131019   1.174   2.050   1.047
10259WAT     H231020   1.336   2.038   1.029
10260WAT      O31021   5.819   3.105   2.307
10260WAT     H131022   5.761   3.060   2.375
10260WAT     H231023   5.776   3.190   2.277
10261WAT      O31024   7.426   9.663   9.111
10261WAT     H131025   7.507   9.674   9.053
10261WAT     H231026   7.360   9.734   9.089
10262WAT      O31027   1.866   9.653   4.799
10262WAT     H131028   1.886   9.678   4.705
10262WAT     H231029   1.779   9.693   4.827
10263WAT      O31030   7.212   7.850   1.156
10263WAT     H131031   7.283   7.911   1.191
10263WAT     H231032   7.176   7.794   1.231
10264WAT      O31033   8.793   3.498   0.947
10264WAT     H131034   8.786   3.597   0.938
10264WAT     H231035   8.730   3.454   0.884
10265WAT      O31036   6.513   4.081   0.627
10265WAT     H131037   6.466   4.169   0.620
10265WAT     H231038   6.512   4.050   0.722
10266WAT      O31039   9.011   2.302   9.036
10266WAT     H131040   9.033   2.208   9.061
10266WAT     H231041   8.914   2.318   9.048
10267WAT      O31042   2.910   0.653   1.082
10267WAT     H131043   2.861   0.724   1.032
10267WAT     H231044   2.849   0.612   1.150
10268WAT      O31045   5.127   6.689   3.234
10268WAT     H131046   5.050   6.718   3.177
10268WAT     H231047   5.096   6.674   3.327
10269WAT      O31048   5.773   1.550   0.592
10269WAT     H131049   5.838   1.476   0.608
10269WAT     H231050   5.726   1.534   0.505
10270WAT      O31051   7.959   1.966   9.331
10270WAT     H131052   8.057   1.983   9.341
10270WAT     H231053   7.941   1.934   9.238
10271WAT      O31054   0.975   6.226   6.068
10271WAT     H131055   0.886   6.182   6.069
10271WAT     H231056   1.046   6.158   6.048
10272WAT      O31057   0.546   7.397   5.360
10272WAT     H131058   0.524   7.494   5.366
10272WAT     H231059   0.528   7.364   5.267
10273WAT      O31060   5.280   0.641   7.115
10273WAT     H131061   5.324   0.561   7.155
10273WAT     H231062   5.330   0.724   7.141
10274WAT      O31063   9.694   5.078   5.590
10274WAT     H131064   9.783   5.034   5.584
10274WAT     H231065   9.694   5.145   5.663
10275WAT      O31066   9.168   5.401   5.910
10275WAT     H131067   9.090   5.396   5.973
10275WAT     H231068   9.163   5.324   5.846
10276WAT      O31069   2.734   9.157   7.757
10276WAT     H131070   2.661   9.220   7.728
10276WAT     H231071   2.700   9.099   7.831
10277WAT      O31072   2.182   9.621   7.825
10277WAT     H131073   2.087   9.624   7.856
10277WAT     H231074   2.193   9.549   7.756
10278WAT      O31075   0.934   8.079   6.663
10278WAT     H131076   1.018   8.024   6.665
10278WAT     H231077   0.894   8.074   6.571
10279WAT      O31078   8.906   6.943   3.771
10279WAT     H131079   8.871   7.025   3.726
10279WAT     H231080   8.912   6.958   3.869
10280WAT      O31081   4.897   8.709   6.415
10280WAT     H131082   4.949   8.724   6.330
10280WAT     H231083   4.956   8.662   6.481
10281WAT      O31084   2.804   0.288   0.776
10281WAT     H131085   2.726   0.260   0.720
10281WAT     H231086   2.787   0.379   0.814
10282WAT      O31087   9.366   9.448   6.650
10282WAT     H131088   9.327   9.387   6.582
10282WAT     H231089   9.383   9.398   6.735
10283WAT      O31090   7.412   3.567   5.664
10283WAT     H131091   7.476   3.592   5.737
10283WAT     H231092   7.361   3.486   5.690
10284WAT      O31093   1.428   3.348   1.099
10284WAT     H131094   1.402   3.346   1.002
10284WAT     H231095   1.353   3.311   1.154
10285WAT      O31096   7.576   7.482   7.818
10285WAT     H131097   7.634   7.515   7.892
10285WAT     H231098   7.503   7.547   7.801
10286WAT      O31099   7.963   1.459   4.856
10286WAT     H131100   7.934   1.510   4.775
10286WAT     H231101   7.901   1.479   4.931
10287WAT      O31102   9.707   6.861   4.348
10287WAT     H131103   9.767   6.849   4.428
10287WAT     H231104   9.763   6.878   4.267
10288WAT      O31105   2.568   1.851   8.788
10288WAT     H131106   2.663   1.868   8.813
10288WAT     H231107   2.563   1.770   8.730
10289WAT      O31108   6.322   3.012   5.536
10289WAT     H131109   6.368   2.958   5.606
10289WAT     H231110   6.228   3.031   5.564
10290WAT      O31111   0.516   6.552   2.503
10290WAT     H131112   0.590   6.608   2.465
10290WAT     H231113   0.435   6.560   2.445
10291WAT      O31114   0.014   7.572   1.020
10291WAT     H131115   0.011   7.523   0.933
10291WAT     H231116  -0.017   7.666   1.007
10292WAT      O31117   6.753   6.115   4.964
10292WAT     H131118   6.757   6.016   4.980
10292WAT     H231119   6.790   6.164   5.042
10293WAT      O31120   8.789   6.421   0.937
10293WAT     H131121   8.862   6.382   0.881
10293WAT     H231122   8.769   6.514   0.905
10294WAT      O31123   9.805   2.677   2.473
10294WAT     H131124   9.863   2.756   2.489
10294WAT     H231125   9.735   2.672   2.544
10295WAT      O31126   1.825   3.695   3.157
10295WAT     H131127   1.815   3.694   3.058
10295WAT     H231128   1.765   3.625   3.197
10296WAT      O31129   2.595   4.325   5.834
10296WAT     H131130   2.573   4.346   5.929
10296WAT     H231131   2.635   4.233   5.829
10297WAT      O31132   7.548   0.017   8.557
10297WAT     H131133   7.461   0.008   8.606
10297WAT     H231134   7.597   0.097   8.592
10298WAT      O31135   8.939   8.084   5.671
10298WAT     H131136   9.014   8.143   5.702
10298WAT     H231137   8.884   8.056   5.750
10299WAT      O31138   8.710   5.548   8.096
10299WAT     H131139   8.638   5.557   8.028
10299WAT     H231140   8.744   5.639   8.121
10300WAT      O31141   8.621   5.364   2.690
10300WAT     H131142   8.637   5.404   2.600
10300WAT     H231143   8.651   5.428   2.760
10301WAT      O31144   5.240   2.600   7.118
10301WAT     H131145   5.319   2.660   7.129
10301WAT     H231146   5.190   2.625   7.035
10302WAT      O31147   5.403   6.445   3.930
10302WAT     H131148   5.494   6.474   3.901
10302WAT     H231149   5.404   6.347   3.953
10303WAT      O31150   2.058   5.487   6.783
10303WAT     H131151   2.037   5.579   6.752
10303WAT     H231152   2.150   5.462   6.753
10304WAT      O31153   1.998   8.723   4.152
10304WAT     H131154   1.978   8.820   4.139
10304WAT     H231155   2.006   8.678   4.063
10305WAT      O31156   6.769   6.214   2.354
10305WAT     H131157   6.675   6.245   2.371
10305WAT     H231158   6.818   6.285   2.302
10306WAT      O31159   4.681   7.176   8.768
10306WAT     H131160   4.706   7.105   8.702
10306WAT     H231161   4.719   7.152   8.858
10307WAT      O31162   6.181   7.196   9.633
10307WAT     H131163   6.094   7.241   9.611
10307WAT     H231164   6.177   7.101   9.601
10308WAT      O31165   0.486   7.629   9.882
10308WAT     H131166   0.535   7.701   9.834
10308WAT     H231167   0.516   7.540   9.850
10309WAT      O31168   0.326   8.096   4.833
10309WAT     H131169   0.378   8.135   4.757
10309WAT     H231170   0.234   8.070   4.801
10310WAT      O31171   0.835   5.312   7.417
10310WAT     H131172   0.832   5.387   7.351
10310WAT     H231173   0.820   5.348   7.509
10311WAT      O31174   4.532   9.561   6.555
10311WAT     H131175   4.528   9.592   6.460
10311WAT     H231176   4.446   9.583   6.601
10312WAT      O31177   3.522   8.108   5.962
10312WAT     H131178   3.465   8.119   6.043
10312WAT     H231179   3.531   8.196   5.915
10313WAT      O31180   2.201   6.278   8.444
10313WAT     H131181   2.103   6.260   8.444
10313WAT     H231182   2.218   6.370   8.481
10314WAT      O31183   4.796   1.279   5.827
10314WAT     H131184   4.821   1.332   5.746
10314WAT     H231185   4.699   1.291   5.846
10315WAT      O31186   4.153   1.085   7.134
10315WAT     H131187   4.059   1.053   7.150
10315WAT     H231188   4.209   1.065   7.215
10316WAT      O31189   7.280   3.355   5.760
10316WAT     H131190   7.327   3.269   5.739
10316WAT     H231191   7.181   3.340   5.754
10317WAT      O31192   2.585   9.679   9.020
10317WAT     H131193   2.677   9.653   8.992
10317WAT     H231194   2.559   9.629   9.102
10318WAT      O31195   5.598   3.373   9.885
10318WAT     H131196   5.684   3.392   9.839
10318WAT     H231197   5.593   3.275   9.907
10319WAT      O31198   6.821   8.648   7.300
10319WAT     H131199   6.778   8.564   7.266
10319WAT     H231200   6.850   8.634   7.395
10320WAT      O31201   1.228   9.736   6.398
10320WAT     H131202   1.183   9.806   6.454
10320WAT     H231203   1.326   9.736   6.417
10321WAT      O31204   3.721   3.579   1.641
10321WAT     H131205   3.766   3.489   1.642
10321WAT     H231206   3.639   3.574   1.584
10322WAT      O31207   0.452   0.996   7.902
10322WAT     H131208   0.535   1.035   7.864
10322WAT     H231209   0.458   0.996   8.002
10323WAT      O31210   7.869   0.516   1.528
10323WAT     H131211   7.772   0.531   1.507
10323WAT     H231212   7.889   0.418   1.524
10324WAT      O31213   7.299   5.660   5.139
10324WAT     H131214   7.315   5.708   5.053
10324WAT     H231215   7.386   5.630   5.177
10325WAT      O31216   0.964   7.274   8.418
10325WAT     H131217   1.017   7.274   8.333
10325WAT     H231218   0.893   7.204   8.413
10326WAT      O31219   8.249   7.490   4.880
10326WAT     H131220   8.218   7.555   4.949
10326WAT     H231221   8.246   7.397   4.918
10327WAT      O31222   9.544   1.245   3.774
10327WAT     H131223   9.515   1.241   3.678
10327WAT     H231224   9.476   1.294   3.827
10328WAT      O31225   5.274   0.575   4.037
10328WAT     H131226   5.235   0.546   4.124
10328WAT     H231227   5.213   0.550   3.962
10329WAT      O31228   3.012   6.645   6.664
10329WAT     H131229   3.095   6.620   6.714
10329WAT     H231230   3.011   6.744   6.649
10330WAT      O31231   0.274   2.285   6.425
10330WAT     H131232   0.275   2.186   6.416
10330WAT     H231233   0.273   2.327   6.335
10331WAT      O31234   7.515   7.086   8.516
10331WAT     H131235   7.550   7.099   8.609
10331WAT     H231236   7.562   7.147   8.453
10332WAT      O31237   6.965   2.954   5.605
10332WAT     H131238   6.930   3.044   5.579
10332WAT     H231239   6.899   2.884   5.577
10333WAT      O31240   1.893   1.486   9.143
10333WAT     H131241   1.972   1.443   9.099
10333WAT     H231242   1.847   1.546   9.078
10334WAT      O31243   9.709   2.458   4.489
10334WAT     H131244   9.807   2.438   4.487
10334WAT     H231245   9.661   2.383   4.534
10335WAT      O31246   0.185   4.092   4.598
10335WAT     H131247   0.139   4.005   4.582
10335WAT     H231248   0.168   4.123   4.691
10336WAT      O31249   9.636   1.208   0.176
10336WAT     H131250   9.543   1.238   0.198
10336WAT     H231251   9.674   1.158   0.253
10337WAT      O31252   4.410   1.693   7.984
10337WAT     H131253   4.504   1.666   7.962
10337WAT     H231254   4.379   1.761   7.917
10338WAT      O31255   2.903   8.438   4.452
10338WAT     H131256   2.897   8.401   4.360
10338WAT     H231257   2.831   8.397   4.509
10339WAT      O31258   8.817   0.124   3.554
10339WAT     H131259   8.738   0.175   3.519
10339WAT     H231260   8.857   0.069   3.480
10340WAT      O31261   1.817   3.552   8.073
10340WAT     H131262   1.840   3.648   8.062
10340WAT     H231263   1.889   3.506   8.126
10341WAT      O31264   6.875   7.764   9.118
10341WAT     H131265   6.968   7.760   9.153
10341WAT     H231266   6.873   7.733   9.023
10342WAT      O31267   2.261   8.788   6.150
10342WAT     H131268   2.220   8.794   6.241
10342WAT     H231269   2.291   8.694   6.134
10343WAT      O31270   7.471   3.714   8.711
10343WAT     H131271   7.488   3.785   8.779
10343WAT     H231272   7.553   3.658   8.699
10344WAT      O31273   4.056   9.402   8.012
10344WAT     H131274   4.110   9.449   7.943
10344WAT     H231275   4.058   9.304   7.996
10345WAT      O31276   7.790   1.497   5.068
10345WAT     H131277   7.847   1.461   5.142
10345WAT     H231278   7.757   1.588   5.092
10346WAT      O31279   6.628   4.709   0.385
10346WAT     H131280   6.724   4.702   0.357
10346WAT     H231281   6.573   4.742   0.309
10347WAT      O31282   0.030   2.562   5.870
10347WAT     H131283   0.064   2.564   5.964
10347WAT     H231284  -0.046   2.498   5.864
10348WAT      O31285   0.081   5.431   1.162
10348WAT     H131286   0.053   5.522   1.133
10348WAT     H231287   0.139   5.438   1.244
10349WAT      O31288   1.572   6.158   5.625
10349WAT     H131289   1.544   6.254   5.628
10349WAT     H231290   1.666   6.149   5.657
10350WAT      O31291   7.430   2.457   5.622
10350WAT     H131292   7.456   2.503   5.707
10350WAT     H231293   7.339   2.487   5.594
10351WAT      O31294   7.451   7.461   9.635
10351WAT     H131295   7.360   7.497   9.656
10351WAT     H231296   7.445   7.394   9.561
10352WAT      O31297   3.409   8.396   8.742
10352WAT     H131298   3.487   8.457   8.757
10352WAT     H231299   3.325   8.441   8.773
10353WAT      O31300   1.815   3.634   2.865
10353WAT     H131301   1.723   3.609   2.896
10353WAT     H231302   1.807   3.694   2.785
10354WAT      O31303   8.881   6.193   1.535
10354WAT     H131304   8.953   6.126   1.551
10354WAT     H231305   8.833   6.211   1.621
10355WAT      O31306   2.422   2.981   7.674
10355WAT     H131307   2.453   2.996   7.768
10355WAT     H231308   2.471   2.903   7.635
10356WAT      O31309   9.553   0.482   3.398
10356WAT     H131310   9.455   0.499   3.384
10356WAT     H231311   9.578   0.395   3.357
10357WAT      O31312   2.384   4.687   5.980
10357WAT     H131313   2.305   4.653   6.031
10357WAT     H231314   2.399   4.784   6.002
10358WAT      O31315   4.693   5.825   8.187
10358WAT     H131316   4.674   5.847   8.092
10358WAT     H231317   4.678   5.727   8.202
10359WAT      O31318   7.657   3.381   6.692
10359WAT     H131319   7.717   3.308   6.725
10359WAT     H231320   7.692   3.470   6.723
10360WAT      O31321   7.201   4.285   9.881
10360WAT     H131322   7.222   4.319   9.972
10360WAT     H231323   7.224   4.354   9.813
10361WAT      O31324   3.779   9.513   4.247
10361WAT     H131325   3.854   9.555   4.298
10361WAT     H231326   3.752   9.573   4.172
10362WAT      O31327   0.216   8.517   9.769
10362WAT     H131328   0.248   8.454   9.840
10362WAT     H231329   0.245   8.483   9.680
10363WAT      O31330   5.615   5.439   4.682
10363WAT     H131331   5.539   5.415   4.622
10363WAT     H231332   5.585   5.440   4.777
10364WAT      O31333   1.920   0.706   0.630
10364WAT     H131334   1.887   0.674   0.542
10364WAT     H231335   2.020   0.704   0.631
10365WAT      O31336   1.382   8.244   4.716
10365WAT     H131337   1.436   8.245   4.800
10365WAT     H231338   1.441   8.269   4.639
10366WAT      O31339   7.017   3.175   3.594
10366WAT     H131340   7.007   3.255   3.535
10366WAT     H231341   7.047   3.097   3.539
10367WAT      O31342   7.445   4.094   0.005
10367WAT     H131343   7.462   4.049   0.093
10367WAT     H231344   7.363   4.151   0.012
10368WAT      O31345   8.717   5.865   7.544
10368WAT     H131346   8.746   5.781   7.498
10368WAT     H231347   8.647   5.911   7.489
10369WAT      O31348   1.568   5.089   2.891
10369WAT     H131349   1.540   5.143   2.970
10369WAT     H231350   1.603   5.000   2.922
10370WAT      O31351   8.842   4.872   6.150
10370WAT     H131352   8.744   4.854   6.164
10370WAT     H231353   8.855   4.971   6.136
10371WAT      O31354   6.946   8.688   8.690
10371WAT     H131355   6.957   8.783   8.663
10371WAT     H231356   6.868   8.679   8.751
10372WAT      O31357   7.277   8.174   7.193
10372WAT     H131358   7.233   8.097   7.240
10372WAT     H231359   7.273   8.254   7.252
10373WAT      O31360   9.794   8.951   4.285
10373WAT     H131361   9.853   9.031   4.272
10373WAT     H231362   9.700   8.980   4.297
10374WAT      O31363   0.412   6.924   9.366
10374WAT     H131364   0.501   6.889   9.336
10374WAT     H231365   0.420   6.956   9.461
10375WAT      O31366   4.786   6.948   5.910
10375WAT     H131367   4.707   6.999   5.876
10375WAT     H231368   4.766   6.912   6.001
10376WAT      O31369   8.102   9.146   4.782
10376WAT     H131370   8.114   9.081   4.708
10376WAT     H231371   8.008   9.178   4.784
10377WAT      O31372   3.497   2.504   3.335
10377WAT     H131373   3.529   2.469   3.248
10377WAT     H231374   3.526   2.600   3.345
10378WAT      O31375   4.865   1.110   4.388
10378WAT     H131376   4.888   1.102   4.291
10378WAT     H231377   4.875   1.206   4.416
10379WAT      O31378   7.987   7.227   8.039
10379WAT     H131379   8.027   7.315   8.012
10379WAT     H231380   7.907   7.208   7.982
10380WAT      O31381   3.985   8.445   5.118
10380WAT     H131382   3.979   8.542   5.141
10380WAT     H231383   3.893   8.404   5.121
10381WAT      O31384   3.241   1.308   6.697
10381WAT     H131385   3.160   1.308   6.638
10381WAT     H231386   3.264   1.401   6.724
10382WAT      O31387   3.543   8.842   6.812
10382WAT     H131388   3.489   8.923   6.835
10382WAT     H231389   3.505   8.763   6.858
10383WAT      O31390   0.851   6.449   9.396
10383WAT     H131391   0.945   6.422   9.371
10383WAT     H231392   0.837   6.434   9.494
10384WAT      O31393   1.898   9.213   5.452
10384WAT     H131394   1.971   9.192   5.388
10384WAT     H231395   1.810   9.203   5.407
10385WAT      O31396   4.490   4.535   5.424
10385WAT     H131397   4.579   4.576   5.404
10385WAT     H231398   4.428   4.552   5.348
10386WAT      O31399   6.500   9.735   2.188
10386WAT     H131400   6.498   9.724   2.288
10386WAT     H231401   6.410   9.714   2.151
10387WAT      O31402   5.560   2.181   1.826
10387WAT     H131403   5.529   2.089   1.799
10387WAT     H231404   5.658   2.180   1.841
10388WAT      O31405   2.067   1.980   4.804
10388WAT     H131406   2.145   1.971   4.867
10388WAT     H231407   2.032   2.073   4.807
10389WAT      O31408   8.995   7.714   0.312
10389WAT     H131409   8.994   7.764   0.399
10389WAT     H231410   8.923   7.749   0.253
10390WAT      O31411   0.605   0.496   3.974
10390WAT     H131412   0.531   0.468   3.913
10390WAT     H231413   0.660   0.416   3.998
10391WAT      O31414   4.539   3.682   2.193
10391WAT     H131415   4.569   3.664   2.287
10391WAT     H231416   4.445   3.717   2.194
10392WAT      O31417   6.034   8.677   1.345
10392WAT     H131418   6.083   8.765   1.352
10392WAT     H231419   5.962   8.685   1.277
10393WAT      O31420   9.377   3.532   5.564
10393WAT     H131421   9.433   3.552   5.483
10393WAT     H231422   9.410   3.448   5.607
10394WAT      O31423   5.536   5.072   9.386
10394WAT     H131424   5.583   5.024   9.311
10394WAT     H231425   5.536   5.170   9.367
10395WAT      O31426   6.265   0.285   5.798
10395WAT     H131427   6.326   0.334   5.736
10395WAT     H231428   6.306   0.198   5.824
10396WAT      O31429   0.402   8.038   2.114
10396WAT     H131430   0.369   8.091   2.036
10396WAT     H231431   0.339   8.050   2.191
10397WAT      O31432   1.947   0.262   7.319
10397WAT     H131433   1.934   0.163   7.309
10397WAT     H231434   1.878   0.310   7.265
10398WAT      O31435   5.353   3.196   0.531
10398WAT     H131436   5.451   3.184   0.515
10398WAT     H231437   5.307   3.108   0.522
10399WAT      O31438   2.307   2.089   9.611
10399WAT     H131439   2.228   2.040   9.648
10399WAT     H231440   2.286   2.120   9.518
10400WAT      O31441   5.520   8.379   5.269
10400WAT     H131442   5.616   8.358   5.289
10400WAT     H231443   5.498   8.470   5.304
10401WAT      O31444   6.778   2.901   4.642
10401WAT     H131445   6.772   2.994   4.606
10401WAT     H231446   6.766   2.836   4.567
10402WAT      O31447   3.601   4.218   6.263
10402WAT     H131448   3.558   4.216   6.354
10402WAT     H231449   3.644   4.130   6.245
10403WAT      O31450   1.633   4.895   3.085
10403WAT     H131451   1.687   4.899   3.169
10403WAT     H231452   1.536   4.905   3.108
10404WAT      O31453   9.513   6.768   0.798
10404WAT     H131454   9.562   6.799   0.717
10404WAT     H231455   9.470   6.847   0.843
10405WAT      O31456   7.819   9.178   6.474
10405WAT     H131457   7.725   9.190   6.504
10405WAT     H231458   7.872   9.260   6.496
10406WAT      O31459   0.578   2.972   2.352
10406WAT     H131460   0.658   3.032   2.360
10406WAT     H231461   0.597   2.900   2.286
10407WAT      O31462   8.115   2.682   3.271
10407WAT     H131463   8.059   2.648   3.195
10407WAT     H231464   8.084   2.773   3.297
10408WAT      O31465   2.757   7.632   1.664
10408WAT     H131466   2.797   7.547   1.631
10408WAT     H231467   2.709   7.616   1.750
10409WAT      O31468   7.415   2.617   2.824
10409WAT     H131469   7.441   2.535   2.773
10409WAT     H231470   7.364   2.679   2.764
10410WAT      O31471   5.208   4.229   6.187
10410WAT     H131472   5.175   4.321   6.204
10410WAT     H231473   5.308   4.227   6.192
10411WAT      O31474   5.155   5.513   1.865
10411WAT     H131475   5.190   5.437   1.921
10411WAT     H231476   5.059   5.529   1.889
10412WAT      O31477   4.436   6.230   0.951
10412WAT     H131478   4.482   6.231   1.040
10412WAT     H231479   4.480   6.162   0.892
10413WAT      O31480   1.322   0.705   8.959
10413WAT     H131481   1.341   0.609   8.981
10413WAT     H231482   1.407   0.749   8.929
10414WAT      O31483   3.431   7.203   1.446
10414WAT     H131484   3.475   7.292   1.438
10414WAT     H231485   3.414   7.166   1.354
10415WAT      O31486   4.610   2.472   3.731
10415WAT     H131487   4.694   2.526   3.729
10415WAT     H231488   4.545   2.509   3.665
10416WAT      O31489   5.807   8.050   4.689
10416WAT     H131490   5.820   7.985   4.615
10416WAT     H231491   5.894   8.095   4.711
10417WAT      O31492   6.040   6.467   9.714
10417WAT     H131493   6.130   6.423   9.715
10417WAT     H231494   6.039   6.540   9.645
10418WAT      O31495   4.374   5.730   9.689
10418WAT     H131496   4.452   5.792   9.694
10418WAT     H231497   4.342   5.708   9.781
10419WAT      O31498   4.835   0.816   8.550
10419WAT     H131499   4.913   0.784   8.604
10419WAT     H231500   4.863   0.893   8.493
10420WAT      O31501   4.020   8.291   0.121
10420WAT     H131502   3.935   8.305   0.069
10420WAT     H231503   4.069   8.212   0.083
10421WAT      O31504   0.257   2.503   9.821
10421WAT     H131505   0.357   2.496   9.829
10421WAT     H231506   0.230   2.473   9.730
10422WAT      O31507   8.086   2.475   4.719
10422WAT     H131508   8.072   2.513   4.811
10422WAT     H231509   7.998   2.454   4.677
10423WAT      O31510   1.801   2.160   0.610
10423WAT     H131511   1.792   2.242   0.554
10423WAT     H231512   1.786   2.184   0.706
10424WAT      O31513   8.828   0.920   8.383
10424WAT     H131514   8.828   1.016   8.356
10424WAT     H231515   8.749   0.874   8.342
10425WAT      O31516   7.561   7.812   9.546
10425WAT     H131517   7.499   7.776   9.615
10425WAT     H231518   7.642   7.851   9.590
10426WAT      O31519   4.463   3.798   9.379
10426WAT     H131520   4.448   3.823   9.475
10426WAT     H231521   4.558   3.771   9.366
10427WAT      O31522   3.071   4.286   7.877
10427WAT     H131523   3.143   4.254   7.815
10427WAT     H231524   3.074   4.385   7.885
10428WAT      O31525   3.378   0.225   2.935
10428WAT     H131526   3.438   0.150   2.962
10428WAT     H231527   3.297   0.226   2.994
10429WAT      O31528   4.782   4.442   2.334
10429WAT     H131529   4.727   4.393   2.402
10429WAT     H231530   4.875   4.405   2.333
10430WAT      O31531   9.350   4.235   7.560
10430WAT     H131532   9.297   4.248   7.644
10430WAT     H231533   9.445   4.216   7.584
10431WAT      O31534   8.518   1.528   0.990
10431WAT     H131535   8.528   1.565   1.083
10431WAT     H231536   8.450   1.455   0.990
10432WAT      O31537   3.434   3.055   7.792
10432WAT     H131538   3.462   3.058   7.696
10432WAT     H231539   3.495   2.994   7.843
10433WAT      O31540   5.149   2.454   2.084
10433WAT     H131541   5.147   2.369   2.136
10433WAT     H231542   5.139   2.435   1.987
10434WAT      O31543   8.767   5.279   9.650
10434WAT     H131544   8.827   5.327   9.586
10434WAT     H231545   8.677   5.323   9.650
10435WAT      O31546   7.390   0.523   0.657
10435WAT     H131547   7.317   0.468   0.616
10435WAT     H231548   7.443   0.467   0.721
10436WAT      O31549   6.918   0.929   1.682
10436WAT     H131550   6.868   0.885   1.607
10436WAT     H231551   6.888   0.889   1.769
10437WAT      O31552   7.601   4.072   9.180
10437WAT     H131553   7.625   4.142   9.113
10437WAT     H231554   7.677   4.059   9.243
10438WAT      O31555   2.257   6.275   3.304
10438WAT     H131556   2.270   6.178   3.326
10438WAT     H231557   2.228   6.284   3.209
10439WAT      O31558   4.911   9.010   2.141
10439WAT     H131559   4.989   9.016   2.078
10439WAT     H231560   4.920   8.927   2.196
10440WAT      O31561   5.563   5.087   7.458
10440WAT     H131562   5.539   5.006   7.512
10440WAT     H231563   5.493   5.103   7.388
10441WAT      O31564   4.543   0.087   0.783
10441WAT     H131565   4.629   0.036   0.788
10441WAT     H231566   4.545   0.162   0.849
10442WAT      O31567   1.371   0.236   0.212
10442WAT     H131568   1.402   0.232   0.117
10442WAT     H231569   1.450   0.240   0.273
10443WAT      O31570   2.355   2.729   6.949
10443WAT     H131571   2.287   2.757   7.017
10443WAT     H231572   2.327   2.761   6.858
10444WAT      O31573   4.636   3.415   0.051
10444WAT     H131574   4.727   3.387   0.018
10444WAT     H231575   4.645   3.468   0.135
10445WAT      O31576   1.438   8.561   3.200
10445WAT     H131577   1.447   8.624   3.276
10445WAT     H231578   1.428   8.612   3.115
10446WAT      O31579   9.112   9.297   2.795
10446WAT     H131580   9.138   9.354   2.717
10446WAT     H231581   9.184   9.231   2.814
10447WAT      O31582   8.898   6.546   4.926
10447WAT     H131583   8.908   6.644   4.907
10447WAT     H231584   8.826   6.508   4.867
10448WAT      O31585   8.420   0.921   4.309
10448WAT     H131586   8.402   0.992   4.241
10448WAT     H231587   8.340   0.861   4.316
10449WAT      O31588   7.143   0.277   6.330
10449WAT     H131589   7.197   0.285   6.246
10449WAT     H231590   7.203   0.287   6.409
10450WAT      O31591   4.325   5.547   0.595
10450WAT     H131592   4.392   5.473   0.591
10450WAT     H231593   4.303   5.577   0.502
10451WAT      O31594   5.074   3.298   7.077
10451WAT     H131595   5.158   3.244   7.072
10451WAT     H231596   5.072   3.364   7.002
10452WAT      O31597   6.587   3.830   2.064
10452WAT     H131598   6.487   3.829   2.074
10452WAT     H231599   6.611   3.798   1.972
10453WAT      O31600   1.489   3.367   7.606
10453WAT     H131601   1.576   3.343   7.565
10453WAT     H231602   1.457   3.454   7.569
10454WAT      O31603   2.853   0.569   5.814
10454WAT     H131604   2.886   0.662   5.796
10454WAT     H231605   2.806   0.567   5.902
10455WAT      O31606   5.724   6.718   6.900
10455WAT     H131607   5.692   6.640   6.847
10455WAT     H231608   5.792   6.768   6.846
10456WAT      O31609   1.338   4.643   8.775
10456WAT     H131610   1.328   4.545   8.758
10456WAT     H231611   1.323   4.693   8.689
10457WAT      O31612   9.399   7.835   8.803
10457WAT     H131613   9.333   7.908   8.818
10457WAT     H231614   9.351   7.749   8.787
10458WAT      O31615   3.404   4.413   8.100
10458WAT     H131616   3.457   4.337   8.138
10458WAT     H231617   3.463   4.467   8.040
10459WAT      O31618   9.113   0.363   0.634
10459WAT     H131619   9.116   0.399   0.727
10459WAT     H231620   9.063   0.426   0.575
10460WAT      O31621   6.435   6.786   5.482
10460WAT     H131622   6.357   6.844   5.504
10460WAT     H231623   6.520   6.839   5.491
10461WAT      O31624   7.178   7.170   5.068
10461WAT     H131625   7.095   7.143   5.020
10461WAT     H231626   7.154   7.209   5.156
10462WAT      O31627   9.122   2.760   1.846
10462WAT     H131628   9.202   2.816   1.868
10462WAT     H231629   9.142   2.664   1.869
10463WAT      O31630   7.665   5.376   7.491
10463WAT     H131631   7.644   5.432   7.571
10463WAT     H231632   7.700   5.287   7.521
10464WAT      O31633   3.178   0.983   4.768
10464WAT     H131634   3.207   0.913   4.833
10464WAT     H231635   3.235   1.065   4.779
10465WAT      O31636   8.483   3.652   1.834
10465WAT     H131637   8.477   3.718   1.759
10465WAT     H231638   8.453   3.562   1.802
10466WAT      O31639   3.018   2.184   3.577
10466WAT     H131640   2.931   2.231   3.589
10466WAT     H231641   3.021   2.142   3.486
10467WAT      O31642   8.294   5.204   4.723
10467WAT     H131643   8.250   5.271   4.662
10467WAT     H231644   8.319   5.123   4.670
10468WAT      O31645   1.693   0.745   2.123
10468WAT     H131646   1.748   0.780   2.048
10468WAT     H231647   1.671   0.820   2.186
10469WAT      O31648   0.139   8.489   2.248
10469WAT     H131649   0.129   8.588   2.263
10469WAT     H231650   0.097   8.464   2.161
10470WAT      O31651   6.854   2.211   6.418
10470WAT     H131652   6.877   2.159   6.336
10470WAT     H231653   6.805   2.152   6.482
10471WAT      O31654   1.988   3.166   0.301
10471WAT     H131655   2.003   3.128   0.209
10471WAT     H231656   1.917   3.113   0.347
10472WAT      O31657   4.506   5.618   1.948
10472WAT     H131658   4.523   5.707   1.991
10472WAT     H231659   4.500   5.629   1.849
10473WAT      O31660   0.795   5.889   8.927
10473WAT     H131661   0.826   5.981   8.900
10473WAT     H231662   0.875   5.829   8.938
10474WAT      O31663   4.236   6.384   4.385
10474WAT     H131664   4.244   6.294   4.343
10474WAT     H231665   4.304   6.446   4.346
10475WAT      O31666   6.850   6.162   0.174
10475WAT     H131667   6.811   6.132   0.087
10475WAT     H231668   6.804   6.246   0.204
10476WAT      O31669   1.349   6.871   2.470
10476WAT     H131670   1.332   6.923   2.553
10476WAT     H231671   1.262   6.839   2.432
10477WAT      O31672   3.237   0.232   5.516
10477WAT     H131673   3.254   0.330   5.520
10477WAT     H231674   3.306   0.188   5.458
10478WAT      O31675   7.523   7.303   0.460
10478WAT     H131676   7.586   7.365   0.411
10478WAT     H231677   7.576   7.234   0.509
10479WAT      O31678   8.550   1.128   7.033
10479WAT     H131679   8.612   1.141   6.956
10479WAT     H231680   8.604   1.114   7.117
10480WAT      O31681   7.323   9.593   5.331
10480WAT     H131682   7.361   9.510   5.372
10480WAT     H231683   7.272   9.644   5.400
10481WAT      O31684   2.577   0.876   7.696
10481WAT     H131685   2.495   0.874   7.638
10481WAT     H231686   2.657   0.896   7.640
10482WAT      O31687   7.022   0.376   5.091
10482WAT     H131688   7.059   0.299   5.142
10482WAT     H231689   7.046   0.461   5.137
10483WAT      O31690   4.246   8.313   8.745
10483WAT     H131691   4.211   8.235   8.797
10483WAT     H231692   4.312   8.281   8.677
10484WAT      O31693   9.389   4.546   4.695
10484WAT     H131694   9.465   4.521   4.755
10484WAT     H231695   9.420   4.613   4.628
10485WAT      O31696   3.827   5.950   0.770
10485WAT     H131697   3.849   5.855   0.747
10485WAT     H231698   3.730   5.967   0.754
10486WAT      O31699   2.245   5.420   9.538
10486WAT     H131700   2.283   5.373   9.618
10486WAT     H231701   2.154   5.385   9.519
10487WAT      O31702   7.929   0.991   4.229
10487WAT     H131703   7.959   1.002   4.134
10487WAT     H231704   7.864   1.064   4.253
10488WAT      O31705   1.370   0.757   2.804
10488WAT     H131706   1.294   0.759   2.739
10488WAT     H231707   1.407   0.849   2.816
10489WAT      O31708   3.137   2.580   2.165
10489WAT     H131709   3.122   2.676   2.190
10489WAT     H231710   3.235   2.564   2.153
10490WAT      O31711   3.501   4.044   1.214
10490WAT     H131712   3.478   4.109   1.141
10490WAT     H231713   3.592   4.007   1.197
10491WAT      O31714   9.245   5.973   9.272
10491WAT     H131715   9.177   5.974   9.345
10491WAT     H231716   9.330   6.013   9.305
10492WAT      O31717   8.698   1.105   3.280
10492WAT     H131718   8.767   1.039   3.311
10492WAT     H231719   8.707   1.118   3.182
10493WAT      O31720   8.656   8.665   3.459
10493WAT     H131721   8.706   8.589   3.418
10493WAT     H231722   8.721   8.737   3.485
10494WAT      O31723   3.833   5.745   1.620
10494WAT     H131724   3.828   5.843   1.598
10494WAT     H231725   3.929   5.716   1.617
10495WAT      O31726   9.652   5.202   4.858
10495WAT     H131727   9.558   5.173   4.843
10495WAT     H231728   9.710   5.122   4.873
10496WAT      O31729   3.082   4.909   4.171
10496WAT     H131730   3.067   4.811   4.185
10496WAT     H231731   3.063   4.959   4.255
10497WAT      O31732   6.180   8.953   3.461
10497WAT     H131733   6.246   8.925   3.392
10497WAT     H231734   6.228   8.973   3.547
10498WAT      O31735   4.393   4.568   1.577
10498WAT     H131736   4.303   4.612   1.581
10498WAT     H231737   4.384   4.475   1.543
10499WAT      O31738   3.976   3.710   5.734
10499WAT     H131739   3.981   3.619   5.691
10499WAT     H231740   3.881   3.729   5.760
10500WAT      O31741   0.021   0.870   3.786
10500WAT     H131742   0.073   0.891   3.703
10500WAT     H231743  -0.020   0.953   3.822
10501WAT      O31744   0.456   6.905   8.326
10501WAT     H131745   0.376   6.845   8.326
10501WAT     H231746   0.496   6.907   8.418
10502WAT      O31747   1.079   3.758   7.498
10502WAT     H131748   1.149   3.739   7.428
10502WAT     H231749   1.121   3.806   7.575
10503WAT      O31750   2.014   6.589   2.248
10503WAT     H131751   2.098   6.639   2.268
10503WAT     H231752   1.942   6.616   2.312
10504WAT      O31753   6.600   4.784   7.159
10504WAT     H131754   6.677   4.720   7.156
10504WAT     H231755   6.636   4.878   7.158
10505WAT      O31756   7.357   4.834   1.940
10505WAT     H131757   7.268   4.842   1.986
10505WAT     H231758   7.386   4.738   1.941
10506WAT      O31759   8.361   2.201   5.670
10506WAT     H131760   8.449   2.249   5.669
10506WAT     H231761   8.335   2.179   5.576
10507WAT      O31762   2.611   0.685   0.262
10507WAT     H131763   2.627   0.619   0.189
10507WAT     H231764   2.657   0.771   0.241
10508WAT      O31765   6.498   4.527   3.426
10508WAT     H131766   6.539   4.491   3.342
10508WAT     H231767   6.535   4.479   3.505
10509WAT      O31768   1.997   0.866   2.389
10509WAT     H131769   2.033   0.800   2.324
10509WAT     H231770   1.977   0.952   2.342
10510WAT      O31771   7.416   1.552   1.665
10510WAT     H131772   7.325   1.593   1.664
10510WAT     H231773   7.417   1.474   1.727
10511WAT      O31774   3.877   1.742   1.814
10511WAT     H131775   3.888   1.646   1.836
10511WAT     H231776   3.916   1.798   1.887
10512WAT      O31777   4.916   3.237   6.109
10512WAT     H131778   5.012   3.209   6.110
10512WAT     H231779   4.887   3.254   6.015
10513WAT      O31780   0.526   3.352   3.430
10513WAT     H131781   0.618   3.369   3.467
10513WAT     H231782   0.535   3.303   3.343
10514WAT      O31783   4.377   1.650   1.933
10514WAT     H131784   4.466   1.610   1.953
10514WAT     H231785   4.357   1.723   2.000
10515WAT      O31786   2.779   0.209   3.075
10515WAT     H131787   2.722   0.154   3.136
10515WAT     H231788   2.868   0.223   3.117
10516WAT      O31789   1.804   6.066   3.785
10516WAT     H131790   1.859   6.119   3.720
10516WAT     H231791   1.843   5.974   3.795
10517WAT      O31792   2.024   6.864   9.745
10517WAT     H131793   2.086   6.835   9.671
10517WAT     H231794   1.984   6.952   9.721
10518WAT      O31795   1.585   7.826   8.546
10518WAT     H131796   1.544   7.908   8.584
10518WAT     H231797   1.672   7.808   8.592
10519WAT      O31798   1.617   9.457   8.876
10519WAT     H131799   1.544   9.440   8.810
10519WAT     H231800   1.686   9.385   8.870
10520WAT      O31801   8.915   8.666   3.246
10520WAT     H131802   8.871   8.750   3.215
10520WAT     H231803   9.009   8.663   3.212
10521WAT      O31804   6.378   0.006   9.755
10521WAT     H131805   6.420   0.096   9.765
10521WAT     H231806   6.314  -0.009   9.831
10522WAT      O31807   5.586   4.295   8.432
10522WAT     H131808   5.551   4.252   8.348
10522WAT     H231809   5.529   4.268   8.510
10523WAT      O31810   8.227   4.971   4.171
10523WAT     H131811   8.191   4.895   4.226
10523WAT     H231812   8.151   5.025   4.136
10524WAT      O31813   5.560   3.685   1.110
10524WAT     H131814   5.559   3.744   1.190
10524WAT     H231815   5.605   3.599   1.132
10525WAT      O31816   9.670   0.902   0.305
10525WAT     H131817   9.658   0.871   0.399
10525WAT     H231818   9.581   0.915   0.262
10526WAT      O31819   1.269   8.276   1.244
10526WAT     H131820   1.331   8.198   1.254
10526WAT     H231821   1.261   8.299   1.147
10527WAT      O31822   0.479   0.455   4.594
10527WAT     H131823   0.395   0.408   4.623
10527WAT     H231824   0.559   0.404   4.628
10528WAT      O31825   6.199   5.453   7.741
10528WAT     H131826   6.188   5.356   7.720
10528WAT     H231827   6.278   5.490   7.692
10529WAT      O31828   8.239   5.401   2.974
10529WAT     H131829   8.268   5.324   2.918
10529WAT     H231830   8.159   5.375   3.028
10530WAT      O31831   5.679   1.106   6.198
10530WAT     H131832   5.725   1.134   6.113
10530WAT     H231833   5.603   1.045   6.176
10531WAT      O31834   3.175   8.289   8.968
10531WAT     H131835   3.250   8.240   8.924
10531WAT     H231836   3.101   8.225   8.989
10532WAT      O31837   8.897   8.502   1.500
10532WAT     H131838   8.893   8.402   1.497
10532WAT     H231839   8.925   8.531   1.591
10533WAT      O31840   0.681   1.829   5.576
10533WAT     H131841   0.681   1.926   5.602
10533WAT     H231842   0.610   1.781   5.627
10534WAT      O31843   9.294   4.886   6.516
10534WAT     H131844   9.386   4.921   6.531
10534WAT     H231845   9.244   4.949   6.455
10535WAT      O31846   9.817   5.265   9.186
10535WAT     H131847   9.736   5.248   9.243
10535WAT     H231848   9.793   5.254   9.090
10536WAT      O31849   1.159   8.051   7.975
10536WAT     H131850   1.251   8.067   8.012
10536WAT     H231851   1.165   8.041   7.876
10537WAT      O31852   2.172   6.788   4.938
10537WAT     H131853   2.104   6.861   4.948
10537WAT     H231854   2.127   6.699   4.944
10538WAT      O31855   9.676   3.851   5.390
10538WAT     H131856   9.716   3.886   5.475
10538WAT     H231857   9.642   3.927   5.335
10539WAT      O31858   5.309   2.325   7.135
10539WAT     H131859   5.406   2.311   7.158
10539WAT     H231860   5.287   2.422   7.140
10540WAT      O31861   5.860   0.779   5.682
10540WAT     H131862   5.938   0.838   5.662
10540WAT     H231863   5.785   0.801   5.620
10541WAT      O31864   2.679   8.261   2.952
10541WAT     H131865   2.607   8.211   2.905
10541WAT     H231866   2.748   8.290   2.886
10542WAT      O31867   1.752   7.304   3.352
10542WAT     H131868   1.772   7.207   3.338
10542WAT     H231869   1.655   7.321   3.334
10543WAT      O31870   7.704   8.293   7.042
10543WAT     H131871   7.741   8.231   7.112
10543WAT     H231872   7.630   8.249   6.993
10544WAT      O31873   6.428   2.080   4.955
10544WAT     H131874   6.352   2.144   4.964
10544WAT     H231875   6.393   1.987   4.952
10545WAT      O31876   1.822   4.755   4.548
10545WAT     H131877   1.843   4.842   4.594
10545WAT     H231878   1.818   4.770   4.449
10546WAT      O31879   8.864   7.387   6.260
10546WAT     H131880   8.950   7.354   6.220
10546WAT     H231881   8.787   7.336   6.222
10547WAT      O31882   7.713   3.207   0.377
10547WAT     H131883   7.801   3.254   0.387
10547WAT     H231884   7.691   3.158   0.461
10548WAT      O31885   8.564   1.569   0.195
10548WAT     H131886   8.567   1.663   0.162
10548WAT     H231887   8.571   1.506   0.117
10549WAT      O31888   7.642   2.442   3.820
10549WAT     H131889   7.554   2.398   3.841
10549WAT     H231890   7.636   2.540   3.841
10550WAT      O31891   9.122   3.105   5.329
10550WAT     H131892   9.079   3.074   5.414
10550WAT     H231893   9.114   3.034   5.260
10551WAT      O31894   5.436   3.809   9.593
10551WAT     H131895   5.390   3.745   9.654
10551WAT     H231896   5.503   3.862   9.644
10552WAT      O31897   1.316   4.432   1.206
10552WAT     H131898   1.277   4.504   1.148
10552WAT     H231899   1.241   4.378   1.245
10553WAT      O31900   4.385   4.018   4.116
10553WAT     H131901   4.377   3.981   4.209
10553WAT     H231902   4.431   4.106   4.118
10554WAT      O31903   8.636   5.406   7.492
10554WAT     H131904   8.616   5.375   7.585
10554WAT     H231905   8.630   5.328   7.429
10555WAT      O31906   0.202   2.402   9.570
10555WAT     H131907   0.183   2.468   9.498
10555WAT     H231908   0.132   2.330   9.568
10556WAT      O31909   7.290   7.418   4.546
10556WAT     H131910   7.301   7.325   4.582
10556WAT     H231911   7.304   7.484   4.619
10557WAT      O31912   5.993   4.101   9.616
10557WAT     H131913   6.087   4.132   9.621
10557WAT     H231914   5.991   4.003   9.594
10558WAT      O31915   9.699   1.221   2.363
10558WAT     H131916   9.682   1.300   2.422
10558WAT     H231917   9.796   1.214   2.342
10559WAT      O31918   5.056   7.279   8.047
10559WAT     H131919   5.134   7.293   7.987
10559WAT     H231920   5.034   7.364   8.095
10560WAT      O31921   9.840   0.820   1.692
10560WAT     H131922   9.807   0.764   1.615
10560WAT     H231923   9.884   0.761   1.759
10561WAT      O31924   9.887   6.652   2.007
10561WAT     H131925   9.815   6.619   2.068
10561WAT     H231926   9.953   6.706   2.060
10562WAT      O31927   4.367   2.806   3.702
10562WAT     H131928   4.396   2.775   3.792
10562WAT     H231929   4.430   2.875   3.668
10563WAT      O31930   4.366   8.488   3.353
10563WAT     H131931   4.308   8.442   3.421
10563WAT     H231932   4.409   8.568   3.395
10564WAT      O31933   0.345   6.986   7.300
10564WAT     H131934   0.342   7.007   7.398
10564WAT     H231935   0.328   6.889   7.285
10565WAT      O31936   7.937   0.760   6.978
10565WAT     H131937   7.945   0.782   6.881
10565WAT     H231938   8.026   0.771   7.022
10566WAT      O31939   3.468   8.619   6.969
10566WAT     H131940   3.431   8.527   6.984
10566WAT     H231941   3.411   8.686   7.017
10567WAT      O31942   0.493   8.771   6.984
10567WAT     H131943   0.571   8.711   6.999
10567WAT     H231944   0.523   8.852   6.934
10568WAT      O31945   2.900   7.454   5.590
10568WAT     H131946   2.971   7.384   5.581
10568WAT     H231947   2.903   7.492   5.683
10569WAT      O31948   3.778   4.231   4.918
10569WAT     H131949   3.774   4.233   5.018
10569WAT     H231950   3.865   4.193   4.889
10570WAT      O31951   4.503   0.898   2.697
10570WAT     H131952   4.558   0.852   2.627
10570WAT     H231953   4.411   0.859   2.697
10571WAT      O31954   0.053   8.543   3.609
10571WAT     H131955  -0.013   8.522   3.681
10571WAT     H231956   0.019   8.509   3.521
10572WAT      O31957   3.807   2.454   1.742
10572WAT     H131958   3.900   2.490   1.737
10572WAT     H231959   3.810   2.361   1.781
10573WAT      O31960   4.643   9.269   6.810
10573WAT     H131961   4.624   9.172   6.801
10573WAT     H231962   4.560   9.317   6.837
10574WAT      O31963   6.554   0.034   7.031
10574WAT     H131964   6.454   0.044   7.035
10574WAT     H231965   6.586   0.054   6.939
10575WAT      O31966   7.887   3.320   3.450
10575WAT     H131967   7.904   3.282   3.541
10575WAT     H231968   7.871   3.418   3.457
10576WAT      O31969   6.957   9.841   4.590
10576WAT     H131970   6.973   9.840   4.689
10576WAT     H231971   7.036   9.882   4.544
10577WAT      O31972   4.375   1.441   6.595
10577WAT     H131973   4.319   1.377   6.541
10577WAT     H231974   4.384   1.407   6.688
10578WAT      O31975   6.044   8.394   2.979
10578WAT     H131976   6.122   8.434   3.027
10578WAT     H231977   6.059   8.296   2.965
10579WAT      O31978   1.294   3.251   2.493
10579WAT     H131979   1.279   3.286   2.586
10579WAT     H231980   1.378   3.198   2.491
10580WAT      O31981   9.621   8.729   8.229
10580WAT     H131982   9.609   8.667   8.152
10580WAT     H231983   9.533   8.743   8.275
10581WAT      O31984   3.467   7.907   2.792
10581WAT     H131985   3.442   7.845   2.718
10581WAT     H231986   3.384   7.946   2.832
10582WAT      O31987   8.471   7.327   3.862
10582WAT     H131988   8.511   7.292   3.777
10582WAT     H231989   8.475   7.427   3.861
10583WAT      O31990   5.320   7.449   9.639
10583WAT     H131991   5.292   7.376   9.701
10583WAT     H231992   5.240   7.500   9.609
10584WAT      O31993   0.000   2.639   9.691
10584WAT     H131994  -0.046   2.676   9.771
10584WAT     H231995   0.099   2.647   9.703
10585WAT      O31996   7.221   0.349   3.153
10585WAT     H131997   7.135   0.398   3.162
10585WAT     H231998   7.296   0.415   3.150
10586WAT      O31999   0.078   9.636   1.758
10586WAT     H132000   0.053   9.699   1.684
10586WAT     H232001   0.031   9.664   1.842
10587WAT      O32002   8.652   6.855   5.097
10587WAT     H132003   8.635   6.838   5.193
10587WAT     H232004   8.651   6.953   5.079
10588WAT      O32005   6.093   3.743   9.660
10588WAT     H132006   6.073   3.710   9.752
10588WAT     H232007   6.189   3.729   9.639
10589WAT      O32008   3.618   7.588   4.433
10589WAT     H132009   3.684   7.657   4.404
10589WAT     H232010   3.600   7.598   4.531
10590WAT      O32011   3.064   1.851   8.083
10590WAT     H132012   3.121   1.882   8.159
10590WAT     H232013   3.113   1.780   8.032
10591WAT      O32014   1.429   1.815   0.100
10591WAT     H132015   1.509   1.759   0.124
10591WAT     H232016   1.456   1.911   0.094
10592WAT      O32017   4.431   6.419   9.016
10592WAT     H132018   4.456   6.459   9.104
10592WAT     H232019   4.425   6.320   9.025
10593WAT      O32020   7.934   0.932   3.491
10593WAT     H132021   7.866   1.005   3.497
10593WAT     H232022   7.888   0.846   3.468
10594WAT      O32023   6.490   1.889   0.599
10594WAT     H132024   6.578   1.859   0.563
10594WAT     H232025   6.504   1.951   0.676
10595WAT      O32026   1.236   6.042   3.250
10595WAT     H132027   1.291   5.983   3.191
10595WAT     H232028   1.175   5.986   3.306
10596WAT      O32029   7.883   1.315   8.752
10596WAT     H132030   7.855   1.397   8.801
10596WAT     H232031   7.982   1.303   8.763
10597WAT      O32032   6.040   9.360   9.859
10597WAT     H132033   6.070   9.359   9.955
10597WAT     H232034   6.107   9.410   9.804
10598WAT      O32035   1.325   4.704   0.824
10598WAT     H132036   1.305   4.610   0.851
10598WAT     H232037   1.303   4.716   0.727
10599WAT      O32038   5.134   3.035   8.461
10599WAT     H132039   5.069   3.012   8.533
10599WAT     H232040   5.165   2.952   8.415
10600WAT      O32041   9.063   2.255   4.723
10600WAT     H132042   9.147   2.238   4.672
10600WAT     H232043   9.039   2.352   4.718
10601WAT      O32044   6.619   7.149   7.338
10601WAT     H132045   6.693   7.188   7.282
10601WAT     H232046   6.632   7.175   7.433
10602WAT      O32047   2.290   5.670   5.993
10602WAT     H132048   2.385   5.685   6.020
10602WAT     H232049   2.269   5.722   5.911
10603WAT      O32050   9.284   2.134   1.714
10603WAT     H132051   9.328   2.111   1.801
10603WAT     H232052   9.353   2.131   1.641
10604WAT      O32053   9.643   6.236   6.662
10604WAT     H132054   9.588   6.288   6.727
10604WAT     H232055   9.647   6.286   6.575
10605WAT      O32056   8.488   5.769   6.939
10605WAT     H132057   8.531   5.765   6.848
10605WAT     H232058   8.477   5.865   6.966
10606WAT      O32059   0.350   2.764   1.712
10606WAT     H132060   0.444   2.796   1.722
10606WAT     H232061   0.341   2.713   1.626
10607WAT      O32062   3.788   1.304   1.389
10607WAT     H132063   3.851   1.295   1.313
10607WAT     H232064   3.816   1.381   1.447
10608WAT      O32065   4.130   8.356   1.374
10608WAT     H132066   4.204   8.302   1.332
10608WAT     H232067   4.170   8.431   1.427
10609WAT      O32068   2.971   5.015   5.188
10609WAT     H132069   3.009   4.922   5.191
10609WAT     H232070   2.874   5.012   5.212
10610WAT      O32071   7.485   8.869   6.696
10610WAT     H132072   7.516   8.892   6.788
10610WAT     H232073   7.558   8.824   6.645
10611WAT      O32074   6.710   2.332   1.742
10611WAT     H132075   6.631   2.332   1.803
10611WAT     H232076   6.680   2.303   1.650
10612WAT      O32077   9.848   4.098   7.306
10612WAT     H132078   9.892   4.169   7.251
10612WAT     H232079   9.752   4.122   7.321
10613WAT      O32080   7.309   5.043   3.883
10613WAT     H132081   7.288   5.055   3.786
10613WAT     H232082   7.282   5.124   3.933
10614WAT      O32083   7.150   0.057   6.054
10614WAT     H132084   7.156   0.060   5.954
10614WAT     H232085   7.208   0.129   6.093
10615WAT      O32086   1.801   4.807   4.285
10615WAT     H132087   1.885   4.755   4.273
10615WAT     H232088   1.740   4.791   4.207
10616WAT      O32089   9.151   4.366   4.703
10616WAT     H132090   9.108   4.418   4.777
10616WAT     H232091   9.244   4.400   4.688
10617WAT      O32092   3.291   3.729   9.358
10617WAT     H132093   3.200   3.691   9.343
10617WAT     H232094   3.320   3.710   9.452
10618WAT      O32095   6.173   9.249   0.541
10618WAT     H132096   6.248   9.192   0.574
10618WAT     H232097   6.116   9.196   0.478
10619WAT      O32098   3.395   2.458   7.599
10619WAT     H132099   3.372   2.439   7.694
10619WAT     H232100   3.335   2.405   7.539
10620WAT      O32101   0.194   5.657   3.862
10620WAT     H132102   0.224   5.626   3.953
10620WAT     H232103   0.096   5.673   3.863
10621WAT      O32104   4.701   3.037   4.619
10621WAT     H132105   4.715   3.120   4.566
10621WAT     H232106   4.777   2.974   4.602
10622WAT      O32107   2.177   3.258   4.181
10622WAT     H132108   2.213   3.264   4.088
10622WAT     H232109   2.142   3.347   4.210
10623WAT      O32110   3.034   7.766   1.307
10623WAT     H132111   3.101   7.822   1.259
10623WAT     H232112   2.948   7.815   1.313
10624WAT      O32113   5.091   2.592   3.731
10624WAT     H132114   5.155   2.647   3.784
10624WAT     H232115   5.115   2.597   3.634
10625WAT      O32116   2.460   4.789   4.798
10625WAT     H132117   2.402   4.841   4.735
10625WAT     H232118   2.503   4.713   4.750
10626WAT      O32119   2.101   3.545   9.393
10626WAT     H132120   2.060   3.568   9.481
10626WAT     H232121   2.036   3.567   9.320
10627WAT      O32122   0.930   8.084   8.387
10627WAT     H132123   1.015   8.137   8.375
10627WAT     H232124   0.945   8.012   8.454
10628WAT      O32125   7.380   6.385   2.313
10628WAT     H132126   7.301   6.328   2.292
10628WAT     H232127   7.359   6.481   2.296
10629WAT      O32128   3.038   6.891   8.386
10629WAT     H132129   3.100   6.824   8.346
10629WAT     H232130   3.047   6.978   8.338
10630WAT      O32131   1.671   3.069   5.437
10630WAT     H132132   1.603   2.997   5.421
10630WAT     H232133   1.741   3.065   5.365
10631WAT      O32134   8.215   1.190   9.124
10631WAT     H132135   8.116   1.192   9.118
10631WAT     H232136   8.244   1.101   9.160
10632WAT      O32137   2.639   5.667   4.361
10632WAT     H132138   2.645   5.750   4.417
10632WAT     H232139   2.589   5.688   4.276
10633WAT      O32140   8.788   7.807   4.351
10633WAT     H132141   8.878   7.820   4.310
10633WAT     H232142   8.771   7.709   4.363
10634WAT      O32143   0.049   5.410   7.565
10634WAT     H132144   0.053   5.473   7.487
10634WAT     H232145   0.091   5.323   7.540
10635WAT      O32146   2.692   9.175   8.031
10635WAT     H132147   2.640   9.250   7.989
10635WAT     H232148   2.647   9.088   8.011
10636WAT      O32149   3.648   1.354   0.162
10636WAT     H132150   3.746   1.357   0.180
10636WAT     H232151   3.632   1.318   0.070
10637WAT      O32152   4.342   3.516   1.159
10637WAT     H132153   4.338   3.611   1.191
10637WAT     H232154   4.298   3.509   1.069
10638WAT      O32155   4.156   0.627   6.840
10638WAT     H132156   4.228   0.563   6.865
10638WAT     H232157   4.174   0.716   6.883
10639WAT      O32158   2.553   9.393   5.908
10639WAT     H132159   2.563   9.312   5.850
10639WAT     H232160   2.462   9.393   5.951
10640WAT      O32161   8.853   6.947   1.286
10640WAT     H132162   8.948   6.929   1.311
10640WAT     H232163   8.811   7.006   1.355
10641WAT      O32164   5.981   0.958   9.797
10641WAT     H132165   6.052   0.902   9.754
10641WAT     H232166   5.924   0.901   9.855
10642WAT      O32167   9.077   4.699   9.201
10642WAT     H132168   9.039   4.768   9.264
10642WAT     H232169   9.052   4.608   9.233
10643WAT      O32170   7.049   5.983   9.415
10643WAT     H132171   7.144   5.953   9.401
10643WAT     H232172   6.988   5.905   9.404
10644WAT      O32173   3.751   7.323   2.981
10644WAT     H132174   3.728   7.358   2.890
10644WAT     H232175   3.726   7.391   3.050
10645WAT      O32176   1.688   9.572   4.518
10645WAT     H132177   1.786   9.557   4.533
10645WAT     H232178   1.666   9.550   4.422
10646WAT      O32179   3.877   5.120   6.411
10646WAT     H132180   3.784   5.118   6.448
10646WAT     H232181   3.884   5.055   6.335
10647WAT      O32182   4.711   3.285   5.519
10647WAT     H132183   4.615   3.313   5.526
10647WAT     H232184   4.766   3.362   5.486
10648WAT      O32185   5.725   6.534   5.234
10648WAT     H132186   5.631   6.508   5.259
10648WAT     H232187   5.788   6.461   5.262
10649WAT      O32188   7.349   9.710   2.185
10649WAT     H132189   7.257   9.732   2.150
10649WAT     H232190   7.417   9.746   2.122
10650WAT      O32191   5.044   0.745   8.720
10650WAT     H132192   5.076   0.651   8.713
10650WAT     H232193   5.032   0.769   8.817
10651WAT      O32194   6.699   5.196   6.072
10651WAT     H132195   6.758   5.261   6.119
10651WAT     H232196   6.633   5.246   6.016
10652WAT      O32197   9.165   9.076   9.396
10652WAT     H132198   9.165   9.175   9.403
10652WAT     H232199   9.071   9.041   9.396
10653WAT      O32200   8.363   3.162   3.323
10653WAT     H132201   8.266   3.183   3.321
10653WAT     H232202   8.388   3.111   3.240
10654WAT      O32203   7.818   5.545   0.609
10654WAT     H132204   7.906   5.518   0.571
10654WAT     H232205   7.832   5.586   0.700
10655WAT      O32206   5.991   6.173   4.046
10655WAT     H132207   5.902   6.130   4.063
10655WAT     H232208   6.064   6.107   4.065
10656WAT      O32209   1.975   3.368   1.316
10656WAT     H132210   1.878   3.347   1.322
10656WAT     H232211   2.027   3.304   1.374
10657WAT      O32212   6.888   7.104   7.846
10657WAT     H132213   6.804   7.158   7.846
10657WAT     H232214   6.961   7.155   7.893
10658WAT      O32215   0.141   4.698   4.872
10658WAT     H132216   0.211   4.745   4.819
10658WAT     H232217   0.052   4.712   4.828
10659WAT      O32218   1.708   8.399   9.288
10659WAT     H132219   1.656   8.413   9.204
10659WAT     H232220   1.734   8.303   9.295
10660WAT      O32221   5.441   8.647   5.375
10660WAT     H132222   5.414   8.646   5.279
10660WAT     H232223   5.541   8.648   5.382
10661WAT      O32224   8.692   3.830   6.354
10661WAT     H132225   8.625   3.897   6.321
10661WAT     H232226   8.644   3.748   6.385
10662WAT      O32227   1.946   0.805   6.748
10662WAT     H132228   1.916   0.878   6.687
10662WAT     H232229   1.959   0.721   6.695
10663WAT      O32230   5.787   8.213   5.385
10663WAT     H132231   5.800   8.115   5.369
10663WAT     H232232   5.747   8.227   5.475
10664WAT      O32233   5.893   3.381   2.427
10664WAT     H132234   5.980   3.397   2.379
10664WAT     H232235   5.819   3.375   2.360
10665WAT      O32236   4.992   5.414   7.108
10665WAT     H132237   5.000   5.331   7.054
10665WAT     H232238   4.942   5.395   7.192
10666WAT      O32239   7.555   4.057   7.158
10666WAT     H132240   7.640   4.073   7.207
10666WAT     H232241   7.565   4.087   7.063
10667WAT      O32242   2.334   7.587   7.343
10667WAT     H132243   2.391   7.519   7.389
10667WAT     H232244   2.392   7.659   7.305
10668WAT      O32245   1.000   0.816   9.521
10668WAT     H132246   1.036   0.897   9.474
10668WAT     H232247   1.006   0.829   9.620
10669WAT      O32248   1.694   6.276   5.957
10669WAT     H132249   1.594   6.272   5.964
10669WAT     H232250   1.733   6.299   6.046
10670WAT      O32251   6.516   6.316   1.339
10670WAT     H132252   6.462   6.314   1.256
10670WAT     H232253   6.457   6.305   1.419
10671WAT      O32254   6.765   1.674   8.846
10671WAT     H132255   6.703   1.721   8.909
10671WAT     H232256   6.738   1.694   8.751
10672WAT      O32257   5.878   4.486   8.921
10672WAT     H132258   5.915   4.393   8.912
10672WAT     H232259   5.845   4.499   9.014
10673WAT      O32260   0.298   5.613   9.430
10673WAT     H132261   0.219   5.599   9.370
10673WAT     H232262   0.267   5.628   9.523
10674WAT      O32263   1.451   9.074   6.670
10674WAT     H132264   1.381   9.026   6.723
10674WAT     H232265   1.479   9.017   6.592
10675WAT      O32266   3.676   1.715   0.882
10675WAT     H132267   3.725   1.645   0.830
10675WAT     H232268   3.736   1.794   0.896
10676WAT      O32269   6.743   8.360   8.549
10676WAT     H132270   6.825   8.400   8.509
10676WAT     H232271   6.769   8.300   8.625
10677WAT      O32272   6.988   1.799   6.434
10677WAT     H132273   6.889   1.786   6.448
10677WAT     H232274   7.002   1.849   6.348
10678WAT      O32275   5.378   4.832   8.529
10678WAT     H132276   5.446   4.800   8.595
10678WAT     H232277   5.287   4.831   8.572
10679WAT      O32278   7.022   7.222   9.361
10679WAT     H132279   6.947   7.207   9.425
10679WAT     H232280   7.038   7.320   9.351
10680WAT      O32281   0.822   6.734   1.052
10680WAT     H132282   0.833   6.702   0.958
10680WAT     H232283   0.726   6.728   1.079
10681WAT      O32284   1.100   3.970   8.564
10681WAT     H132285   1.015   3.918   8.556
10681WAT     H232286   1.084   4.051   8.619
10682WAT      O32287   8.151   4.964   1.955
10682WAT     H132288   8.058   5.003   1.957
10682WAT     H232289   8.164   4.907   2.036
10683WAT      O32290   3.529   4.616   5.954
10683WAT     H132291   3.566   4.572   5.872
10683WAT     H232292   3.549   4.560   6.034
10684WAT      O32293   8.233   2.465   8.158
10684WAT     H132294   8.198   2.371   8.147
10684WAT     H232295   8.325   2.461   8.196
10685WAT      O32296   2.430   5.204   9.441
10685WAT     H132297   2.334   5.177   9.440
10685WAT     H232298   2.457   5.240   9.352
10686WAT      O32299   7.794   2.576   7.769
10686WAT     H132300   7.822   2.672   7.762
10686WAT     H232301   7.845   2.522   7.702
10687WAT      O32302   4.893   6.596   0.660
10687WAT     H132303   4.829   6.520   0.671
10687WAT     H232304   4.853   6.665   0.599
10688WAT      O32305   4.663   8.230   3.701
10688WAT     H132306   4.755   8.191   3.695
10688WAT     H232307   4.630   8.253   3.609
10689WAT      O32308   2.078   3.416   7.946
10689WAT     H132309   2.005   3.442   7.882
10689WAT     H232310   2.049   3.438   8.039
10690WAT      O32311   7.623   2.963   3.295
10690WAT     H132312   7.684   2.931   3.222
10690WAT     H232313   7.611   2.890   3.363
10691WAT      O32314   0.760   5.574   5.326
10691WAT     H132315   0.761   5.665   5.284
10691WAT     H232316   0.846   5.560   5.376
10692WAT      O32317   8.415   7.028   9.780
10692WAT     H132318   8.480   7.103   9.766
10692WAT     H232319   8.465   6.941   9.782
10693WAT      O32320   0.462   1.991   2.402
10693WAT     H132321   0.491   1.945   2.319
10693WAT     H232322   0.542   2.011   2.459
10694WAT      O32323   1.010   2.844   7.701
10694WAT     H132324   0.953   2.829   7.782
10694WAT     H232325   1.021   2.942   7.685
10695WAT      O32326   4.531   4.218   7.800
10695WAT     H132327   4.448   4.170   7.771
10695WAT     H232328   4.506   4.291   7.864
10696WAT      O32329   8.210   6.559   5.303
10696WAT     H132330   8.121   6.557   5.350
10696WAT     H232331   8.203   6.511   5.216
10697WAT      O32332   1.393   6.270   6.673
10697WAT     H132333   1.456   6.249   6.747
10697WAT     H232334   1.329   6.340   6.703
10698WAT      O32335   1.001   4.808   6.448
10698WAT     H132336   1.090   4.819   6.492
10698WAT     H232337   0.983   4.886   6.389
10699WAT      O32338   0.531   9.325   2.644
10699WAT     H132339   0.451   9.385   2.650
10699WAT     H232340   0.601   9.369   2.587
10700WAT      O32341   6.693   2.790   3.101
10700WAT     H132342   6.732   2.882   3.103
10700WAT     H232343   6.675   2.760   3.195
10701WAT      O32344   2.038   3.934   3.061
10701WAT     H132345   1.950   3.975   3.085
10701WAT     H232346   2.044   3.843   3.103
10702WAT      O32347   5.483   7.536   0.319
10702WAT     H132348   5.459   7.447   0.358
10702WAT     H232349   5.419   7.605   0.353
10703WAT      O32350   7.494   2.520   1.621
10703WAT     H132351   7.460   2.525   1.715
10703WAT     H232352   7.429   2.470   1.564
10704WAT      O32353   0.232   2.143   3.937
10704WAT     H132354   0.209   2.236   3.911
10704WAT     H232355   0.277   2.097   3.860
10705WAT      O32356   8.201   1.291   0.703
10705WAT     H132357   8.215   1.192   0.702
10705WAT     H232358   8.290   1.336   0.697
10706WAT      O32359   1.309   1.331   6.540
10706WAT     H132360   1.283   1.326   6.443
10706WAT     H232361   1.356   1.418   6.557
10707WAT      O32362   2.072   8.804   4.630
10707WAT     H132363   2.071   8.705   4.637
10707WAT     H232364   2.083   8.832   4.535
10708WAT      O32365   7.150   7.651   0.784
10708WAT     H132366   7.073   7.704   0.819
10708WAT     H232367   7.234   7.704   0.794
10709WAT      O32368   2.548   7.971   0.381
10709WAT     H132369   2.582   7.961   0.474
10709WAT     H232370   2.622   7.954   0.316
10710WAT      O32371   6.273   8.613   3.031
10710WAT     H132372   6.283   8.712   3.016
10710WAT     H232373   6.308   8.590   3.122
10711WAT      O32374   3.682   8.350   2.779
10711WAT     H132375   3.589   8.378   2.804
10711WAT     H232376   3.718   8.287   2.847
10712WAT      O32377   4.203   1.485   3.505
10712WAT     H132378   4.128   1.540   3.468
10712WAT     H232379   4.266   1.461   3.431
10713WAT      O32380   8.134   0.970   7.227
10713WAT     H132381   8.047   0.986   7.181
10713WAT     H232382   8.187   0.903   7.174
10714WAT      O32383   4.819   5.962   2.757
10714WAT     H132384   4.752   6.021   2.803
10714WAT     H232385   4.911   5.993   2.780
10715WAT      O32386   0.700   4.249   2.044
10715WAT     H132387   0.652   4.283   1.963
10715WAT     H232388   0.634   4.213   2.110
10716WAT      O32389   2.395   0.820   7.508
10716WAT     H132390   2.344   0.750   7.558
10716WAT     H232391   2.435   0.781   7.426
10717WAT      O32392   1.461   1.477   0.220
10717WAT     H132393   1.398   1.475   0.142
10717WAT     H232394   1.542   1.531   0.196
10718WAT      O32395   0.896   6.032   0.314
10718WAT     H132396   0.971   6.020   0.249
10718WAT     H232397   0.849   6.118   0.293
10719WAT      O32398   2.947   0.409   6.798
10719WAT     H132399   2.992   0.390   6.710
10719WAT     H232400   2.890   0.331   6.824
10720WAT      O32401   7.170   3.768   9.274
10720WAT     H132402   7.179   3.726   9.184
10720WAT     H232403   7.239   3.840   9.284
10721WAT      O32404   6.830   5.341   1.278
10721WAT     H132405   6.886   5.424   1.270
10721WAT     H232406   6.733   5.365   1.271
10722WAT      O32407   4.653   7.454   3.445
10722WAT     H132408   4.706   7.536   3.422
10722WAT     H232409   4.600   7.472   3.528
10723WAT      O32410   0.479   8.751   3.314
10723WAT     H132411   0.485   8.715   3.407
10723WAT     H232412   0.486   8.850   3.315
10724WAT      O32413   6.744   6.586   7.017
10724WAT     H132414   6.700   6.560   6.932
10724WAT     H232415   6.717   6.523   7.090
10725WAT      O32416   7.541   6.693   0.690
10725WAT     H132417   7.623   6.708   0.635
10725WAT     H232418   7.534   6.597   0.715
10726WAT      O32419   3.089   7.127   5.766
10726WAT     H132420   3.142   7.075   5.833
10726WAT     H232421   2.992   7.126   5.793
10727WAT      O32422   8.052   3.505   4.550
10727WAT     H132423   7.963   3.546   4.572
10727WAT     H232424   8.077   3.527   4.456
10728WAT      O32425   0.758   7.978   6.840
10728WAT     H132426   0.837   8.013   6.790
10728WAT     H232427   0.689   8.049   6.847
10729WAT      O32428   7.383   0.106   5.602
10729WAT     H132429   7.457   0.101   5.535
10729WAT     H232430   7.370   0.201   5.631
10730WAT      O32431   0.437   9.805   7.729
10730WAT     H132432   0.363   9.791   7.795
10730WAT     H232433   0.487   9.888   7.752
10731WAT      O32434   4.338   7.922   2.096
10731WAT     H132435   4.420   7.910   2.041
10731WAT     H232436   4.258   7.920   2.037
10732WAT      O32437   0.680   8.000   7.229
10732WAT     H132438   0.600   8.021   7.286
10732WAT     H232439   0.683   8.063   7.151
10733WAT      O32440   8.719   8.636   2.894
10733WAT     H132441   8.690   8.601   2.983
10733WAT     H232442   8.752   8.561   2.837
10734WAT      O32443   3.107   7.910   3.165
10734WAT     H132444   3.070   7.843   3.230
10734WAT     H232445   3.046   7.917   3.086
10735WAT      O32446   7.188   1.528   7.939
10735WAT     H132447   7.274   1.546   7.987
10735WAT     H232448   7.117   1.502   8.005
10736WAT      O32449   6.042   3.966   0.735
10736WAT     H132450   5.948   3.991   0.756
10736WAT     H232451   6.105   4.032   0.778
10737WAT      O32452   1.098   2.038   0.195
10737WAT     H132453   1.138   2.015   0.284
10737WAT     H232454   1.142   2.121   0.160
10738WAT      O32455   3.459   2.090   7.717
10738WAT     H132456   3.542   2.144   7.724
10738WAT     H232457   3.409   2.093   7.803
10739WAT      O32458   1.125   5.644   5.958
10739WAT     H132459   1.102   5.669   6.052
10739WAT     H232460   1.204   5.582   5.959
10740WAT      O32461   6.097   8.580   4.207
10740WAT     H132462   6.056   8.634   4.281
10740WAT     H232463   6.195   8.570   4.225
10741WAT      O32464   3.181   6.536   9.447
10741WAT     H132465   3.172   6.613   9.510
10741WAT     H232466   3.238   6.562   9.369
10742WAT      O32467   3.921   6.616   9.026
10742WAT     H132468   3.832   6.574   9.007
10742WAT     H232469   3.990   6.578   8.965
10743WAT      O32470   2.607   6.972   0.356
10743WAT     H132471   2.566   6.899   0.301
10743WAT     H232472   2.674   7.021   0.301
10744WAT      O32473   6.069   4.277   5.828
10744WAT     H132474   6.068   4.300   5.731
10744WAT     H232475   6.151   4.316   5.871
10745WAT      O32476   4.689   7.113   6.163
10745WAT     H132477   4.698   7.014   6.172
10745WAT     H232478   4.605   7.144   6.206
10746WAT      O32479   2.142   0.274   0.721
10746WAT     H132480   2.189   0.351   0.764
10746WAT     H232481   2.043   0.286   0.729
10747WAT      O32482   2.511   1.467   5.555
10747WAT     H132483   2.509   1.375   5.595
10747WAT     H232484   2.592   1.516   5.588
10748WAT      O32485   6.784   0.370   4.541
10748WAT     H132486   6.877   0.367   4.578
10748WAT     H232487   6.782   0.320   4.454
10749WAT      O32488   7.132   1.743   8.358
10749WAT     H132489   7.071   1.761   8.281
10749WAT     H232490   7.104   1.798   8.436
10750WAT      O32491   9.693   3.388   5.646
10750WAT     H132492   9.781   3.343   5.658
10750WAT     H232493   9.623   3.319   5.628
10751WAT      O32494   8.449   3.304   9.460
10751WAT     H132495   8.416   3.319   9.553
10751WAT     H232496   8.547   3.284   9.462
10752WAT      O32497   0.125   8.331   7.603
10752WAT     H132498   0.187   8.336   7.681
10752WAT     H232499   0.132   8.415   7.549
10753WAT      O32500   6.580   3.010   5.267
10753WAT     H132501   6.552   3.032   5.361
10753WAT     H232502   6.636   3.085   5.232
10754WAT      O32503   4.810   1.733   5.245
10754WAT     H132504   4.865   1.715   5.326
10754WAT     H232505   4.858   1.797   5.185
10755WAT      O32506   1.110   7.202   2.382
10755WAT     H132507   1.181   7.201   2.452
10755WAT     H232508   1.074   7.295   2.372
10756WAT      O32509   4.223   1.027   1.178
10756WAT     H132510   4.302   1.088   1.173
10756WAT     H232511   4.251   0.935   1.151
10757WAT      O32512   2.620   9.424   2.617
10757WAT     H132513   2.582   9.338   2.651
10757WAT     H232514   2.589   9.438   2.523
10758WAT      O32515   2.192   6.532   9.463
10758WAT     H132516   2.255   6.608   9.449
10758WAT     H232517   2.100   6.566   9.478
10759WAT      O32518   7.999   9.213   4.482
10759WAT     H132519   7.981   9.223   4.384
10759WAT     H232520   8.044   9.125   4.499
10760WAT      O32521   3.715   9.183   4.793
10760WAT     H132522   3.703   9.226   4.703
10760WAT     H232523   3.809   9.147   4.800
10761WAT      O32524   6.403   1.157   0.596
10761WAT     H132525   6.307   1.129   0.599
10761WAT     H232526   6.430   1.173   0.501
10762WAT      O32527   7.015   0.559   9.836
10762WAT     H132528   7.018   0.463   9.865
10762WAT     H232529   6.938   0.605   9.880
10763WAT      O32530   3.135   7.758   8.110
10763WAT     H132531   3.100   7.824   8.177
10763WAT     H232532   3.198   7.804   8.048
10764WAT      O32533   7.462   1.314   8.666
10764WAT     H132534   7.496   1.361   8.585
10764WAT     H232535   7.497   1.220   8.668
10765WAT      O32536   2.141   7.439   7.202
10765WAT     H132537   2.220   7.452   7.262
10765WAT     H232538   2.096   7.352   7.225
10766WAT      O32539   3.118   2.027   9.617
10766WAT     H132540   3.175   2.108   9.605
10766WAT     H232541   3.048   2.024   9.546
10767WAT      O32542   8.212   0.974   6.070
10767WAT     H132543   8.301   1.013   6.046
10767WAT     H232544   8.146   0.994   5.997
10768WAT      O32545   7.526   9.666   1.221
10768WAT     H132546   7.557   9.729   1.291
10768WAT     H232547   7.602   9.608   1.192
10769WAT      O32548   6.899   6.138   9.583
10769WAT     H132549   6.965   6.206   9.617
10769WAT     H232550   6.946   6.075   9.521
10770WAT      O32551   3.323   9.474   9.812
10770WAT     H132552   3.274   9.561   9.819
10770WAT     H232553   3.280   9.416   9.743
10771WAT      O32554   7.188   8.693   1.297
10771WAT     H132555   7.278   8.658   1.271
10771WAT     H232556   7.127   8.691   1.218
10772WAT      O32557   4.036   7.029   2.300
10772WAT     H132558   3.975   7.104   2.324
10772WAT     H232559   4.131   7.060   2.304
10773WAT      O32560   2.972   6.917   1.531
10773WAT     H132561   2.876   6.921   1.559
10773WAT     H232562   3.029   6.957   1.602
10774WAT      O32563   0.411   0.761   4.850
10774WAT     H132564   0.494   0.707   4.861
10774WAT     H232565   0.433   0.859   4.856
10775WAT      O32566   3.411   3.266   4.480
10775WAT     H132567   3.356   3.349   4.493
10775WAT     H232568   3.496   3.275   4.533
10776WAT      O32569   8.906   3.818   8.149
10776WAT     H132570   8.881   3.914   8.159
10776WAT     H232571   8.981   3.796   8.212
10777WAT      O32572   8.952   3.265   7.737
10777WAT     H132573   8.896   3.182   7.745
10777WAT     H232574   9.010   3.273   7.818
10778WAT      O32575   5.050   7.631   8.248
10778WAT     H132576   5.045   7.728   8.222
10778WAT     H232577   4.964   7.586   8.223
10779WAT      O32578   1.697   7.197   5.254
10779WAT     H132579   1.699   7.247   5.167
10779WAT     H232580   1.715   7.100   5.238
10780WAT      O32581   9.218   0.370   1.540
10780WAT     H132582   9.251   0.318   1.618
10780WAT     H232583   9.235   0.319   1.456
10781WAT      O32584   7.454   7.603   5.480
10781WAT     H132585   7.488   7.513   5.454
10781WAT     H232586   7.389   7.635   5.410
10782WAT      O32587   3.795   3.733   9.101
10782WAT     H132588   3.716   3.672   9.094
10782WAT     H232589   3.868   3.701   9.041
10783WAT      O32590   8.524   4.881   7.081
10783WAT     H132591   8.556   4.788   7.063
10783WAT     H232592   8.427   4.888   7.058
10784WAT      O32593   9.483   7.140   4.838
10784WAT     H132594   9.507   7.063   4.898
10784WAT     H232595   9.565   7.193   4.818
10785WAT      O32596   5.195   9.463   0.087
10785WAT     H132597   5.250   9.400   0.143
10785WAT     H232598   5.222   9.557   0.107
10786WAT      O32599   9.003   2.764   9.876
10786WAT     H132600   9.039   2.818   9.799
10786WAT     H232601   9.031   2.669   9.865
10787WAT      O32602   4.798   8.567   1.929
10787WAT     H132603   4.783   8.665   1.917
10787WAT     H232604   4.859   8.552   2.007
10788WAT      O32605   1.871   8.483   6.199
10788WAT     H132606   1.923   8.398   6.193
10788WAT     H232607   1.907   8.540   6.273
10789WAT      O32608   7.373   3.200   2.382
10789WAT     H132609   7.460   3.152   2.387
10789WAT     H232610   7.342   3.204   2.287
10790WAT      O32611   6.769   5.890   8.269
10790WAT     H132612   6.784   5.822   8.341
10790WAT     H232613   6.853   5.942   8.254
10791WAT      O32614   7.560   3.013   4.917
10791WAT     H132615   7.592   3.098   4.957
10791WAT     H232616   7.617   2.990   4.837
10792WAT      O32617   4.904   8.969   6.124
10792WAT     H132618   4.806   8.987   6.135
10792WAT     H232619   4.955   9.054   6.132
10793WAT      O32620   0.204   4.188   3.225
10793WAT     H132621   0.275   4.255   3.204
10793WAT     H232622   0.239   4.096   3.209
10794WAT      O32623   8.956   8.230   0.832
10794WAT     H132624   9.035   8.281   0.798
10794WAT     H232625   8.906   8.190   0.755
10795WAT      O32626   5.377   4.396   5.101
10795WAT     H132627   5.323   4.477   5.126
10795WAT     H232628   5.351   4.319   5.159
10796WAT      O32629   1.487   3.786   6.565
10796WAT     H132630   1.432   3.850   6.618
10796WAT     H232631   1.577   3.825   6.547
10797WAT      O32632   7.032   5.386   4.472
10797WAT     H132633   7.091   5.400   4.552
10797WAT     H232634   7.043   5.462   4.408
10798WAT      O32635   0.017   5.450   3.560
10798WAT     H132636   0.003   5.548   3.572
10798WAT     H232637  -0.065   5.408   3.521
10799WAT      O32638   2.026   6.408   3.938
10799WAT     H132639   1.942   6.353   3.938
10799WAT     H232640   2.001   6.505   3.947
10800WAT      O32641   3.254   3.842   1.911
10800WAT     H132642   3.187   3.917   1.916
10800WAT     H232643   3.236   3.777   1.985
10801WAT      O32644   7.470   2.140   4.991
10801WAT     H132645   7.387   2.155   4.937
10801WAT     H232646   7.542   2.202   4.960
10802WAT      O32647   0.548   5.236   2.160
10802WAT     H132648   0.598   5.182   2.092
10802WAT     H232649   0.450   5.220   2.149
10803WAT      O32650   2.288   4.004   6.106
10803WAT     H132651   2.378   3.992   6.065
10803WAT     H232652   2.247   4.089   6.072
10804WAT      O32653   6.772   4.500   3.813
10804WAT     H132654   6.700   4.561   3.848
10804WAT     H232655   6.808   4.444   3.888
10805WAT      O32656   1.782   5.471   8.866
10805WAT     H132657   1.830   5.424   8.941
10805WAT     H232658   1.714   5.410   8.827
10806WAT      O32659   1.704   1.308   4.647
10806WAT     H132660   1.731   1.315   4.743
10806WAT     H232661   1.622   1.362   4.631
10807WAT      O32662   8.757   1.956   0.906
10807WAT     H132663   8.717   2.043   0.878
10807WAT     H232664   8.806   1.915   0.828
10808WAT      O32665   4.028   7.273   9.339
10808WAT     H132666   4.067   7.233   9.256
10808WAT     H232667   4.061   7.222   9.419
10809WAT      O32668   1.438   8.256   2.525
10809WAT     H132669   1.361   8.216   2.475
10809WAT     H232670   1.418   8.254   2.623
10810WAT      O32671   1.529   4.051   1.613
10810WAT     H132672   1.442   4.099   1.623
10810WAT     H232673   1.589   4.073   1.690
10811WAT      O32674   5.522   2.548   6.950
10811WAT     H132675   5.552   2.454   6.968
10811WAT     H232676   5.516   2.598   7.036
10812WAT      O32677   7.316   0.357   9.076
10812WAT     H132678   7.274   0.311   8.998
10812WAT     H232679   7.254   0.352   9.155
10813WAT      O32680   2.949   1.337   1.901
10813WAT     H132681   2.963   1.424   1.948
10813WAT     H232682   3.021   1.325   1.832
10814WAT      O32683   6.925   0.023   1.086
10814WAT     H132684   6.903   0.027   0.989
10814WAT     H232685   7.023   0.008   1.097
10815WAT      O32686   6.651   1.394   3.995
10815WAT     H132687   6.725   1.443   3.950
10815WAT     H232688   6.672   1.381   4.092
10816WAT      O32689   1.048   3.861   4.445
10816WAT     H132690   1.015   3.770   4.422
10816WAT     H232691   0.974   3.927   4.435
10817WAT      O32692   2.190   0.310   4.517
10817WAT     H132693   2.283   0.323   4.551
10817WAT     H232694   2.181   0.353   4.427
10818WAT      O32695   0.825   1.563   7.198
10818WAT     H132696   0.865   1.497   7.135
10818WAT     H232697   0.898   1.617   7.241
10819WAT      O32698   8.608   3.299   0.751
10819WAT     H132699   8.526   3.253   0.718
10819WAT     H232700   8.689   3.252   0.717
10820WAT      O32701   6.349   8.465   4.963
10820WAT     H132702   6.290   8.417   5.027
10820WAT     H232703   6.413   8.523   5.013
10821WAT      O32704   7.536   0.890   3.600
10821WAT     H132705   7.490   0.910   3.513
10821WAT     H232706   7.606   0.959   3.617
10822WAT      O32707   7.185   5.538   8.814
10822WAT     H132708   7.104   5.589   8.786
10822WAT     H232709   7.232   5.504   8.732
10823WAT      O32710   8.195   8.099   0.968
10823WAT     H132711   8.251   8.072   0.889
10823WAT     H232712   8.222   8.190   0.998
10824WAT      O32713   9.831   0.752   4.544
10824WAT     H132714   9.850   0.851   4.550
10824WAT     H232715   9.803   0.729   4.452
10825WAT      O32716   8.855   3.085   0.201
10825WAT     H132717   8.931   3.029   0.166
10825WAT     H232718   8.784   3.024   0.238
10826WAT      O32719   8.277   8.961   6.498
10826WAT     H132720   8.281   8.952   6.399
10826WAT     H232721   8.249   9.055   6.521
10827WAT      O32722   5.595   9.191   0.917
10827WAT     H132723   5.645   9.267   0.876
10827WAT     H232724   5.504   9.185   0.876
10828WAT      O32725   4.141   2.767   6.296
10828WAT     H132726   4.057   2.714   6.305
10828WAT     H232727   4.205   2.718   6.237
10829WAT      O32728   9.258   8.568   4.459
10829WAT     H132729   9.174   8.559   4.406
10829WAT     H232730   9.248   8.642   4.525
10830WAT      O32731   7.097   2.496   5.550
10830WAT     H132732   7.086   2.454   5.640
10830WAT     H232733   7.024   2.563   5.534
10831WAT      O32734   5.671   7.873   1.654
10831WAT     H132735   5.620   7.919   1.727
10831WAT     H232736   5.712   7.942   1.594
10832WAT      O32737   6.731   2.123   0.583
10832WAT     H132738   6.743   2.070   0.499
10832WAT     H232739   6.812   2.115   0.640
10833WAT      O32740   2.805   2.781   2.907
10833WAT     H132741   2.775   2.739   2.821
10833WAT     H232742   2.866   2.718   2.955
10834WAT      O32743   4.284   4.564   3.293
10834WAT     H132744   4.307   4.477   3.336
10834WAT     H232745   4.233   4.547   3.208
10835WAT      O32746   9.022   3.036   5.963
10835WAT     H132747   9.032   2.977   6.043
10835WAT     H232748   8.978   3.122   5.991
10836WAT      O32749   8.682   2.166   6.558
10836WAT     H132750   8.642   2.085   6.601
10836WAT     H232751   8.652   2.248   6.607
10837WAT      O32752   6.441   4.204   4.072
10837WAT     H132753   6.492   4.284   4.104
10837WAT     H232754   6.463   4.125   4.129
10838WAT      O32755   0.286   3.871   2.723
10838WAT     H132756   0.326   3.957   2.692
10838WAT     H232757   0.213   3.844   2.660
10839WAT      O32758   6.382   4.844   0.199
10839WAT     H132759   6.416   4.897   0.121
10839WAT     H232760   6.322   4.771   0.166
10840WAT      O32761   2.886   2.285   3.148
10840WAT     H132762   2.924   2.271   3.240
10840WAT     H232763   2.915   2.211   3.088
10841WAT      O32764   5.869   2.027   8.860
10841WAT     H132765   5.835   2.031   8.954
10841WAT     H232766   5.895   2.118   8.830
10842WAT      O32767   9.239   1.337   9.531
10842WAT     H132768   9.218   1.239   9.524
10842WAT     H232769   9.311   1.361   9.467
10843WAT      O32770   7.028   1.833   8.611
10843WAT     H132771   7.044   1.767   8.683
10843WAT     H232772   6.948   1.889   8.633
10844WAT      O32773   4.206   3.381   7.129
10844WAT     H132774   4.303   3.404   7.139
10844WAT     H232775   4.158   3.458   7.087
10845WAT      O32776   2.682   4.100   4.682
10845WAT     H132777   2.753   4.153   4.727
10845WAT     H232778   2.606   4.085   4.745
10846WAT      O32779   0.429   7.945   6.982
10846WAT     H132780   0.478   8.011   7.040
10846WAT     H232781   0.481   7.860   6.978
10847WAT      O32782   8.244   8.293   4.883
10847WAT     H132783   8.179   8.225   4.916
10847WAT     H232784   8.337   8.264   4.904
10848WAT      O32785   8.902   8.062   7.661
10848WAT     H132786   8.918   8.113   7.745
10848WAT     H232787   8.803   8.055   7.644
10849WAT      O32788   4.190   7.437   0.373
10849WAT     H132789   4.102   7.467   0.335
10849WAT     H232790   4.217   7.351   0.330
10850WAT      O32791   7.861   3.974   6.290
10850WAT     H132792   7.769   3.937   6.275
10850WAT     H232793   7.855   4.053   6.350
10851WAT      O32794   3.986   0.198   9.109
10851WAT     H132795   4.081   0.183   9.136
10851WAT     H232796   3.925   0.157   9.176
10852WAT      O32797   2.252   5.554   7.512
10852WAT     H132798   2.334   5.503   7.536
10852WAT     H232799   2.277   5.640   7.467
10853WAT      O32800   1.168   2.823   4.645
10853WAT     H132801   1.079   2.781   4.626
10853WAT     H232802   1.161   2.922   4.631
10854WAT      O32803   2.347   3.598   9.525
10854WAT     H132804   2.277   3.608   9.454
10854WAT     H232805   2.419   3.537   9.491
10855WAT      O32806   1.385   7.084   2.235
10855WAT     H132807   1.396   7.170   2.286
10855WAT     H232808   1.391   7.007   2.298
10856WAT      O32809   0.691   4.873   2.195
10856WAT     H132810   0.621   4.876   2.267
10856WAT     H232811   0.658   4.919   2.113
10857WAT      O32812   0.187   7.308   6.968
10857WAT     H132813   0.106   7.300   7.026
10857WAT     H232814   0.166   7.275   6.876
10858WAT      O32815   8.334   9.557   1.291
10858WAT     H132816   8.392   9.478   1.275
10858WAT     H232817   8.318   9.604   1.204
10859WAT      O32818   0.034   5.892   2.732
10859WAT     H132819  -0.014   5.923   2.814
10859WAT     H232820  -0.032   5.850   2.669
10860WAT      O32821   4.001   1.609   7.928
10860WAT     H132822   3.959   1.561   7.850
10860WAT     H232823   4.072   1.551   7.968
10861WAT      O32824   7.516   1.065   4.424
10861WAT     H132825   7.616   1.067   4.414
10861WAT     H232826   7.484   0.971   4.420
10862WAT      O32827   0.457   3.701   2.177
10862WAT     H132828   0.465   3.602   2.174
10862WAT     H232829   0.532   3.742   2.124
10863WAT      O32830   4.248   7.324   3.427
10863WAT     H132831   4.296   7.316   3.339
10863WAT     H232832   4.259   7.417   3.462
10864WAT      O32833   6.456   9.193   7.003
10864WAT     H132834   6.463   9.099   6.969
10864WAT     H232835   6.547   9.233   7.009
10865WAT      O32836   5.043   6.946   7.200
10865WAT     H132837   5.075   6.900   7.283
10865WAT     H232838   4.976   7.016   7.225
10866WAT      O32839   5.251   5.626   6.117
10866WAT     H132840   5.273   5.723   6.124
10866WAT     H232841   5.152   5.614   6.114
10867WAT      O32842   5.882   5.509   7.962
10867WAT     H132843   5.938   5.461   8.029
10867WAT     H232844   5.822   5.574   8.009
10868WAT      O32845   2.613   2.980   4.102
10868WAT     H132846   2.526   3.000   4.147
10868WAT     H232847   2.614   2.885   4.072
10869WAT      O32848   4.234   2.341   7.299
10869WAT     H132849   4.174   2.420   7.284
10869WAT     H232850   4.179   2.262   7.325
10870WAT      O32851   4.029   2.046   8.961
10870WAT     H132852   3.966   2.122   8.947
10870WAT     H232853   4.079   2.028   8.876
10871WAT      O32854   0.358   6.910   2.563
10871WAT     H132855   0.271   6.946   2.532
10871WAT     H232856   0.417   6.892   2.484
10872WAT      O32857   4.078   0.053   8.030
10872WAT     H132858   4.074  -0.044   8.053
10872WAT     H232859   4.091   0.107   8.113
10873WAT      O32860   5.632   4.769   0.334
10873WAT     H132861   5.674   4.815   0.411
10873WAT     H232862   5.679   4.682   0.317
10874WAT      O32863   2.319   4.217   4.209
10874WAT     H132864   2.382   4.142   4.190
10874WAT     H232865   2.344   4.262   4.295
10875WAT      O32866   3.343   7.137   9.550
10875WAT     H132867   3.401   7.104   9.624
10875WAT     H232868   3.401   7.177   9.478
10876WAT      O32869   6.781   4.554   8.369
10876WAT     H132870   6.703   4.562   8.430
10876WAT     H232871   6.779   4.626   8.300
10877WAT      O32872   4.003   7.385   7.484
10877WAT     H132873   3.921   7.350   7.530
10877WAT     H232874   4.014   7.338   7.396
10878WAT      O32875   4.088   0.853   3.213
10878WAT     H132876   4.038   0.935   3.183
10878WAT     H232877   4.184   0.860   3.184
10879WAT      O32878   8.710   8.325   1.843
10879WAT     H132879   8.765   8.243   1.829
10879WAT     H232880   8.710   8.349   1.940
10880WAT      O32881   3.579   5.520   3.757
10880WAT     H132882   3.657   5.583   3.764
10880WAT     H232883   3.498   5.572   3.728
10881WAT      O32884   5.128   3.359   1.140
10881WAT     H132885   5.205   3.418   1.165
10881WAT     H232886   5.065   3.410   1.081
10882WAT      O32887   3.524   5.016   8.289
10882WAT     H132888   3.489   4.929   8.256
10882WAT     H232889   3.624   5.016   8.284
10883WAT      O32890   4.515   0.827   6.216
10883WAT     H132891   4.495   0.730   6.231
10883WAT     H232892   4.602   0.836   6.167
10884WAT      O32893   8.698   8.265   5.008
10884WAT     H132894   8.749   8.273   4.922
10884WAT     H232895   8.755   8.221   5.077
10885WAT      O32896   0.266   3.301   8.803
10885WAT     H132897   0.266   3.244   8.884
10885WAT     H232898   0.359   3.306   8.766
10886WAT      O32899   4.424   8.112   5.358
10886WAT     H132900   4.412   8.037   5.293
10886WAT     H232901   4.459   8.076   5.445
10887WAT      O32902   9.604   7.779   0.674
10887WAT     H132903   9.609   7.837   0.755
10887WAT     H232904   9.634   7.686   0.697
10888WAT      O32905   6.172   5.886   8.923
10888WAT     H132906   6.093   5.840   8.963
10888WAT     H232907   6.181   5.859   8.827
10889WAT      O32908   3.603   4.204   8.233
10889WAT     H132909   3.646   4.135   8.174
10889WAT     H232910   3.560   4.159   8.311
10890WAT      O32911   8.373   8.419   0.537
10890WAT     H132912   8.380   8.427   0.637
10890WAT     H232913   8.455   8.373   0.502
10891WAT      O32914   3.095   2.996   8.437
10891WAT     H132915   3.038   2.915   8.451
10891WAT     H232916   3.105   3.045   8.524
10892WAT      O32917   3.822   1.354   5.825
10892WAT     H132918   3.805   1.340   5.922
10892WAT     H232919   3.878   1.436   5.813
10893WAT      O32920   6.034   9.329   3.655
10893WAT     H132921   6.109   9.364   3.711
10893WAT     H232922   6.065   9.321   3.560
10894WAT      O32923   9.436   3.275   5.622
10894WAT     H132924   9.379   3.222   5.684
10894WAT     H232925   9.423   3.242   5.528
10895WAT      O32926   2.952   7.302   0.815
10895WAT     H132927   2.999   7.334   0.897
10895WAT     H232928   3.001   7.223   0.777
10896WAT      O32929   1.622   6.847   0.825
10896WAT     H132930   1.642   6.911   0.752
10896WAT     H232931   1.542   6.878   0.876
10897WAT      O32932   9.424   1.864   0.713
10897WAT     H132933   9.380   1.949   0.684
10897WAT     H232934   9.522   1.871   0.699
10898WAT      O32935   2.735   2.848   0.359
10898WAT     H132936   2.786   2.930   0.336
10898WAT     H232937   2.642   2.853   0.321
10899WAT      O32938   6.020   1.560   2.323
10899WAT     H132939   5.964   1.493   2.273
10899WAT     H232940   6.027   1.644   2.269
10900WAT      O32941   9.323   2.960   3.904
10900WAT     H132942   9.393   2.890   3.884
10900WAT     H232943   9.260   2.966   3.827
10901WAT      O32944   7.254   9.620   1.240
10901WAT     H132945   7.208   9.557   1.178
10901WAT     H232946   7.352   9.624   1.217
10902WAT      O32947   5.625   0.183   5.002
10902WAT     H132948   5.627   0.248   5.078
10902WAT     H232949   5.575   0.223   4.925
10903WAT      O32950   1.800   6.949   5.194
10903WAT     H132951   1.868   6.952   5.121
10903WAT     H232952   1.736   6.874   5.177
10904WAT      O32953   5.315   1.721   6.390
10904WAT     H132954   5.312   1.699   6.487
10904WAT     H232955   5.406   1.703   6.354
10905WAT      O32956   3.319   2.566   8.667
10905WAT     H132957   3.281   2.624   8.738
10905WAT     H232958   3.382   2.500   8.707
10906WAT      O32959   7.869   8.368   6.565
10906WAT     H132960   7.946   8.403   6.511
10906WAT     H232961   7.898   8.350   6.658
10907WAT      O32962   7.779   3.642   2.862
10907WAT     H132963   7.744   3.564   2.913
10907WAT     H232964   7.704   3.687   2.813
10908WAT      O32965   1.098   4.034   1.018
10908WAT     H132966   1.151   3.974   0.958
10908WAT     H232967   1.051   4.103   0.963
10909WAT      O32968   8.757   7.175   3.219
10909WAT     H132969   8.818   7.134   3.286
10909WAT     H232970   8.809   7.230   3.154
10910WAT      O32971   9.572   7.175   0.444
10910WAT     H132972   9.483   7.131   0.432
10910WAT     H232973   9.559   7.267   0.480
10911WAT      O32974   0.976   0.548   9.530
10911WAT     H132975   0.979   0.648   9.526
10911WAT     H232976   0.893   0.516   9.486
10912WAT      O32977   1.482   2.912   7.729
10912WAT     H132978   1.562   2.968   7.710
10912WAT     H232979   1.417   2.920   7.654
10913WAT      O32980   4.759   4.517   1.324
10913WAT     H132981   4.769   4.568   1.409
10913WAT     H232982   4.694   4.565   1.264
10914WAT      O32983   5.900   0.482   0.336
10914WAT     H132984   5.915   0.440   0.425
10914WAT     H232985   5.924   0.579   0.341
10915WAT      O32986   1.157   7.482   1.035
10915WAT     H132987   1.243   7.475   1.087
10915WAT     H232988   1.120   7.390   1.020
10916WAT      O32989   9.827   5.489   7.805
10916WAT     H132990   9.861   5.472   7.713
10916WAT     H232991   9.853   5.413   7.865
10917WAT      O32992   4.372   7.088   0.056
10917WAT     H132993   4.323   7.071  -0.030
10917WAT     H232994   4.469   7.104   0.037
10918WAT      O32995   7.784   2.433   6.670
10918WAT     H132996   7.760   2.348   6.624
10918WAT     H232997   7.752   2.430   6.765
10919WAT      O32998   1.936   7.593   0.074
10919WAT     H132999   1.865   7.638   0.020
10919WAT     H233000   1.955   7.647   0.156
10920WAT      O33001   9.634   4.494   4.838
10920WAT     H133002   9.603   4.464   4.928
10920WAT     H233003   9.730   4.469   4.826
10921WAT      O33004   7.370   3.029   7.010
10921WAT     H133005   7.279   2.992   7.029
10921WAT     H233006   7.370   3.128   7.026
10922WAT      O33007   2.297   6.504   6.728
10922WAT     H133008   2.388   6.483   6.762
10922WAT     H233009   2.293   6.490   6.629
10923WAT      O33010   6.023   9.804   6.752
10923WAT     H133011   5.977   9.757   6.677
10923WAT     H233012   5.979   9.781   6.838
10924WAT      O33013   0.772   7.361   6.035
10924WAT     H133014   0.824   7.286   6.075
10924WAT     H233015   0.689   7.376   6.089
10925WAT      O33016   7.941   7.554   5.552
10925WAT     H133017   7.986   7.623   5.608
10925WAT     H233018   7.911   7.478   5.610
10926WAT      O33019   2.247   9.161   6.695
10926WAT     H133020   2.189   9.242   6.707
10926WAT     H233021   2.256   9.113   6.782
10927WAT      O33022   3.940   4.231   7.196
10927WAT     H133023   3.912   4.320   7.160
10927WAT     H233024   4.008   4.191   7.136
10928WAT      O33025   8.530   6.058   6.789
10928WAT     H133026   8.490   6.018   6.707
10928WAT     H233027   8.571   6.146   6.766
10929WAT      O33028   0.472   5.436   7.307
10929WAT     H133029   0.497   5.421   7.403
10929WAT     H233030   0.431   5.353   7.270
10930WAT      O33031   4.305   9.310   5.003
10930WAT     H133032   4.331   9.222   4.962
10930WAT     H233033   4.375   9.339   5.068
10931WAT      O33034   9.142   9.813   8.101
10931WAT     H133035   9.114   9.717   8.096
10931WAT     H233036   9.061   9.871   8.102
10932WAT      O33037   0.841   1.998   0.263
10932WAT     H133038   0.791   2.083   0.246
10932WAT     H233039   0.933   2.005   0.224
10933WAT      O33040   5.866   6.508   3.316
10933WAT     H133041   5.911   6.595   3.299
10933WAT     H233042   5.767   6.518   3.302
10934WAT      O33043   7.367   3.888   4.585
10934WAT     H133044   7.420   3.837   4.653
10934WAT     H233045   7.295   3.940   4.631
10935WAT      O33046   9.556   1.798   8.714
10935WAT     H133047   9.503   1.882   8.726
10935WAT     H233048   9.538   1.759   8.624
10936WAT      O33049   3.893   9.178   2.926
10936WAT     H133050   3.804   9.166   2.882
10936WAT     H233051   3.881   9.190   3.024
10937WAT      O33052   7.698   6.860   3.295
10937WAT     H133053   7.728   6.764   3.287
10937WAT     H233054   7.627   6.866   3.366
10938WAT      O33055   8.031   8.659   7.471
10938WAT     H133056   8.062   8.741   7.423
10938WAT     H233057   8.110   8.610   7.509
10939WAT      O33058   8.288   4.909   9.113
10939WAT     H133059   8.241   4.844   9.173
10939WAT     H233060   8.259   4.894   9.018
10940WAT      O33061   1.302   1.101   7.666
10940WAT     H133062   1.209   1.072   7.641
10940WAT     H233063   1.308   1.201   7.658
10941WAT      O33064   3.588   7.878   6.988
10941WAT     H133065   3.589   7.880   6.888
10941WAT     H233066   3.584   7.783   7.019
10942WAT      O33067   6.762   0.267   0.887
10942WAT     H133068   6.811   0.339   0.837
10942WAT     H233069   6.809   0.180   0.875
10943WAT      O33070   5.095   5.904   4.950
10943WAT     H133071   5.020   5.955   4.993
10943WAT     H233072   5.062   5.813   4.923
10944WAT      O33073   2.508   9.235   1.129
10944WAT     H133074   2.455   9.296   1.069
10944WAT     H233075   2.504   9.142   1.093
10945WAT      O33076   4.560   4.320   3.896
10945WAT     H133077   4.521   4.315   3.988
10945WAT     H233078   4.659   4.306   3.901
10946WAT      O33079   7.849   0.050   5.204
10946WAT     H133080   7.919   0.110   5.165
10946WAT     H233081   7.771   0.045   5.141
10947WAT      O33082   0.080   4.881   2.608
10947WAT     H133083   0.079   4.781   2.617
10947WAT     H233084   0.038   4.922   2.689
10948WAT      O33085   8.335   1.720   1.188
10948WAT     H133086   8.369   1.766   1.106
10948WAT     H233087   8.238   1.698   1.176
10949WAT      O33088   2.394   7.307   4.877
10949WAT     H133089   2.398   7.236   4.947
10949WAT     H233090   2.486   7.322   4.840
10950WAT      O33091   6.905   5.612   7.252
10950WAT     H133092   6.902   5.677   7.176
10950WAT     H233093   6.825   5.552   7.248
10951WAT      O33094   6.321   1.281   5.605
10951WAT     H133095   6.302   1.236   5.518
10951WAT     H233096   6.249   1.349   5.624
10952WAT      O33097   2.205   6.485   9.790
10952WAT     H133098   2.141   6.424   9.838
10952WAT     H233099   2.215   6.455   9.695
10953WAT      O33100   3.079   7.337   9.092
10953WAT     H133101   3.087   7.292   9.180
10953WAT     H233102   3.017   7.416   9.100
10954WAT      O33103   4.920   9.339   1.182
10954WAT     H133104   4.881   9.280   1.112
10954WAT     H233105   4.975   9.285   1.245
10955WAT      O33106   1.189   2.194   4.566
10955WAT     H133107   1.219   2.142   4.486
10955WAT     H233108   1.093   2.221   4.554
10956WAT      O33109   6.343   7.436   2.913
10956WAT     H133110   6.357   7.339   2.936
10956WAT     H233111   6.275   7.476   2.974
10957WAT      O33112   2.361   4.986   5.963
10957WAT     H133113   2.283   4.938   5.924
10957WAT     H233114   2.397   5.051   5.896
10958WAT      O33115   0.248   6.886   6.277
10958WAT     H133116   0.277   6.844   6.191
10958WAT     H233117   0.236   6.816   6.347
10959WAT      O33118   3.539   4.048   9.099
10959WAT     H133119   3.621   4.047   9.156
10959WAT     H233120   3.496   3.958   9.100
10960WAT      O33121   4.126   3.606   9.334
10960WAT     H133122   4.214   3.562   9.348
10960WAT     H233123   4.137   3.705   9.334
10961WAT      O33124   0.099   7.420   6.010
10961WAT     H133125   0.069   7.474   5.931
10961WAT     H233126   0.019   7.384   6.057
10962WAT      O33127   6.896   4.849   6.153
10962WAT     H133128   6.930   4.924   6.211
10962WAT     H233129   6.884   4.882   6.060
10963WAT      O33130   5.003   6.529   2.888
10963WAT     H133131   4.941   6.585   2.943
10963WAT     H233132   5.062   6.589   2.834
10964WAT      O33133   3.018   6.323   3.678
10964WAT     H133134   2.998   6.372   3.592
10964WAT     H233135   3.101   6.269   3.667
10965WAT      O33136   2.768   6.915   0.989
10965WAT     H133137   2.756   7.013   0.975
10965WAT     H233138   2.820   6.899   1.073
10966WAT      O33139   6.262   3.241   2.483
10966WAT     H133140   6.271   3.215   2.386
10966WAT     H233141   6.322   3.318   2.502
10967WAT      O33142   3.730   5.758   1.898
10967WAT     H133143   3.635   5.787   1.894
10967WAT     H233144   3.754   5.710   1.814
10968WAT      O33145   3.183   3.783   0.701
10968WAT     H133146   3.159   3.690   0.672
10968WAT     H233147   3.277   3.784   0.735
10969WAT      O33148   9.748   1.468   3.025
10969WAT     H133149   9.774   1.552   2.978
10969WAT     H233150   9.736   1.395   2.957
10970WAT      O33151   5.927   3.667   1.206
10970WAT     H133152   5.848   3.606   1.196
10970WAT     H233153   5.966   3.686   1.115
10971WAT      O33154   6.791   4.925   0.793
10971WAT     H133155   6.774   4.856   0.722
10971WAT     H233156   6.873   4.978   0.769
10972WAT      O33157   8.576   5.824   5.692
10972WAT     H133158   8.646   5.893   5.676
10972WAT     H233159   8.543   5.789   5.604
10973WAT      O33160   8.927   9.569   1.550
10973WAT     H133161   8.836   9.610   1.550
10973WAT     H233162   8.995   9.637   1.577
10974WAT      O33163   0.182   1.676   7.061
10974WAT     H133164   0.087   1.662   7.030
10974WAT     H233165   0.244   1.628   7.000
10975WAT      O33166   8.141   0.748   3.633
10975WAT     H133167   8.083   0.685   3.684
10975WAT     H233168   8.113   0.842   3.650
10976WAT      O33169   2.597   7.683   8.522
10976WAT     H133170   2.548   7.694   8.608
10976WAT     H233171   2.689   7.722   8.530
10977WAT      O33172   4.757   9.264   4.464
10977WAT     H133173   4.792   9.235   4.375
10977WAT     H233174   4.832   9.297   4.521
10978WAT      O33175   8.531   8.953   1.993
10978WAT     H133176   8.621   8.996   1.988
10978WAT     H233177   8.460   9.024   1.995
10979WAT      O33178   4.478   7.762   2.896
10979WAT     H133179   4.434   7.718   2.818
10979WAT     H233180   4.525   7.692   2.952
10980WAT      O33181   6.856   7.617   6.674
10980WAT     H133182   6.952   7.593   6.683
10980WAT     H233183   6.841   7.710   6.705
10981WAT      O33184   0.054   0.840   3.343
10981WAT     H133185   0.138   0.841   3.397
10981WAT     H233186   0.073   0.806   3.251
10982WAT      O33187   1.744   3.345   0.486
10982WAT     H133188   1.692   3.321   0.568
10982WAT     H233189   1.817   3.409   0.511
10983WAT      O33190   3.804   5.475   9.503
10983WAT     H133191   3.791   5.565   9.544
10983WAT     H233192   3.856   5.417   9.565
10984WAT      O33193   2.308   5.714   5.242
10984WAT     H133194   2.308   5.632   5.299
10984WAT     H233195   2.254   5.696   5.159
10985WAT      O33196   8.759   6.607   1.782
10985WAT     H133197   8.665   6.585   1.808
10985WAT     H233198   8.770   6.593   1.683
10986WAT      O33199   4.716   4.438   5.188
10986WAT     H133200   4.656   4.377   5.241
10986WAT     H233201   4.744   4.515   5.246
10987WAT      O33202   3.891   2.337   2.701
10987WAT     H133203   3.819   2.299   2.643
10987WAT     H233204   3.980   2.301   2.670
10988WAT      O33205   6.858   5.430   3.091
10988WAT     H133206   6.947   5.405   3.053
10988WAT     H233207   6.869   5.506   3.155
10989WAT      O33208   0.088   6.148   2.667
10989WAT     H133209   0.140   6.177   2.747
10989WAT     H233210   0.071   6.049   2.673
10990WAT      O33211   5.043   6.333   0.164
10990WAT     H133212   4.993   6.397   0.106
10990WAT     H233213   5.035   6.361   0.260
10991WAT      O33214   1.566   8.263   4.519
10991WAT     H133215   1.630   8.317   4.466
10991WAT     H233216   1.608   8.176   4.544
10992WAT      O33217   0.636   0.659   9.347
10992WAT     H133218   0.556   0.713   9.319
10992WAT     H233219   0.616   0.612   9.433
10993WAT      O33220   7.072   3.695   1.535
10993WAT     H133221   7.078   3.672   1.438
10993WAT     H233222   7.031   3.619   1.585
10994WAT      O33223   7.562   8.032   7.186
10994WAT     H133224   7.526   7.964   7.122
10994WAT     H233225   7.486   8.076   7.234
10995WAT      O33226   3.300   4.661   2.262
10995WAT     H133227   3.249   4.627   2.341
10995WAT     H233228   3.343   4.748   2.285
10996WAT      O33229   3.749   4.969   6.189
10996WAT     H133230   3.682   4.987   6.261
10996WAT     H233231   3.704   4.925   6.112
10997WAT      O33232   0.082   9.332   1.059
10997WAT     H133233  -0.014   9.338   1.030
10997WAT     H233234   0.088   9.337   1.158
10998WAT      O33235   8.239   5.661   8.635
10998WAT     H133236   8.271   5.572   8.670
10998WAT     H233237   8.295   5.734   8.674
10999WAT      O33238   7.659   5.329   6.086
10999WAT     H133239   7.657   5.390   6.165
10999WAT     H233240   7.611   5.245   6.107
11000WAT      O33241   8.353   7.927   1.474
11000WAT     H133242   8.381   8.005   1.417
11000WAT     H233243   8.270   7.951   1.525
11001WAT      O33244   1.414   5.495   7.480
11001WAT     H133245   1.469   5.420   7.516
11001WAT     H233246   1.339   5.458   7.426
11002WAT      O33247   8.947   5.416   9.493
11002WAT     H133248   8.918   5.493   9.437
11002WAT     H233249   8.994   5.349   9.437
11003WAT      O33250   1.886   6.273   1.096
11003WAT     H133251   1.875   6.177   1.121
11003WAT     H233252   1.979   6.303   1.115
11004WAT      O33253   6.025   6.449   1.291
11004WAT     H133254   6.118   6.487   1.288
11004WAT     H233255   6.011   6.389   1.212
11005WAT      O33256   8.840   8.913   3.531
11005WAT     H133257   8.827   8.997   3.477
11005WAT     H233258   8.933   8.879   3.516
11006WAT      O33259   2.442   6.274   3.694
11006WAT     H133260   2.458   6.369   3.723
11006WAT     H233261   2.513   6.216   3.734
11007WAT      O33262   3.063   5.858   3.745
11007WAT     H133263   3.117   5.892   3.668
11007WAT     H233264   3.094   5.766   3.769
11008WAT      O33265   9.619   0.754   6.397
11008WAT     H133266   9.636   0.807   6.480
11008WAT     H233267   9.541   0.693   6.412
11009WAT      O33268   9.747   0.083   4.006
11009WAT     H133269   9.676   0.150   3.985
11009WAT     H233270   9.795   0.110   4.089
11010WAT      O33271   5.938   6.905   2.368
11010WAT     H133272   5.864   6.970   2.353
11010WAT     H233273   6.024   6.955   2.379
11011WAT      O33274   8.859   9.151   3.422
11011WAT     H133275   8.887   9.209   3.345
11011WAT     H233276   8.773   9.184   3.460
11012WAT      O33277   9.323   3.194   5.107
11012WAT     H133278   9.231   3.172   5.076
11012WAT     H233279   9.389   3.156   5.042
11013WAT      O33280   4.774   6.326   0.975
11013WAT     H133281   4.850   6.389   0.958
11013WAT     H233282   4.785   6.245   0.918
11014WAT      O33283   1.858   7.811   8.581
11014WAT     H133284   1.856   7.825   8.482
11014WAT     H233285   1.918   7.734   8.603
11015WAT      O33286   8.811   3.606   5.920
11015WAT     H133287   8.860   3.530   5.878
11015WAT     H233288   8.716   3.607   5.887
11016WAT      O33289   5.090   1.969   0.804
11016WAT     H133290   5.040   1.966   0.717
11016WAT     H233291   5.085   2.062   0.841
11017WAT      O33292   8.538   1.943   6.658
11017WAT     H133293   8.460   1.981   6.707
11017WAT     H233294   8.595   1.890   6.721
11018WAT      O33295   9.064   8.795   7.836
11018WAT     H133296   9.059   8.703   7.875
11018WAT     H233297   8.975   8.821   7.800
11019WAT      O33298   4.939   2.559   1.186
11019WAT     H133299   4.844   2.553   1.155
11019WAT     H233300   4.958   2.484   1.250
11020WAT      O33301   2.597   3.108   5.522
11020WAT     H133302   2.611   3.074   5.429
11020WAT     H233303   2.633   3.042   5.587
11021WAT      O33304   6.850   6.599   9.172
11021WAT     H133305   6.891   6.524   9.223
11021WAT     H233306   6.825   6.568   9.080
11022WAT      O33307   0.442   6.065   3.901
11022WAT     H133308   0.389   6.147   3.880
11022WAT     H233309   0.382   5.985   3.895
11023WAT      O33310   4.168   3.975   3.325
11023WAT     H133311   4.268   3.981   3.329
11023WAT     H233312   4.141   3.930   3.240
11024WAT      O33313   0.701   5.739   8.114
11024WAT     H133314   0.627   5.673   8.096
11024WAT     H233315   0.768   5.735   8.039
11025WAT      O33316   4.889   2.477   6.942
11025WAT     H133317   4.971   2.531   6.922
11025WAT     H233318   4.821   2.493   6.871
11026WAT      O33319   9.483   8.155   2.514
11026WAT     H133320   9.513   8.063   2.489
11026WAT     H233321   9.387   8.166   2.488
11027WAT      O33322   3.317   8.881   8.118
11027WAT     H133323   3.317   8.919   8.211
11027WAT     H233324   3.411   8.871   8.086
11028WAT      O33325   2.397   6.596   0.030
11028WAT     H133326   2.385   6.553   0.120
11028WAT     H233327   2.335   6.552  -0.035
11029WAT      O33328   5.349   8.348   4.236
11029WAT     H133329   5.439   8.328   4.273
11029WAT     H233330   5.286   8.371   4.311
11030WAT      O33331   3.311   8.840   5.001
11030WAT     H133332   3.252   8.825   5.080
11030WAT     H233333   3.285   8.925   4.956
11031WAT      O33334   3.122   2.722   3.183
11031WAT     H133335   3.161   2.649   3.240
11031WAT     H233336   3.103   2.802   3.240
11032WAT      O33337   0.214   5.751   8.057
11032WAT     H133338   0.181   5.751   7.963
11032WAT     H233339   0.146   5.707   8.116
11033WAT      O33340   0.908   1.881   4.718
11033WAT     H133341   0.913   1.944   4.795
11033WAT     H233342   0.885   1.789   4.750
11034WAT      O33343   0.961   4.603   7.472
11034WAT     H133344   0.955   4.547   7.555
11034WAT     H233345   1.054   4.636   7.461
11035WAT      O33346   8.298   8.841   8.480
11035WAT     H133347   8.276   8.801   8.391
11035WAT     H233348   8.397   8.852   8.488
11036WAT      O33349   4.099   0.143   0.624
11036WAT     H133350   4.150   0.075   0.676
11036WAT     H233351   4.157   0.222   0.606
11037WAT      O33352   8.441   0.718   7.495
11037WAT     H133353   8.531   0.742   7.533
11037WAT     H233354   8.395   0.801   7.465
11038WAT      O33355   2.319   0.097   8.681
11038WAT     H133356   2.387   0.028   8.701
11038WAT     H233357   2.327   0.126   8.586
11039WAT      O33358   6.863   2.914   1.316
11039WAT     H133359   6.850   2.841   1.249
11039WAT     H233360   6.794   2.906   1.388
11040WAT      O33361   2.926   0.373   9.054
11040WAT     H133362   3.002   0.420   9.099
11040WAT     H233363   2.961   0.293   9.004
11041WAT      O33364   9.438   4.414   8.408
11041WAT     H133365   9.410   4.501   8.450
11041WAT     H233366   9.518   4.429   8.350
11042WAT      O33367   7.627   8.266   3.800
11042WAT     H133368   7.555   8.296   3.737
11042WAT     H233369   7.653   8.343   3.859
11043WAT      O33370   6.024   8.603   5.705
11043WAT     H133371   6.002   8.652   5.620
11043WAT     H233372   6.031   8.668   5.780
11044WAT      O33373   3.648   8.552   0.877
11044WAT     H133374   3.676   8.632   0.931
11044WAT     H233375   3.627   8.580   0.784
11045WAT      O33376   6.469   0.549   6.526
11045WAT     H133377   6.537   0.592   6.466
11045WAT     H233378   6.389   0.608   6.534
11046WAT      O33379   0.050   0.353   4.448
11046WAT     H133380   0.114   0.290   4.491
11046WAT     H233381   0.099   0.413   4.384
11047WAT      O33382   3.745   2.843   7.070
11047WAT     H133383   3.737   2.779   7.147
11047WAT     H233384   3.748   2.792   6.984
11048WAT      O33385   8.083   7.548   1.212
11048WAT     H133386   8.142   7.609   1.265
11048WAT     H233387   8.129   7.523   1.127
11049WAT      O33388   8.226   6.995   6.166
11049WAT     H133389   8.262   6.916   6.116
11049WAT     H233390   8.252   6.988   6.263
11050WAT      O33391   6.806   6.246   0.690
11050WAT     H133392   6.775   6.223   0.782
11050WAT     H233393   6.823   6.162   0.638
11051WAT      O33394   0.305   3.744   3.504
11051WAT     H133395   0.339   3.828   3.462
11051WAT     H233396   0.335   3.740   3.599
11052WAT      O33397   1.362   3.280   0.011
11052WAT     H133398   1.459   3.304   0.016
11052WAT     H233399   1.349   3.209  -0.059
11053WAT      O33400   0.523   2.987   6.902
11053WAT     H133401   0.534   3.019   6.808
11053WAT     H233402   0.572   3.049   6.964
11054WAT      O33403   0.335   5.778   6.463
11054WAT     H133404   0.395   5.714   6.511
11054WAT     H233405   0.319   5.746   6.370
11055WAT      O33406   5.981   8.494   6.868
11055WAT     H133407   6.078   8.477   6.884
11055WAT     H233408   5.929   8.410   6.883
11056WAT      O33409   5.768   8.708   3.547
11056WAT     H133410   5.840   8.639   3.537
11056WAT     H233411   5.742   8.742   3.457
11057WAT      O33412   3.325   7.876   7.925
11057WAT     H133413   3.396   7.862   7.856
11057WAT     H233414   3.305   7.974   7.932
11058WAT      O33415   4.703   6.398   2.582
11058WAT     H133416   4.682   6.415   2.678
11058WAT     H233417   4.620   6.369   2.534
11059WAT      O33418   8.847   3.747   8.551
11059WAT     H133419   8.786   3.670   8.533
11059WAT     H233420   8.935   3.713   8.585
11060WAT      O33421   8.171   7.544   1.547
11060WAT     H133422   8.221   7.459   1.531
11060WAT     H233423   8.206   7.616   1.488
11061WAT      O33424   6.034   9.207   1.401
11061WAT     H133425   5.957   9.264   1.429
11061WAT     H233426   6.106   9.212   1.471
11062WAT      O33427   3.464   7.353   0.397
11062WAT     H133428   3.507   7.335   0.309
11062WAT     H233429   3.370   7.384   0.383
11063WAT      O33430   2.269   6.437   7.973
11063WAT     H133431   2.245   6.346   7.940
11063WAT     H233432   2.187   6.480   8.012
11064WAT      O33433   3.847   7.264   2.060
11064WAT     H133434   3.783   7.333   2.095
11064WAT     H233435   3.814   7.173   2.084
11065WAT      O33436   2.410   1.436   3.223
11065WAT     H133437   2.476   1.487   3.168
11065WAT     H233438   2.456   1.361   3.269
11066WAT      O33439   2.972   9.613   3.252
11066WAT     H133440   2.910   9.673   3.200
11066WAT     H233441   3.066   9.637   3.231
11067WAT      O33442   3.166   1.248   3.499
11067WAT     H133443   3.117   1.239   3.585
11067WAT     H233444   3.164   1.161   3.450
11068WAT      O33445   0.609   5.477   3.753
11068WAT     H133446   0.641   5.407   3.689
11068WAT     H233447   0.537   5.532   3.711
11069WAT      O33448   6.504   7.970   5.685
11069WAT     H133449   6.477   8.049   5.630
11069WAT     H233450   6.535   7.896   5.625
11070WAT      O33451   9.467   1.390   5.509
11070WAT     H133452   9.473   1.352   5.601
11070WAT     H233453   9.545   1.451   5.493
11071WAT      O33454   2.611   1.456   2.802
11071WAT     H133455   2.602   1.520   2.725
11071WAT     H233456   2.538   1.388   2.796
11072WAT      O33457   8.467   6.071   4.501
11072WAT     H133458   8.546   6.071   4.439
11072WAT     H233459   8.499   6.088   4.595
11073WAT      O33460   0.826   3.683   0.757
11073WAT     H133461   0.835   3.710   0.661
11073WAT     H233462   0.915   3.655   0.792
11074WAT      O33463   0.235   2.410   7.084
11074WAT     H133464   0.261   2.390   6.989
11074WAT     H233465   0.171   2.487   7.085
11075WAT      O33466   8.415   1.798   3.126
11075WAT     H133467   8.363   1.835   3.203
11075WAT     H233468   8.400   1.855   3.046
11076WAT      O33469   9.112   9.437   1.378
11076WAT     H133470   9.055   9.449   1.459
11076WAT     H233471   9.166   9.519   1.362
11077WAT      O33472   9.835   1.407   0.947
11077WAT     H133473   9.837   1.403   0.848
11077WAT     H233474   9.914   1.459   0.980
11078WAT      O33475   2.337   8.218   0.866
11078WAT     H133476   2.358   8.184   0.958
11078WAT     H233477   2.263   8.164   0.827
11079WAT      O33478   4.258   2.912   2.161
11079WAT     H133479   4.350   2.899   2.122
11079WAT     H233480   4.192   2.860   2.108
11080WAT      O33481   4.962   0.216   0.693
11080WAT     H133482   4.915   0.157   0.626
11080WAT     H233483   5.008   0.291   0.645
11081WAT      O33484   9.541   3.540   1.546
11081WAT     H133485   9.527   3.488   1.462
11081WAT     H233486   9.618   3.602   1.535
11082WAT      O33487   4.816   4.351   0.654
11082WAT     H133488   4.760   4.271   0.634
11082WAT     H233489   4.832   4.402   0.569
11083WAT      O33490   9.436   1.938   7.027
11083WAT     H133491   9.350   1.887   7.022
11083WAT     H233492   9.429   2.008   7.098
11084WAT      O33493   4.984   4.492   7.270
11084WAT     H133494   4.944   4.400   7.263
11084WAT     H233495   5.083   4.484   7.281
11085WAT      O33496   1.658   6.233   2.343
11085WAT     H133497   1.610   6.210   2.428
11085WAT     H233498   1.599   6.215   2.265
11086WAT      O33499   6.204   1.623   6.040
11086WAT     H133500   6.109   1.599   6.018
11086WAT     H233501   6.206   1.710   6.090
11087WAT      O33502   1.569   3.473   3.734
11087WAT     H133503   1.600   3.565   3.757
11087WAT     H233504   1.519   3.434   3.811
11088WAT      O33505   8.576   1.300   4.262
11088WAT     H133506   8.639   1.267   4.192
11088WAT     H233507   8.516   1.369   4.222
11089WAT      O33508   7.085   4.189   6.203
11089WAT     H133509   7.111   4.095   6.178
11089WAT     H233510   6.991   4.190   6.237
11090WAT      O33511   2.871   3.348   0.861
11090WAT     H133512   2.967   3.372   0.875
11090WAT     H233513   2.826   3.419   0.806
11091WAT      O33514   3.427   6.088   4.970
11091WAT     H133515   3.368   6.113   4.894
11091WAT     H233516   3.521   6.080   4.938
11092WAT      O33517   3.315   3.682   5.758
11092WAT     H133518   3.304   3.776   5.728
11092WAT     H233519   3.292   3.620   5.683
11093WAT      O33520   3.361   6.191   5.217
11093WAT     H133521   3.389   6.151   5.130
11093WAT     H233522   3.440   6.198   5.278
11094WAT      O33523   5.850   7.935   5.379
11094WAT     H133524   5.825   7.873   5.453
11094WAT     H233525   5.947   7.956   5.383
11095WAT      O33526   7.273   0.607   0.088
11095WAT     H133527   7.197   0.568   0.037
11095WAT     H233528   7.282   0.704   0.068
11096WAT      O33529   0.401   9.742   7.245
11096WAT     H133530   0.398   9.724   7.146
11096WAT     H233531   0.308   9.760   7.277
11097WAT      O33532   0.818   1.392   3.183
11097WAT     H133533   0.840   1.363   3.090
11097WAT     H233534   0.745   1.333   3.220
11098WAT      O33535   1.786   0.950   6.569
11098WAT     H133536   1.716   0.881   6.549
11098WAT     H233537   1.745   1.041   6.564
11099WAT      O33538   7.933   2.151   3.134
11099WAT     H133539   7.896   2.089   3.065
11099WAT     H233540   7.954   2.100   3.217
11100WAT      O33541   4.968   7.757   0.610
11100WAT     H133542   5.030   7.717   0.544
11100WAT     H233543   4.943   7.849   0.581
11101WAT      O33544   4.098   6.520   5.213
11101WAT     H133545   4.196   6.519   5.193
11101WAT     H233546   4.065   6.426   5.220
11102WAT      O33547   8.669   2.853   1.145
11102WAT     H133548   8.714   2.942   1.138
11102WAT     H233549   8.619   2.834   1.060
11103WAT      O33550   2.944   8.640   4.197
11103WAT     H133551   2.995   8.556   4.184
11103WAT     H233552   3.008   8.717   4.208
11104WAT      O33553   3.292   6.234   3.701
11104WAT     H133554   3.279   6.208   3.796
11104WAT     H233555   3.368   6.299   3.695
11105WAT      O33556   3.323   5.175   7.342
11105WAT     H133557   3.311   5.267   7.379
11105WAT     H233558   3.238   5.145   7.299
11106WAT      O33559   5.714   0.299   6.516
11106WAT     H133560   5.779   0.291   6.440
11106WAT     H233561   5.626   0.262   6.488
11107WAT      O33562   1.906   9.461   3.154
11107WAT     H133563   1.862   9.466   3.244
11107WAT     H233564   1.841   9.426   3.087
11108WAT      O33565   5.402   5.464   7.121
11108WAT     H133566   5.368   5.447   7.214
11108WAT     H233567   5.450   5.383   7.088
11109WAT      O33568   6.984   3.819   6.268
11109WAT     H133569   6.967   3.720   6.259
11109WAT     H233570   7.079   3.839   6.244
11110WAT      O33571   8.972   7.378   1.127
11110WAT     H133572   9.009   7.426   1.047
11110WAT     H233573   8.886   7.420   1.154
11111WAT      O33574   3.811   3.049   4.261
11111WAT     H133575   3.718   3.084   4.265
11111WAT     H233576   3.854   3.055   4.351
11112WAT      O33577   1.610   5.580   9.055
11112WAT     H133578   1.679   5.577   8.983
11112WAT     H233579   1.523   5.612   9.017
11113WAT      O33580   5.783   8.519   0.948
11113WAT     H133581   5.860   8.582   0.933
11113WAT     H233582   5.730   8.549   1.027
11114WAT      O33583   8.657   6.915   1.643
11114WAT     H133584   8.753   6.898   1.621
11114WAT     H233585   8.634   6.872   1.730
11115WAT      O33586   7.670   6.423   1.450
11115WAT     H133587   7.582   6.391   1.486
11115WAT     H233588   7.720   6.346   1.409
11116WAT      O33589   6.694   3.194   4.546
11116WAT     H133590   6.734   3.274   4.591
11116WAT     H233591   6.601   3.181   4.580
11117WAT      O33592   3.751   9.294   4.537
11117WAT     H133593   3.676   9.293   4.472
11117WAT     H233594   3.820   9.227   4.510
11118WAT      O33595   6.016   3.702   6.680
11118WAT     H133596   6.108   3.664   6.679
11118WAT     H233597   6.019   3.797   6.710
11119WAT      O33598   8.578   3.870   3.243
11119WAT     H133599   8.551   3.942   3.179
11119WAT     H233600   8.509   3.799   3.245
11120WAT      O33601   1.771   2.117   6.899
11120WAT     H133602   1.853   2.171   6.915
11120WAT     H233603   1.691   2.168   6.931
11121WAT      O33604   1.512   8.507   9.725
11121WAT     H133605   1.542   8.513   9.630
11121WAT     H233606   1.591   8.511   9.786
11122WAT      O33607   7.213   6.791   8.815
11122WAT     H133608   7.240   6.881   8.779
11122WAT     H233609   7.176   6.735   8.741
11123WAT      O33610   5.316   1.234   0.068
11123WAT     H133611   5.270   1.160   0.117
11123WAT     H233612   5.335   1.205  -0.026
11124WAT      O33613   8.266   9.736   8.386
11124WAT     H133614   8.228   9.828   8.402
11124WAT     H233615   8.284   9.692   8.473
11125WAT      O33616   2.042   0.977   0.794
11125WAT     H133617   1.986   0.901   0.760
11125WAT     H233618   2.108   1.003   0.724
11126WAT      O33619   7.841   4.664   8.844
11126WAT     H133620   7.865   4.727   8.770
11126WAT     H233621   7.758   4.614   8.820
11127WAT      O33622   6.048   8.582   3.797
11127WAT     H133623   5.984   8.589   3.874
11127WAT     H233624   6.059   8.672   3.755
11128WAT      O33625   8.288   7.573   7.392
11128WAT     H133626   8.379   7.594   7.356
11128WAT     H233627   8.278   7.474   7.402
11129WAT      O33628   7.800   0.165   3.385
11129WAT     H133629   7.718   0.107   3.384
11129WAT     H233630   7.846   0.157   3.473
11130WAT      O33631   3.261   4.087   5.952
11130WAT     H133632   3.225   4.017   6.014
11130WAT     H233633   3.348   4.122   5.988
11131WAT      O33634   8.855   1.657   2.746
11131WAT     H133635   8.853   1.635   2.648
11131WAT     H233636   8.941   1.702   2.769
11132WAT      O33637   1.954   2.259   7.002
11132WAT     H133638   1.947   2.326   7.076
11132WAT     H233639   1.983   2.171   7.041
11133WAT      O33640   0.784   0.600   8.187
11133WAT     H133641   0.702   0.627   8.237
11133WAT     H233642   0.815   0.677   8.131
11134WAT      O33643   4.783   7.116   9.012
11134WAT     H133644   4.872   7.070   9.005
11134WAT     H233645   4.771   7.150   9.106
11135WAT      O33646   8.650   0.149   9.462
11135WAT     H133647   8.676   0.057   9.434
11135WAT     H233648   8.731   0.200   9.490
11136WAT      O33649   5.504   2.717   7.415
11136WAT     H133650   5.549   2.806   7.426
11136WAT     H233651   5.428   2.711   7.479
11137WAT      O33652   1.016   0.775   5.559
11137WAT     H133653   0.952   0.851   5.557
11137WAT     H233654   1.063   0.769   5.471
11138WAT      O33655   2.960   6.071   3.161
11138WAT     H133656   3.022   6.015   3.106
11138WAT     H233657   2.875   6.084   3.112
11139WAT      O33658   6.167   1.120   2.954
11139WAT     H133659   6.091   1.070   2.994
11139WAT     H233660   6.201   1.070   2.874
11140WAT      O33661   8.330   5.230   2.783
11140WAT     H133662   8.325   5.287   2.701
11140WAT     H233663   8.426   5.212   2.806
11141WAT      O33664   9.060   3.312   3.416
11141WAT     H133665   9.070   3.373   3.495
11141WAT     H233666   9.076   3.364   3.332
11142WAT      O33667   9.725   8.332   7.494
11142WAT     H133668   9.670   8.271   7.552
11142WAT     H233669   9.822   8.317   7.514
11143WAT      O33670   7.079   0.738   7.374
11143WAT     H133671   6.991   0.757   7.331
11143WAT     H233672   7.139   0.692   7.308
11144WAT      O33673   0.767   5.518   8.293
11144WAT     H133674   0.688   5.478   8.340
11144WAT     H233675   0.736   5.589   8.230
11145WAT      O33676   7.561   5.045   8.217
11145WAT     H133677   7.517   5.135   8.221
11145WAT     H233678   7.660   5.056   8.208
11146WAT      O33679   2.118   1.914   1.605
11146WAT     H133680   2.156   1.828   1.573
11146WAT     H233681   2.060   1.954   1.534
11147WAT      O33682   4.882   7.255   5.373
11147WAT     H133683   4.916   7.290   5.286
11147WAT     H233684   4.787   7.223   5.361
11148WAT      O33685   7.861   2.296   8.849
11148WAT     H133686   7.782   2.358   8.847
11148WAT     H233687   7.867   2.254   8.939
11149WAT      O33688   6.464   3.625   9.820
11149WAT     H133689   6.419   3.651   9.906
11149WAT     H233690   6.516   3.703   9.786
11150WAT      O33691   4.086   9.446   4.661
11150WAT     H133692   4.156   9.515   4.646
11150WAT     H233693   4.105   9.366   4.604
11151WAT      O33694   5.820   8.312   8.932
11151WAT     H133695   5.868   8.226   8.915
11151WAT     H233696   5.854   8.383   8.870
11152WAT      O33697   1.784   8.275   4.213
11152WAT     H133698   1.789   8.226   4.300
11152WAT     H233699   1.711   8.236   4.157
11153WAT      O33700   7.974   8.074   5.757
11153WAT     H133701   7.991   7.990   5.706
11153WAT     H233702   8.057   8.101   5.805
11154WAT      O33703   2.330   5.506   9.091
11154WAT     H133704   2.385   5.542   9.016
11154WAT     H233705   2.386   5.443   9.146
11155WAT      O33706   0.440   2.037   7.386
11155WAT     H133707   0.487   1.970   7.444
11155WAT     H233708   0.487   2.125   7.394
11156WAT      O33709   2.350   4.054   6.910
11156WAT     H133710   2.342   4.137   6.964
11156WAT     H233711   2.417   3.993   6.952
11157WAT      O33712   8.507   4.617   4.901
11157WAT     H133713   8.562   4.561   4.839
11157WAT     H233714   8.417   4.632   4.860
11158WAT      O33715   4.349   7.340   9.716
11158WAT     H133716   4.293   7.351   9.634
11158WAT     H233717   4.434   7.293   9.693
11159WAT      O33718   6.711   3.999   8.048
11159WAT     H133719   6.779   3.953   8.105
11159WAT     H233720   6.740   3.997   7.952
11160WAT      O33721   6.628   1.150   2.207
11160WAT     H133722   6.579   1.151   2.294
11160WAT     H233723   6.563   1.159   2.132
11161WAT      O33724   2.999   3.532   4.955
11161WAT     H133725   3.065   3.530   5.030
11161WAT     H233726   2.964   3.439   4.939
11162WAT      O33727   3.537   0.096   6.038
11162WAT     H133728   3.635   0.097   6.020
11162WAT     H233729   3.514   0.170   6.101
11163WAT      O33730   6.390   7.165   1.043
11163WAT     H133731   6.353   7.151   0.951
11163WAT     H233732   6.334   7.231   1.092
11164WAT      O33733   0.558   3.175   8.195
11164WAT     H133734   0.549   3.086   8.150
11164WAT     H233735   0.539   3.247   8.128
11165WAT      O33736   2.658   7.731   8.025
11165WAT     H133737   2.564   7.699   8.015
11165WAT     H233738   2.665   7.787   8.108
11166WAT      O33739   8.704   3.582   3.345
11166WAT     H133740   8.725   3.552   3.438
11166WAT     H233741   8.739   3.675   3.330
11167WAT      O33742   8.796   4.677   1.486
11167WAT     H133743   8.804   4.742   1.561
11167WAT     H233744   8.866   4.696   1.417
11168WAT      O33745   0.874   7.000   5.475
11168WAT     H133746   0.835   7.078   5.524
11168WAT     H233747   0.802   6.957   5.419
11169WAT      O33748   7.214   3.866   0.004
11169WAT     H133749   7.184   3.771   0.014
11169WAT     H233750   7.271   3.891   0.082
11170WAT      O33751   9.821   6.531   7.395
11170WAT     H133752   9.884   6.479   7.338
11170WAT     H233753   9.836   6.509   7.491
11171WAT      O33754   7.992   0.348   6.681
11171WAT     H133755   7.906   0.376   6.724
11171WAT     H233756   8.062   0.338   6.752
11172WAT      O33757   2.444   3.104   1.395
11172WAT     H133758   2.437   3.011   1.358
11172WAT     H233759   2.535   3.140   1.375
11173WAT      O33760   3.122   6.564   4.608
11173WAT     H133761   3.057   6.638   4.593
11173WAT     H233762   3.156   6.531   4.520
11174WAT      O33763   4.733   4.859   3.675
11174WAT     H133764   4.639   4.892   3.662
11174WAT     H233765   4.774   4.842   3.585
11175WAT      O33766   2.182   0.874   2.605
11175WAT     H133767   2.121   0.886   2.527
11175WAT     H233768   2.209   0.964   2.640
11176WAT      O33769   8.426   3.701   2.780
11176WAT     H133770   8.329   3.702   2.754
11176WAT     H233771   8.466   3.792   2.767
11177WAT      O33772   4.398   8.570   8.189
11177WAT     H133773   4.383   8.666   8.214
11177WAT     H233774   4.339   8.546   8.112
11178WAT      O33775   8.263   3.436   9.032
11178WAT     H133776   8.287   3.447   9.128
11178WAT     H233777   8.339   3.394   8.982
11179WAT      O33778   1.313   0.909   6.062
11179WAT     H133779   1.295   0.812   6.080
11179WAT     H233780   1.404   0.933   6.094
11180WAT      O33781   0.551   9.474   6.873
11180WAT     H133782   0.609   9.430   6.941
11180WAT     H233783   0.558   9.426   6.786
11181WAT      O33784   8.386   8.303   6.874
11181WAT     H133785   8.312   8.268   6.931
11181WAT     H233786   8.356   8.387   6.828
11182WAT      O33787   2.446   9.564   8.391
11182WAT     H133788   2.529   9.590   8.342
11182WAT     H233789   2.370   9.620   8.359
11183WAT      O33790   2.629   0.130   8.951
11183WAT     H133791   2.620   0.031   8.957
11183WAT     H233792   2.656   0.167   9.039
11184WAT      O33793   3.874   6.171   3.454
11184WAT     H133794   3.922   6.257   3.437
11184WAT     H233795   3.873   6.152   3.552
11185WAT      O33796   2.832   1.760   7.604
11185WAT     H133797   2.772   1.830   7.567
11185WAT     H233798   2.816   1.673   7.557
11186WAT      O33799   0.715   3.275   5.113
11186WAT     H133800   0.682   3.182   5.101
11186WAT     H233801   0.676   3.314   5.197
11187WAT      O33802   0.703   6.804   6.150
11187WAT     H133803   0.745   6.732   6.096
11187WAT     H233804   0.668   6.766   6.236
11188WAT      O33805   3.838   7.025   3.105
11188WAT     H133806   3.839   7.029   3.005
11188WAT     H233807   3.865   7.114   3.142
11189WAT      O33808   1.248   0.430   3.331
11189WAT     H133809   1.287   0.516   3.297
11189WAT     H233810   1.277   0.415   3.426
11190WAT      O33811   4.471   5.272   3.506
11190WAT     H133812   4.432   5.247   3.417
11190WAT     H233813   4.563   5.233   3.514
11191WAT      O33814   7.079   5.986   3.495
11191WAT     H133815   7.142   5.916   3.528
11191WAT     H233816   7.094   6.000   3.397
11192WAT      O33817   4.431   6.800   9.789
11192WAT     H133818   4.489   6.775   9.866
11192WAT     H233819   4.438   6.731   9.717
11193WAT      O33820   8.902   0.143   8.093
11193WAT     H133821   8.944   0.209   8.031
11193WAT     H233822   8.853   0.191   8.165
11194WAT      O33823   0.766   8.239   6.405
11194WAT     H133824   0.818   8.161   6.369
11194WAT     H233825   0.693   8.205   6.464
11195WAT      O33826   7.701   4.543   9.564
11195WAT     H133827   7.631   4.610   9.538
11195WAT     H233828   7.666   4.485   9.638
11196WAT      O33829   7.669   5.129   7.614
11196WAT     H133830   7.758   5.092   7.587
11196WAT     H233831   7.674   5.164   7.707
11197WAT      O33832   8.158   8.516   3.335
11197WAT     H133833   8.149   8.454   3.413
11197WAT     H233834   8.218   8.474   3.266
11198WAT      O33835   1.237   1.632   5.857
11198WAT     H133836   1.253   1.669   5.766
11198WAT     H233837   1.260   1.535   5.858
11199WAT      O33838   5.897   7.436   3.073
11199WAT     H133839   5.846   7.418   2.989
11199WAT     H233840   5.838   7.421   3.152
11200WAT      O33841   3.808   5.884   0.360
11200WAT     H133842   3.852   5.949   0.422
11200WAT     H233843   3.854   5.888   0.271
11201WAT      O33844   3.646   1.291   1.942
11201WAT     H133845   3.697   1.364   1.988
11201WAT     H233846   3.652   1.208   1.997
11202WAT      O33847   9.636   8.951   3.090
11202WAT     H133848   9.729   8.976   3.062
11202WAT     H233849   9.570   8.994   3.028
11203WAT      O33850   6.987   5.086   5.674
11203WAT     H133851   7.077   5.118   5.644
11203WAT     H233852   6.917   5.122   5.612
11204WAT      O33853   2.315   3.290   7.199
11204WAT     H133854   2.264   3.375   7.192
11204WAT     H233855   2.272   3.230   7.266
11205WAT      O33856   9.682   2.288   4.874
11205WAT     H133857   9.636   2.294   4.785
11205WAT     H233858   9.684   2.378   4.917
11206WAT      O33859   8.253   3.500   9.361
11206WAT     H133860   8.310   3.442   9.418
11206WAT     H233861   8.232   3.585   9.409
11207WAT      O33862   6.014   1.589   7.001
11207WAT     H133863   5.966   1.563   7.085
11207WAT     H233864   5.988   1.682   6.974
11208WAT      O33865   8.165   5.100   5.901
11208WAT     H133866   8.073   5.137   5.915
11208WAT     H233867   8.165   5.002   5.918
11209WAT      O33868   6.277   8.277   9.086
11209WAT     H133869   6.309   8.287   8.991
11209WAT     H233870   6.303   8.187   9.120
11210WAT      O33871   3.298   3.431   4.901
11210WAT     H133872   3.261   3.342   4.874
11210WAT     H233873   3.253   3.462   4.985
11211WAT      O33874   2.301   6.391   8.994
11211WAT     H133875   2.225   6.389   9.060
11211WAT     H233876   2.336   6.484   8.986
11212WAT      O33877   7.075   7.097   1.944
11212WAT     H133878   7.004   7.097   1.874
11212WAT     H233879   7.136   7.176   1.930
11213WAT      O33880   5.157   5.987   6.686
11213WAT     H133881   5.067   5.947   6.700
11213WAT     H233882   5.154   6.085   6.706
11214WAT      O33883   4.030   8.139   2.488
11214WAT     H133884   3.991   8.048   2.501
11214WAT     H233885   3.997   8.177   2.401
11215WAT      O33886   1.990   9.781   7.423
11215WAT     H133887   1.904   9.752   7.464
11215WAT     H233888   1.976   9.802   7.326
11216WAT      O33889   6.954   6.093   9.177
11216WAT     H133890   7.004   6.043   9.248
11216WAT     H233891   6.888   6.032   9.134
11217WAT      O33892   1.538   4.265   3.968
11217WAT     H133893   1.589   4.274   4.054
11217WAT     H233894   1.600   4.239   3.895
11218WAT      O33895   1.213   7.261   1.972
11218WAT     H133896   1.205   7.319   2.053
11218WAT     H233897   1.208   7.165   2.000
11219WAT      O33898   4.178   2.288   5.286
11219WAT     H133899   4.174   2.279   5.386
11219WAT     H233900   4.273   2.299   5.257
11220WAT      O33901   1.279   1.817   3.608
11220WAT     H133902   1.294   1.790   3.513
11220WAT     H233903   1.358   1.789   3.664
11221WAT      O33904   5.927   5.049   0.202
11221WAT     H133905   6.007   5.054   0.142
11221WAT     H233906   5.845   5.037   0.146
11222WAT      O33907   5.094   5.944   8.799
11222WAT     H133908   5.129   5.963   8.707
11222WAT     H233909   5.003   5.902   8.791
11223WAT      O33910   2.549   5.511   5.706
11223WAT     H133911   2.452   5.488   5.707
11223WAT     H233912   2.561   5.608   5.686
11224WAT      O33913   2.863   6.680   3.101
11224WAT     H133914   2.765   6.662   3.116
11224WAT     H233915   2.873   6.751   3.032
11225WAT      O33916   2.682   7.269   4.278
11225WAT     H133917   2.735   7.186   4.261
11225WAT     H233918   2.589   7.245   4.306
11226WAT      O33919   3.130   0.282   8.839
11226WAT     H133920   3.038   0.260   8.805
11226WAT     H233921   3.145   0.381   8.831
11227WAT      O33922   4.691   8.571   9.653
11227WAT     H133923   4.689   8.515   9.571
11227WAT     H233924   4.726   8.662   9.630
11228WAT      O33925   3.975   3.520   4.196
11228WAT     H133926   4.024   3.437   4.220
11228WAT     H233927   4.021   3.599   4.236
11229WAT      O33928   5.618   7.518   9.300
11229WAT     H133929   5.632   7.599   9.357
11229WAT     H233930   5.664   7.530   9.212
11230WAT      O33931   2.300   0.503   7.356
11230WAT     H133932   2.399   0.492   7.346
11230WAT     H233933   2.278   0.529   7.450
11231WAT      O33934   6.460   5.323   8.067
11231WAT     H133935   6.539   5.265   8.049
11231WAT     H233936   6.485   5.419   8.050
11232WAT      O33937   8.987   2.269   7.814
11232WAT     H133938   9.084   2.247   7.820
11232WAT     H233939   8.945   2.260   7.905
11233WAT      O33940   2.526   9.053   7.234
11233WAT     H133941   2.539   9.052   7.134
11233WAT     H233942   2.452   9.115   7.257
11234WAT      O33943   2.317   3.585   2.188
11234WAT     H133944   2.381   3.652   2.225
11234WAT     H233945   2.367   3.501   2.166
11235WAT      O33946   6.701   5.452   0.505
11235WAT     H133947   6.691   5.371   0.447
11235WAT     H233948   6.772   5.436   0.574
11236WAT      O33949   9.744   2.444   0.202
11236WAT     H133950   9.720   2.378   0.131
11236WAT     H233951   9.837   2.477   0.188
11237WAT      O33952   1.525   8.458   2.381
11237WAT     H133953   1.502   8.372   2.427
11237WAT     H233954   1.548   8.527   2.450
11238WAT      O33955   3.010   5.603   1.579
11238WAT     H133956   2.911   5.619   1.580
11238WAT     H233957   3.043   5.605   1.485
11239WAT      O33958   7.762   7.168   3.529
11239WAT     H133959   7.699   7.218   3.469
11239WAT     H233960   7.709   7.107   3.589
11240WAT      O33961   3.569   1.233   3.255
11240WAT     H133962   3.573   1.293   3.175
11240WAT     H233963   3.582   1.138   3.226
11241WAT      O33964   4.067   4.489   2.776
11241WAT     H133965   4.105   4.528   2.860
11241WAT     H233966   4.137   4.434   2.731
11242WAT      O33967   1.703   1.360   5.733
11242WAT     H133968   1.773   1.290   5.718
11242WAT     H233969   1.745   1.451   5.735
11243WAT      O33970   2.729   3.207   5.066
11243WAT     H133971   2.759   3.251   5.151
11243WAT     H233972   2.632   3.185   5.073
11244WAT      O33973   9.587   5.354   1.925
11244WAT     H133974   9.492   5.338   1.952
11244WAT     H233975   9.607   5.301   1.842
11245WAT      O33976   3.158   6.060   7.559
11245WAT     H133977   3.147   6.159   7.570
11245WAT     H233978   3.252   6.040   7.532
11246WAT      O33979   0.275   5.150   5.551
11246WAT     H133980   0.257   5.122   5.646
11246WAT     H233981   0.234   5.240   5.535
11247WAT      O33982   8.313   8.933   1.128
11247WAT     H133983   8.259   8.928   1.212
11247WAT     H233984   8.317   8.843   1.086
11248WAT      O33985   7.690   7.897   8.087
11248WAT     H133986   7.728   7.985   8.115
11248WAT     H233987   7.764   7.832   8.071
11249WAT      O33988   0.162   9.659   7.642
11249WAT     H133989   0.096   9.585   7.657
11249WAT     H233990   0.178   9.707   7.729
11250WAT      O33991   2.783   4.768   6.699
11250WAT     H133992   2.879   4.759   6.670
11250WAT     H233993   2.759   4.865   6.704
11251WAT      O33994   3.427   2.565   2.516
11251WAT     H133995   3.446   2.636   2.448
11251WAT     H233996   3.396   2.607   2.601
11252WAT      O33997   6.073   6.546   8.719
11252WAT     H133998   5.993   6.580   8.669
11252WAT     H233999   6.123   6.624   8.757
11253WAT      O34000   0.903   6.331   4.373
11253WAT     H134001   0.860   6.329   4.464
11253WAT     H234002   0.905   6.238   4.336
11254WAT      O34003   0.034   7.517   8.990
11254WAT     H134004   0.000   7.606   9.018
11254WAT     H234005   0.105   7.486   9.054
11255WAT      O34006   0.141   9.653   1.192
11255WAT     H134007   0.171   9.570   1.239
11255WAT     H234008   0.201   9.670   1.113
11256WAT      O34009   3.370   7.351   8.306
11256WAT     H134010   3.373   7.409   8.388
11256WAT     H234011   3.454   7.363   8.254
11257WAT      O34012   3.975   1.975   0.708
11257WAT     H134013   3.926   1.913   0.646
11257WAT     H234014   4.073   1.970   0.689
11258WAT      O34015   0.931   9.706   3.988
11258WAT     H134016   0.833   9.726   3.991
11258WAT     H234017   0.950   9.625   4.043
11259WAT      O34018   6.447   2.364   9.549
11259WAT     H134019   6.366   2.376   9.492
11259WAT     H234020   6.528   2.355   9.491
11260WAT      O34021   2.782   3.983   2.265
11260WAT     H134022   2.720   4.060   2.268
11260WAT     H234023   2.791   3.951   2.170
11261WAT      O34024   2.967   8.218   2.023
11261WAT     H134025   2.918   8.172   2.097
11261WAT     H234026   2.923   8.306   2.004
11262WAT      O34027   2.984   8.840   9.447
11262WAT     H134028   3.017   8.753   9.485
11262WAT     H234029   3.060   8.890   9.406
11263WAT      O34030   5.942   2.074   4.593
11263WAT     H134031   5.940   1.977   4.615
11263WAT     H234032   6.021   2.116   4.636
11264WAT      O34033   0.607   5.615   2.804
11264WAT     H134034   0.665   5.600   2.723
11264WAT     H234035   0.511   5.614   2.776
11265WAT      O34036   3.874   8.487   8.639
11265WAT     H134037   3.860   8.496   8.738
11265WAT     H234038   3.790   8.454   8.596
11266WAT      O34039   6.482   9.573   8.727
11266WAT     H134040   6.532   9.516   8.791
11266WAT     H234041   6.395   9.530   8.705
11267WAT      O34042   6.145   6.346   4.598
11267WAT     H134043   6.120   6.442   4.583
11267WAT     H234044   6.202   6.314   4.522
11268WAT      O34045   7.524   4.407   3.001
11268WAT     H134046   7.591   4.343   3.039
11268WAT     H234047   7.567   4.460   2.928
11269WAT      O34048   3.856   6.428   6.738
11269WAT     H134049   3.801   6.354   6.700
11269WAT     H234050   3.912   6.393   6.813
11270WAT      O34051   5.781   0.081   7.832
11270WAT     H134052   5.780   0.177   7.857
11270WAT     H234053   5.757   0.071   7.735
11271WAT      O34054   2.455   3.274   8.108
11271WAT     H134055   2.532   3.210   8.106
11271WAT     H234056   2.401   3.263   8.025
11272WAT      O34057   4.100   3.930   8.236
11272WAT     H134058   4.123   3.921   8.139
11272WAT     H234059   4.006   3.963   8.244
11273WAT      O34060   3.695   2.023   9.160
11273WAT     H134061   3.651   2.108   9.132
11273WAT     H234062   3.677   2.006   9.257
11274WAT      O34063   5.437   1.221   1.542
11274WAT     H134064   5.475   1.215   1.634
11274WAT     H234065   5.343   1.254   1.546
11275WAT      O34066   8.089   6.932   8.953
11275WAT     H134067   8.061   6.863   8.887
11275WAT     H234068   8.071   7.024   8.916
11276WAT      O34069   1.978   5.193   7.045
11276WAT     H134070   1.933   5.161   7.128
11276WAT     H234071   2.003   5.114   6.988
11277WAT      O34072   4.671   8.492   0.014
11277WAT     H134073   4.653   8.508  -0.084
11277WAT     H234074   4.766   8.461   0.026
11278WAT      O34075   6.705   2.011   6.556
11278WAT     H134076   6.636   1.946   6.522
11278WAT     H234077   6.723   1.992   6.653
11279WAT      O34078   4.151   0.977   9.235
11279WAT     H134079   4.176   0.882   9.254
11279WAT     H234080   4.103   0.982   9.148
11280WAT      O34081   5.090   1.547   4.249
11280WAT     H134082   5.076   1.492   4.167
11280WAT     H234083   5.186   1.572   4.257
11281WAT      O34084   1.705   9.312   2.644
11281WAT     H134085   1.720   9.216   2.621
11281WAT     H234086   1.607   9.333   2.637
11282WAT      O34087   1.883   1.423   3.614
11282WAT     H134088   1.948   1.408   3.688
11282WAT     H234089   1.930   1.464   3.536
11283WAT      O34090   9.594   7.493   9.879
11283WAT     H134091   9.612   7.546   9.961
11283WAT     H234092   9.516   7.532   9.830
11284WAT      O34093   4.707   3.164   2.795
11284WAT     H134094   4.794   3.193   2.835
11284WAT     H234095   4.676   3.232   2.728
11285WAT      O34096   2.791   2.241   1.853
11285WAT     H134097   2.787   2.277   1.760
11285WAT     H234098   2.856   2.294   1.907
11286WAT      O34099   4.532   3.908   6.691
11286WAT     H134100   4.620   3.931   6.648
11286WAT     H234101   4.527   3.809   6.705
11287WAT      O34102   3.984   6.376   6.319
11287WAT     H134103   3.945   6.293   6.360
11287WAT     H234104   3.974   6.452   6.383
11288WAT      O34105   7.520   9.115   6.560
11288WAT     H134106   7.539   9.175   6.638
11288WAT     H234107   7.515   9.020   6.591
11289WAT      O34108   8.390   0.864   3.190
11289WAT     H134109   8.356   0.948   3.148
11289WAT     H234110   8.314   0.811   3.226
11290WAT      O34111   2.306   7.504   3.394
11290WAT     H134112   2.302   7.424   3.334
11290WAT     H234113   2.260   7.484   3.480
11291WAT      O34114   0.126   3.767   6.129
11291WAT     H134115   0.026   3.764   6.131
11291WAT     H234116   0.160   3.800   6.217
11292WAT      O34117   9.854   6.742   4.070
11292WAT     H134118   9.856   6.836   4.036
11292WAT     H234119   9.791   6.687   4.014
11293WAT      O34120   1.887   4.969   3.219
11293WAT     H134121   1.952   5.025   3.167
11293WAT     H234122   1.937   4.898   3.269
11294WAT      O34123   2.603   7.669   3.726
11294WAT     H134124   2.563   7.675   3.634
11294WAT     H234125   2.668   7.744   3.738
11295WAT      O34126   0.173   6.111   2.103
11295WAT     H134127   0.264   6.097   2.143
11295WAT     H234128   0.128   6.186   2.151
11296WAT      O34129   7.894   4.804   8.582
11296WAT     H134130   7.964   4.875   8.588
11296WAT     H234131   7.911   4.747   8.502
11297WAT      O34132   0.987   2.154   0.785
11297WAT     H134133   0.984   2.054   0.791
11297WAT     H234134   0.906   2.192   0.828
11298WAT      O34135   4.474   0.938   1.018
11298WAT     H134136   4.421   0.867   0.971
11298WAT     H234137   4.568   0.938   0.984
11299WAT      O34138   1.709   5.181   4.215
11299WAT     H134139   1.618   5.143   4.197
11299WAT     H234140   1.775   5.140   4.152
11300WAT      O34141   9.340   5.804   1.813
11300WAT     H134142   9.343   5.857   1.728
11300WAT     H234143   9.308   5.711   1.794
11301WAT      O34144   8.148   8.875   1.340
11301WAT     H134145   8.154   8.776   1.348
11301WAT     H234146   8.150   8.916   1.431
11302WAT      O34147   6.452   6.392   5.092
11302WAT     H134148   6.449   6.490   5.111
11302WAT     H234149   6.371   6.367   5.038
11303WAT      O34150   4.605   6.323   4.353
11303WAT     H134151   4.568   6.401   4.302
11303WAT     H234152   4.554   6.241   4.328
11304WAT      O34153   7.952   7.035   6.128
11304WAT     H134154   7.914   7.009   6.217
11304WAT     H234155   8.052   7.029   6.132
11305WAT      O34156   6.666   1.669   1.634
11305WAT     H134157   6.677   1.768   1.623
11305WAT     H234158   6.750   1.623   1.605
11306WAT      O34159   2.183   0.883   4.677
11306WAT     H134160   2.155   0.802   4.626
11306WAT     H234161   2.280   0.901   4.663
11307WAT      O34162   5.540   8.585   8.654
11307WAT     H134163   5.479   8.594   8.575
11307WAT     H234164   5.600   8.506   8.642
11308WAT      O34165   0.325   9.691   3.505
11308WAT     H134166   0.238   9.670   3.549
11308WAT     H234167   0.337   9.791   3.500
11309WAT      O34168   2.779   9.257   1.493
11309WAT     H134169   2.840   9.318   1.443
11309WAT     H234170   2.732   9.308   1.565
11310WAT      O34171   2.211   7.078   4.363
11310WAT     H134172   2.134   7.014   4.355
11310WAT     H234173   2.289   7.042   4.312
11311WAT      O34174   5.606   5.145   7.076
11311WAT     H134175   5.530   5.134   7.139
11311WAT     H234176   5.692   5.150   7.127
11312WAT      O34177   4.584   1.317   2.186
11312WAT     H134178   4.673   1.365   2.183
11312WAT     H234179   4.583   1.255   2.264
11313WAT      O34180   2.142   1.362   5.224
11313WAT     H134181   2.047   1.371   5.254
11313WAT     H234182   2.180   1.277   5.261
11314WAT      O34183   7.996   7.098   4.296
11314WAT     H134184   8.046   7.048   4.226
11314WAT     H234185   7.985   7.040   4.377
11315WAT      O34186   6.466   0.758   6.762
11315WAT     H134187   6.522   0.841   6.767
11315WAT     H234188   6.403   0.766   6.685
11316WAT      O34189   5.012   6.746   1.494
11316WAT     H134190   4.970   6.702   1.574
11316WAT     H234191   5.110   6.758   1.510
11317WAT      O34192   7.560   5.632   1.893
11317WAT     H134193   7.611   5.567   1.949
11317WAT     H234194   7.558   5.600   1.799
11318WAT      O34195   5.332   2.629   3.526
11318WAT     H134196   5.421   2.664   3.494
11318WAT     H234197   5.343   2.535   3.559
11319WAT      O34198   6.443   0.988   5.263
11319WAT     H134199   6.464   0.921   5.192
11319WAT     H234200   6.527   1.012   5.312
11320WAT      O34201   0.267   2.215   4.730
11320WAT     H134202   0.233   2.308   4.746
11320WAT     H234203   0.193   2.158   4.697
11321WAT      O34204   0.601   8.430   5.501
11321WAT     H134205   0.665   8.491   5.455
11321WAT     H234206   0.533   8.484   5.551
11322WAT      O34207   9.699   9.820   0.440
11322WAT     H134208   9.646   9.903   0.426
11322WAT     H234209   9.796   9.837   0.423
11323WAT      O34210   0.390   5.658   1.705
11323WAT     H134211   0.461   5.705   1.652
11323WAT     H234212   0.415   5.562   1.717
11324WAT      O34213   0.049   5.668   0.101
11324WAT     H134214   0.008   5.731   0.167
11324WAT     H234215   0.013   5.687   0.010
11325WAT      O34216   3.352   1.045   6.384
11325WAT     H134217   3.441   1.085   6.404
11325WAT     H234218   3.293   1.113   6.341
11326WAT      O34219   0.331   7.131   6.430
11326WAT     H134220   0.431   7.136   6.422
11326WAT     H234221   0.301   7.039   6.406
11327WAT      O34222   7.596   1.277   9.555
11327WAT     H134223   7.560   1.281   9.462
11327WAT     H234224   7.546   1.208   9.607
11328WAT      O34225   2.899   3.159   5.934
11328WAT     H134226   2.990   3.130   5.962
11328WAT     H234227   2.866   3.231   5.995
11329WAT      O34228   0.343   0.446   7.161
11329WAT     H134229   0.346   0.349   7.182
11329WAT     H234230   0.261   0.487   7.203
11330WAT      O34231   5.380   8.143   8.009
11330WAT     H134232   5.412   8.216   7.949
11330WAT     H234233   5.458   8.095   8.048
11331WAT      O34234   8.187   1.303   1.706
11331WAT     H134235   8.143   1.311   1.617
11331WAT     H234236   8.148   1.372   1.768
11332WAT      O34237   1.062   1.084   0.631
11332WAT     H134238   1.078   1.107   0.534
11332WAT     H234239   1.145   1.105   0.683
11333WAT      O34240   3.449   3.124   8.529
11333WAT     H134241   3.529   3.064   8.525
11333WAT     H234242   3.401   3.122   8.442
11334WAT      O34243   6.043   4.245   5.333
11334WAT     H134244   6.088   4.297   5.261
11334WAT     H234245   6.097   4.164   5.356
11335WAT      O34246   4.969   8.715   7.737
11335WAT     H134247   5.031   8.650   7.782
11335WAT     H234248   4.918   8.667   7.666
11336WAT      O34249   9.837   8.097   8.278
11336WAT     H134250   9.828   8.039   8.197
11336WAT     H234251   9.905   8.168   8.261
11337WAT      O34252   6.516   6.800   5.120
11337WAT     H134253   6.454   6.855   5.176
11337WAT     H234254   6.596   6.854   5.094
11338WAT      O34255   6.021   7.734   7.198
11338WAT     H134256   5.933   7.764   7.163
11338WAT     H234257   6.058   7.803   7.261
11339WAT      O34258   2.150   2.019   8.276
11339WAT     H134259   2.106   2.088   8.217
11339WAT     H234260   2.132   2.041   8.372
11340WAT      O34261   5.606   5.275   2.245
11340WAT     H134262   5.594   5.304   2.340
11340WAT     H234263   5.667   5.340   2.198
11341WAT      O34264   6.023   6.911   6.494
11341WAT     H134265   6.089   6.895   6.421
11341WAT     H234266   6.071   6.946   6.575
11342WAT      O34267   6.677   1.166   6.275
11342WAT     H134268   6.746   1.218   6.325
11342WAT     H234269   6.663   1.207   6.185
11343WAT      O34270   1.284   7.277   2.577
11343WAT     H134271   1.264   7.344   2.649
11343WAT     H234272   1.360   7.310   2.521
11344WAT      O34273   6.669   1.415   2.505
11344WAT     H134274   6.575   1.380   2.509
11344WAT     H234275   6.705   1.424   2.597
11345WAT      O34276   5.318   4.255   1.395
11345WAT     H134277   5.326   4.242   1.296
11345WAT     H234278   5.221   4.266   1.419
11346WAT      O34279   8.175   3.648   0.932
11346WAT     H134280   8.156   3.746   0.942
11346WAT     H234281   8.255   3.635   0.875
11347WAT      O34282   9.828   0.380   2.076
11347WAT     H134283   9.870   0.457   2.123
11347WAT     H234284   9.758   0.413   2.012
11348WAT      O34285   6.566   4.387   4.200
11348WAT     H134286   6.495   4.451   4.168
11348WAT     H234287   6.558   4.375   4.299
11349WAT      O34288   5.035   9.066   0.600
11349WAT     H134289   5.079   9.032   0.683
11349WAT     H234290   5.003   8.988   0.545
11350WAT      O34291   7.326   1.813   2.851
11350WAT     H134292   7.281   1.821   2.762
11350WAT     H234293   7.280   1.872   2.917
11351WAT      O34294   4.171   0.409   6.358
11351WAT     H134295   4.219   0.435   6.274
11351WAT     H234296   4.220   0.446   6.437
11352WAT      O34297   7.707   9.175   3.209
11352WAT     H134298   7.798   9.217   3.208
11352WAT     H234299   7.700   9.110   3.285
11353WAT      O34300   2.226   4.230   5.856
11353WAT     H134301   2.167   4.155   5.826
11353WAT     H234302   2.191   4.317   5.821
11354WAT      O34303   2.488   7.224   3.079
11354WAT     H134304   2.445   7.196   3.165
11354WAT     H234305   2.467   7.320   3.061
11355WAT      O34306   1.607   0.268   1.075
11355WAT     H134307   1.556   0.344   1.035
11355WAT     H234308   1.699   0.264   1.035
11356WAT      O34309   7.276   3.536   5.424
11356WAT     H134310   7.253   3.624   5.383
11356WAT     H234311   7.321   3.550   5.512
11357WAT      O34312   7.133   4.499   4.709
11357WAT     H134313   7.185   4.422   4.672
11357WAT     H234314   7.090   4.472   4.795
11358WAT      O34315   6.424   4.498   7.387
11358WAT     H134316   6.442   4.596   7.379
11358WAT     H234317   6.418   4.458   7.296
11359WAT      O34318   6.404   3.277   4.203
11359WAT     H134319   6.503   3.285   4.199
11359WAT     H234320   6.368   3.260   4.111
11360WAT      O34321   5.069   3.637   8.882
11360WAT     H134322   4.973   3.657   8.866
11360WAT     H234323   5.121   3.653   8.798
11361WAT      O34324   0.466   5.070   3.682
11361WAT     H134325   0.458   4.987   3.626
11361WAT     H234326   0.551   5.066   3.735
11362WAT      O34327   1.451   9.778   8.298
11362WAT     H134328   1.543   9.740   8.288
11362WAT     H234329   1.451   9.873   8.266
11363WAT      O34330   4.382   1.996   3.010
11363WAT     H134331   4.411   1.939   3.086
11363WAT     H234332   4.325   2.071   3.044
11364WAT      O34333   1.429   3.028   0.490
11364WAT     H134334   1.344   2.975   0.497
11364WAT     H234335   1.492   2.982   0.427
11365WAT      O34336   7.743   6.946   4.520
11365WAT     H134337   7.697   6.871   4.471
11365WAT     H234338   7.683   7.027   4.520
11366WAT      O34339   3.776   5.412   7.125
11366WAT     H134340   3.786   5.510   7.141
11366WAT     H234341   3.859   5.365   7.155
11367WAT      O34342   2.180   5.589   8.210
11367WAT     H134343   2.198   5.643   8.292
11367WAT     H234344   2.098   5.625   8.164
11368WAT      O34345   9.375   2.820   5.900
11368WAT     H134346   9.310   2.744   5.897
11368WAT     H234347   9.384   2.859   5.809
11369WAT      O34348   4.537   6.008   0.798
11369WAT     H134349   4.493   5.919   0.787
11369WAT     H234350   4.624   5.996   0.845
11370WAT      O34351   3.708   3.657   9.404
11370WAT     H134352   3.801   3.625   9.387
11370WAT     H234353   3.711   3.750   9.441
11371WAT      O34354   5.365   0.638   4.459
11371WAT     H134355   5.271   0.666   4.481
11371WAT     H234356   5.393   0.680   4.373
11372WAT      O34357   1.819   2.760   2.075
11372WAT     H134358   1.790   2.666   2.097
11372WAT     H234359   1.755   2.800   2.009
11373WAT      O34360   3.232   0.928   0.427
11373WAT     H134361   3.185   0.977   0.500
11373WAT     H234362   3.176   0.851   0.397
11374WAT      O34363   8.342   3.305   2.909
11374WAT     H134364   8.260   3.342   2.951
11374WAT     H234365   8.318   3.256   2.825
11375WAT      O34366   6.587   5.287   1.970
11375WAT     H134367   6.526   5.272   2.048
11375WAT     H234368   6.629   5.200   1.944
11376WAT      O34369   3.516   9.317   2.074
11376WAT     H134370   3.555   9.309   2.166
11376WAT     H234371   3.466   9.234   2.052
11377WAT      O34372   4.206   1.517   6.296
11377WAT     H134373   4.253   1.481   6.216
11377WAT     H234374   4.225   1.615   6.305
11378WAT      O34375   0.476   6.774   2.098
11378WAT     H134376   0.456   6.677   2.116
11378WAT     H234377   0.415   6.808   2.026
11379WAT      O34378   8.847   3.553   9.191
11379WAT     H134379   8.892   3.484   9.134
11379WAT     H234380   8.895   3.561   9.278
11380WAT      O34381   4.462   3.048   1.806
11380WAT     H134382   4.420   3.091   1.886
11380WAT     H234383   4.515   3.117   1.756
11381WAT      O34384   6.997   9.361   7.524
11381WAT     H134385   6.921   9.391   7.583
11381WAT     H234386   7.081   9.407   7.553
11382WAT      O34387   2.387   8.643   2.093
11382WAT     H134388   2.429   8.698   2.021
11382WAT     H234389   2.406   8.685   2.182
11383WAT      O34390   4.630   9.021   0.110
11383WAT     H134391   4.572   9.101   0.126
11383WAT     H234392   4.712   9.049   0.060
11384WAT      O34393   8.383   3.346   2.463
11384WAT     H134394   8.472   3.346   2.508
11384WAT     H234395   8.383   3.279   2.388
11385WAT      O34396   9.660   8.111   6.436
11385WAT     H134397   9.566   8.141   6.449
11385WAT     H234398   9.674   8.024   6.484
11386WAT      O34399   4.678   3.216   4.407
11386WAT     H134400   4.579   3.221   4.417
11386WAT     H234401   4.719   3.305   4.430
11387WAT      O34402   5.231   4.021   4.483
11387WAT     H134403   5.173   4.060   4.555
11387WAT     H234404   5.321   4.065   4.486
11388WAT      O34405   3.811   0.124   7.520
11388WAT     H134406   3.874   0.103   7.594
11388WAT     H234407   3.862   0.138   7.435
11389WAT      O34408   2.028   5.023   0.887
11389WAT     H134409   2.045   5.000   0.791
11389WAT     H234410   2.091   4.972   0.945
11390WAT      O34411   3.891   4.538   7.925
11390WAT     H134412   3.833   4.571   7.851
11390WAT     H234413   3.848   4.460   7.970
11391WAT      O34414   6.909   6.953   2.720
11391WAT     H134415   6.902   6.905   2.807
11391WAT     H234416   6.884   6.892   2.645
11392WAT      O34417   4.168   3.310   4.053
11392WAT     H134418   4.210   3.362   4.128
11392WAT     H234419   4.210   3.219   4.048
11393WAT      O34420   3.737   6.399   1.272
11393WAT     H134421   3.802   6.345   1.325
11393WAT     H234422   3.652   6.349   1.262
11394WAT      O34423   8.715   4.973   9.247
11394WAT     H134424   8.770   5.009   9.323
11394WAT     H234425   8.623   4.952   9.279
11395WAT      O34426   8.365   9.834   2.229
11395WAT     H134427   8.369   9.797   2.321
11395WAT     H234428   8.301   9.780   2.173
11396WAT      O34429   1.480   9.816   4.222
11396WAT     H134430   1.433   9.845   4.306
11396WAT     H234431   1.416   9.821   4.145
11397WAT      O34432   6.225   7.167   2.994
11397WAT     H134433   6.234   7.089   2.932
11397WAT     H234434   6.135   7.209   2.981
11398WAT      O34435   8.519   3.289   9.096
11398WAT     H134436   8.575   3.222   9.145
11398WAT     H234437   8.481   3.247   9.014
11399WAT      O34438   6.044   7.114   9.205
11399WAT     H134439   5.953   7.140   9.238
11399WAT     H234440   6.036   7.073   9.115
11400WAT      O34441   6.910   7.386   1.413
11400WAT     H134442   6.933   7.481   1.392
11400WAT     H234443   6.977   7.325   1.371
11401WAT      O34444   0.181   3.474   1.251
11401WAT     H134445   0.150   3.569   1.251
11401WAT     H234446   0.232   3.456   1.167
11402WAT      O34447   0.685   3.501   1.646
11402WAT     H134448   0.703   3.587   1.692
11402WAT     H234449   0.620   3.515   1.572
11403WAT      O34450   6.133   0.482   5.940
11403WAT     H134451   6.203   0.425   5.896
11403WAT     H234452   6.136   0.468   6.039
11404WAT      O34453   0.761   8.261   4.830
11404WAT     H134454   0.702   8.181   4.815
11404WAT     H234455   0.836   8.260   4.762
11405WAT      O34456   9.442   4.995   1.084
11405WAT     H134457   9.421   5.092   1.087
11405WAT     H234458   9.458   4.967   0.989
11406WAT      O34459   6.178   6.997   2.408
11406WAT     H134460   6.207   7.025   2.499
11406WAT     H234461   6.211   7.064   2.341
11407WAT      O34462   5.312   7.528   1.441
11407WAT     H134463   5.216   7.501   1.450
11407WAT     H234464   5.337   7.589   1.516
11408WAT      O34465   8.955   5.859   3.123
11408WAT     H134466   8.981   5.817   3.036
11408WAT     H234467   8.862   5.893   3.118
11409WAT      O34468   1.414   8.963   6.420
11409WAT     H134469   1.341   8.953   6.488
11409WAT     H234470   1.425   8.877   6.370
11410WAT      O34471   8.842   1.701   7.938
11410WAT     H134472   8.805   1.793   7.927
11410WAT     H234473   8.768   1.638   7.963
11411WAT      O34474   8.713   8.276   7.067
11411WAT     H134475   8.736   8.350   7.131
11411WAT     H234476   8.625   8.236   7.093
11412WAT      O34477   2.136   4.699   2.441
11412WAT     H134478   2.091   4.779   2.402
11412WAT     H234479   2.084   4.666   2.520
11413WAT      O34480   5.440   2.628   3.060
11413WAT     H134481   5.494   2.652   2.979
11413WAT     H234482   5.343   2.627   3.037
11414WAT      O34483   1.717   8.142   7.164
11414WAT     H134484   1.791   8.145   7.231
11414WAT     H234485   1.735   8.070   7.098
11415WAT      O34486   5.244   0.605   6.839
11415WAT     H134487   5.262   0.629   6.935
11415WAT     H234488   5.149   0.626   6.817
11416WAT      O34489   2.748   1.090   6.063
11416WAT     H134490   2.785   1.083   6.156
11416WAT     H234491   2.687   1.168   6.057
11417WAT      O34492   8.291   9.817   4.729
11417WAT     H134493   8.337   9.862   4.653
11417WAT     H234494   8.228   9.748   4.694
11418WAT      O34495   2.679   3.692   7.709
11418WAT     H134496   2.770   3.714   7.673
11418WAT     H234497   2.690   3.635   7.791
11419WAT      O34498   9.884   6.384   9.028
11419WAT     H134499   9.825   6.348   9.100
11419WAT     H234500   9.967   6.422   9.069
11420WAT      O34501   2.149   3.247   8.274
11420WAT     H134502   2.061   3.201   8.270
11420WAT     H234503   2.209   3.209   8.204
11421WAT      O34504   9.251   9.493   4.428
11421WAT     H134505   9.270   9.394   4.430
11421WAT     H234506   9.235   9.522   4.334
11422WAT      O34507   1.704   7.013   0.620
11422WAT     H134508   1.648   7.046   0.545
11422WAT     H234509   1.799   7.004   0.590
11423WAT      O34510   5.321   2.208   8.699
11423WAT     H134511   5.249   2.260   8.652
11423WAT     H234512   5.339   2.249   8.788
11424WAT      O34513   8.813   5.488   6.403
11424WAT     H134514   8.760   5.459   6.483
11424WAT     H234515   8.868   5.568   6.426
11425WAT      O34516   1.437   6.490   5.827
11425WAT     H134517   1.444   6.524   5.920
11425WAT     H234518   1.357   6.430   5.819
11426WAT      O34519   1.638   1.863   1.313
11426WAT     H134520   1.610   1.771   1.288
11426WAT     H234521   1.667   1.913   1.232
11427WAT      O34522   7.484   4.933   6.490
11427WAT     H134523   7.546   4.860   6.463
11427WAT     H234524   7.422   4.955   6.415
11428WAT      O34525   5.245   5.161   3.340
11428WAT     H134526   5.313   5.104   3.385
11428WAT     H234527   5.168   5.104   3.310
11429WAT      O34528   0.057   6.171   4.264
11429WAT     H134529   0.149   6.209   4.259
11429WAT     H234530   0.030   6.136   4.175
11430WAT      O34531   4.263   3.379   3.513
11430WAT     H134532   4.227   3.468   3.540
11430WAT     H234533   4.340   3.391   3.451
11431WAT      O34534   8.241   5.435   5.990
11431WAT     H134535   8.190   5.413   6.073
11431WAT     H234536   8.243   5.355   5.930
11432WAT      O34537   0.073   1.571   1.322
11432WAT     H134538   0.119   1.550   1.236
11432WAT     H234539   0.110   1.513   1.395
11433WAT      O34540   6.168   2.887   6.566
11433WAT     H134541   6.098   2.905   6.635
11433WAT     H234542   6.153   2.946   6.487
11434WAT      O34543   0.974   8.466   6.156
11434WAT     H134544   0.915   8.403   6.105
11434WAT     H234545   1.047   8.414   6.201
11435WAT      O34546   2.963   9.258   8.805
11435WAT     H134547   2.905   9.220   8.734
11435WAT     H234548   2.930   9.229   8.895
11436WAT      O34549   0.398   8.151   4.000
11436WAT     H134550   0.387   8.249   3.986
11436WAT     H234551   0.340   8.102   3.935
11437WAT      O34552   0.194   5.736   1.906
11437WAT     H134553   0.262   5.715   1.835
11437WAT     H234554   0.239   5.737   1.995
11438WAT      O34555   3.362   2.459   5.629
11438WAT     H134556   3.401   2.425   5.715
11438WAT     H234557   3.305   2.539   5.648
11439WAT      O34558   0.037   3.070   4.258
11439WAT     H134559   0.135   3.049   4.253
11439WAT     H234560   0.022   3.164   4.226
11440WAT      O34561   9.364   8.532   2.983
11440WAT     H134562   9.315   8.475   2.918
11440WAT     H234563   9.416   8.474   3.046
11441WAT      O34564   4.979   2.844   1.351
11441WAT     H134565   4.961   2.842   1.252
11441WAT     H234566   5.064   2.793   1.370
11442WAT      O34567   6.305   3.567   5.025
11442WAT     H134568   6.354   3.483   5.049
11442WAT     H234569   6.351   3.611   4.948
11443WAT      O34570   0.068   1.923   8.955
11443WAT     H134571   0.011   1.854   8.911
11443WAT     H234572   0.077   1.902   9.052
11444WAT      O34573   7.839   8.528   7.110
11444WAT     H134574   7.790   8.453   7.065
11444WAT     H234575   7.869   8.499   7.201
11445WAT      O34576   8.626   1.091   3.959
11445WAT     H134577   8.631   0.995   3.984
11445WAT     H234578   8.708   1.138   3.992
11446WAT      O34579   8.060   3.062   6.322
11446WAT     H134580   8.030   2.971   6.292
11446WAT     H234581   8.128   3.052   6.394
11447WAT      O34582   4.967   5.710   1.521
11447WAT     H134583   4.991   5.790   1.575
11447WAT     H234584   5.032   5.637   1.538
11448WAT      O34585   6.599   0.176   8.630
11448WAT     H134586   6.660   0.112   8.583
11448WAT     H234587   6.520   0.127   8.666
11449WAT      O34588   8.236   3.133   0.887
11449WAT     H134589   8.249   3.174   0.977
11449WAT     H234590   8.176   3.053   0.896
11450WAT      O34591   3.137   5.154   3.281
11450WAT     H134592   3.074   5.095   3.229
11450WAT     H234593   3.127   5.135   3.378
11451WAT      O34594   9.874   0.580   0.891
11451WAT     H134595   9.781   0.613   0.871
11451WAT     H234596   9.871   0.514   0.966
11452WAT      O34597   8.882   1.592   8.399
11452WAT     H134598   8.833   1.559   8.479
11452WAT     H234599   8.895   1.517   8.334
11453WAT      O34600   8.278   3.734   3.045
11453WAT     H134601   8.350   3.688   2.993
11453WAT     H234602   8.189   3.714   3.004
11454WAT      O34603   5.049   6.070   1.018
11454WAT     H134604   5.080   6.147   0.963
11454WAT     H234605   5.082   6.080   1.112
11455WAT      O34606   3.962   0.386   3.752
11455WAT     H134607   3.998   0.294   3.770
11455WAT     H234608   3.999   0.450   3.819
11456WAT      O34609   1.608   8.541   8.325
11456WAT     H134610   1.543   8.616   8.339
11456WAT     H234611   1.685   8.573   8.271
11457WAT      O34612   2.417   1.569   9.675
11457WAT     H134613   2.467   1.603   9.755
11457WAT     H234614   2.479   1.518   9.616
11458WAT      O34615   8.279   1.819   0.908
11458WAT     H134616   8.296   1.899   0.965
11458WAT     H234617   8.332   1.826   0.823
11459WAT      O34618   5.762   7.936   2.254
11459WAT     H134619   5.842   7.906   2.202
11459WAT     H234620   5.775   7.912   2.351
11460WAT      O34621   4.450   4.819   7.723
11460WAT     H134622   4.516   4.888   7.696
11460WAT     H234623   4.368   4.828   7.667
11461WAT      O34624   9.327   4.965   7.661
11461WAT     H134625   9.286   4.876   7.683
11461WAT     H234626   9.425   4.953   7.645
11462WAT      O34627   6.959   0.998   7.547
11462WAT     H134628   6.881   0.939   7.525
11462WAT     H234629   6.992   1.042   7.463
11463WAT      O34630   2.757   5.797   7.377
11463WAT     H134631   2.753   5.726   7.307
11463WAT     H234632   2.784   5.883   7.335
11464WAT      O34633   1.456   3.256   4.294
11464WAT     H134634   1.419   3.234   4.204
11464WAT     H234635   1.402   3.330   4.334
11465WAT      O34636   9.561   4.581   2.506
11465WAT     H134637   9.631   4.570   2.576
11465WAT     H234638   9.476   4.611   2.548
11466WAT      O34639   8.668   3.266   8.500
11466WAT     H134640   8.691   3.202   8.573
11466WAT     H234641   8.622   3.217   8.426
11467WAT      O34642   2.767   1.961   6.401
11467WAT     H134643   2.689   2.018   6.423
11467WAT     H234644   2.825   2.007   6.334
11468WAT      O34645   9.122   8.880   3.472
11468WAT     H134646   9.137   8.808   3.404
11468WAT     H234647   9.189   8.871   3.546
11469WAT      O34648   5.311   0.854   4.997
11469WAT     H134649   5.350   0.946   4.998
11469WAT     H234650   5.354   0.802   4.923
11470WAT      O34651   3.719   2.613   5.896
11470WAT     H134652   3.807   2.658   5.886
11470WAT     H234653   3.656   2.646   5.825
11471WAT      O34654   7.190   3.023   7.584
11471WAT     H134655   7.257   2.970   7.532
11471WAT     H234656   7.233   3.060   7.666
11472WAT      O34657   3.462   1.558   9.047
11472WAT     H134658   3.432   1.590   9.136
11472WAT     H234659   3.435   1.462   9.035
11473WAT      O34660   8.075   3.113   1.506
11473WAT     H134661   8.141   3.111   1.431
11473WAT     H234662   8.010   3.187   1.492
11474WAT      O34663   1.809   0.770   1.836
11474WAT     H134664   1.714   0.800   1.824
11474WAT     H234665   1.819   0.676   1.801
11475WAT      O34666   2.439   7.014   4.211
11475WAT     H134667   2.417   6.963   4.127
11475WAT     H234668   2.504   6.961   4.265
11476WAT      O34669   8.228   8.203   1.730
11476WAT     H134670   8.154   8.149   1.772
11476WAT     H234671   8.202   8.227   1.636
11477WAT      O34672   6.684   9.654   6.166
11477WAT     H134673   6.735   9.588   6.220
11477WAT     H234674   6.587   9.651   6.193
11478WAT      O34675   5.883   1.694   8.399
11478WAT     H134676   5.951   1.765   8.382
11478WAT     H234677   5.901   1.650   8.487
11479WAT      O34678   7.586   1.066   6.718
11479WAT     H134679   7.510   1.001   6.708
11479WAT     H234680   7.642   1.065   6.635
11480WAT      O34681   7.117   5.682   1.745
11480WAT     H134682   7.100   5.756   1.679
11480WAT     H234683   7.191   5.709   1.807
11481WAT      O34684   3.043   3.595   9.797
11481WAT     H134685   2.981   3.672   9.781
11481WAT     H234686   3.117   3.625   9.858
11482WAT      O34687   9.608   9.226   6.777
11482WAT     H134688   9.584   9.185   6.688
11482WAT     H234689   9.675   9.298   6.762
11483WAT      O34690   2.092   2.757   2.182
11483WAT     H134691   2.004   2.767   2.135
11483WAT     H234692   2.135   2.847   2.190
11484WAT      O34693   4.615   6.183   1.162
11484WAT     H134694   4.689   6.221   1.106
11484WAT     H234695   4.624   6.083   1.165
11485WAT      O34696   4.839   8.737   0.070
11485WAT     H134697   4.795   8.669   0.012
11485WAT     H234698   4.864   8.695   0.158
11486WAT      O34699   5.631   0.577   0.384
11486WAT     H134700   5.723   0.551   0.358
11486WAT     H234701   5.587   0.502   0.434
11487WAT      O34702   2.485   4.162   8.641
11487WAT     H134703   2.531   4.214   8.570
11487WAT     H234704   2.389   4.150   8.616
11488WAT      O34705   7.706   0.948   6.951
11488WAT     H134706   7.691   0.968   6.855
11488WAT     H234707   7.786   0.888   6.961
11489WAT      O34708   5.562   5.353   6.917
11489WAT     H134709   5.586   5.269   6.966
11489WAT     H234710   5.516   5.330   6.831
11490WAT      O34711   2.008   0.803   9.165
11490WAT     H134712   2.082   0.865   9.193
11490WAT     H234713   2.027   0.768   9.073
11491WAT      O34714   0.452   9.841   6.741
11491WAT     H134715   0.397   9.925   6.742
11491WAT     H234716   0.416   9.776   6.808
11492WAT      O34717   7.965   8.857   4.375
11492WAT     H134718   7.907   8.786   4.417
11492WAT     H234719   7.912   8.906   4.306
11493WAT      O34720   1.307   0.494   4.448
11493WAT     H134721   1.367   0.533   4.377
11493WAT     H234722   1.245   0.565   4.482
11494WAT      O34723   4.000   7.687   1.628
11494WAT     H134724   4.092   7.725   1.632
11494WAT     H234725   3.973   7.654   1.718
11495WAT      O34726   8.354   2.567   3.325
11495WAT     H134727   8.432   2.614   3.282
11495WAT     H234728   8.270   2.596   3.280
11496WAT      O34729   9.227   2.658   7.025
11496WAT     H134730   9.213   2.665   7.123
11496WAT     H234731   9.170   2.725   6.978
11497WAT      O34732   0.507   9.194   3.034
11497WAT     H134733   0.477   9.287   3.053
11497WAT     H234734   0.483   9.169   2.940
11498WAT      O34735   7.261   6.080   7.419
11498WAT     H134736   7.247   6.038   7.330
11498WAT     H234737   7.225   6.173   7.418
11499WAT      O34738   9.310   5.908   0.990
11499WAT     H134739   9.400   5.879   0.959
11499WAT     H234740   9.302   6.007   0.982
11500WAT      O34741   9.093   3.735   2.188
11500WAT     H134742   9.020   3.680   2.228
11500WAT     H234743   9.083   3.736   2.088
11501WAT      O34744   0.353   5.714   4.808
11501WAT     H134745   0.411   5.796   4.807
11501WAT     H234746   0.410   5.633   4.818
11502WAT      O34747   4.673   0.112   5.299
11502WAT     H134748   4.685   0.081   5.393
11502WAT     H234749   4.662   0.034   5.238
11503WAT      O34750   1.526   8.546   5.276
11503WAT     H134751   1.450   8.491   5.242
11503WAT     H234752   1.494   8.604   5.352
11504WAT      O34753   9.736   0.399   5.906
11504WAT     H134754   9.775   0.308   5.922
11504WAT     H234755   9.687   0.399   5.818
11505WAT      O34756   8.015   1.407   3.839
11505WAT     H134757   7.930   1.451   3.870
11505WAT     H234758   8.089   1.429   3.902
11506WAT      O34759   0.185   2.130   8.519
11506WAT     H134760   0.224   2.219   8.495
11506WAT     H234761   0.116   2.105   8.451
11507WAT      O34762   0.340   8.383   8.240
11507WAT     H134763   0.387   8.349   8.160
11507WAT     H234764   0.299   8.472   8.220
11508WAT      O34765   2.487   8.808   3.493
11508WAT     H134766   2.464   8.745   3.419
11508WAT     H234767   2.441   8.896   3.476
11509WAT      O34768   5.449   9.161   2.847
11509WAT     H134769   5.372   9.191   2.792
11509WAT     H234770   5.457   9.061   2.842
11510WAT      O34771   6.299   1.907   5.333
11510WAT     H134772   6.292   1.898   5.432
11510WAT     H234773   6.370   1.973   5.311
11511WAT      O34774   2.917   6.224   1.507
11511WAT     H134775   2.878   6.268   1.426
11511WAT     H234776   2.898   6.126   1.504
11512WAT      O34777   0.324   3.098   1.179
11512WAT     H134778   0.244   3.063   1.130
11512WAT     H234779   0.350   3.187   1.141
11513WAT      O34780   6.718   8.526   0.316
11513WAT     H134781   6.660   8.456   0.275
11513WAT     H234782   6.811   8.519   0.279
11514WAT      O34783   2.783   8.095   2.297
11514WAT     H134784   2.858   8.070   2.359
11514WAT     H234785   2.696   8.078   2.343
11515WAT      O34786   1.025   8.283   7.803
11515WAT     H134787   0.996   8.299   7.709
11515WAT     H234788   0.973   8.207   7.842
11516WAT      O34789   0.565   4.212   5.780
11516WAT     H134790   0.497   4.259   5.837
11516WAT     H234791   0.539   4.116   5.769
11517WAT      O34792   4.226   0.780   8.755
11517WAT     H134793   4.250   0.704   8.695
11517WAT     H234794   4.190   0.744   8.842
11518WAT      O34795   4.004   5.234   7.086
11518WAT     H134796   3.938   5.174   7.130
11518WAT     H234797   4.095   5.218   7.125
11519WAT      O34798   8.022   2.576   6.635
11519WAT     H134799   8.013   2.674   6.653
11519WAT     H234800   7.937   2.530   6.660
11520WAT      O34801   5.878   2.349   7.468
11520WAT     H134802   5.780   2.328   7.466
11520WAT     H234803   5.893   2.440   7.430
11521WAT      O34804   0.619   8.149   2.277
11521WAT     H134805   0.545   8.096   2.235
11521WAT     H234806   0.601   8.160   2.375
11522WAT      O34807   4.285   4.451   5.931
11522WAT     H134808   4.207   4.397   5.897
11522WAT     H234809   4.358   4.449   5.862
11523WAT      O34810   2.270   3.228   7.905
11523WAT     H134811   2.326   3.250   7.825
11523WAT     H234812   2.194   3.293   7.912
11524WAT      O34813   5.360   7.784   4.502
11524WAT     H134814   5.357   7.823   4.594
11524WAT     H234815   5.268   7.763   4.471
11525WAT      O34816   5.303   4.353   7.762
11525WAT     H134817   5.237   4.417   7.723
11525WAT     H234818   5.296   4.265   7.717
11526WAT      O34819   6.384   6.646   0.313
11526WAT     H134820   6.320   6.583   0.356
11526WAT     H234821   6.371   6.645   0.214
11527WAT      O34822   4.585   4.119   0.322
11527WAT     H134823   4.656   4.166   0.269
11527WAT     H234824   4.615   4.109   0.417
11528WAT      O34825   3.451   6.644   4.452
11528WAT     H134826   3.486   6.721   4.400
11528WAT     H234827   3.373   6.604   4.403
11529WAT      O34828   7.722   4.386   4.211
11529WAT     H134829   7.705   4.317   4.282
11529WAT     H234830   7.641   4.444   4.201
11530WAT      O34831   6.852   8.347   0.720
11530WAT     H134832   6.832   8.440   0.691
11530WAT     H234833   6.861   8.343   0.819
11531WAT      O34834   2.486   0.917   0.744
11531WAT     H134835   2.402   0.957   0.709
11531WAT     H234836   2.508   0.958   0.833
11532WAT      O34837   7.804   9.615   3.637
11532WAT     H134838   7.741   9.676   3.684
11532WAT     H234839   7.835   9.543   3.700
11533WAT      O34840   3.773   8.706   4.769
11533WAT     H134841   3.771   8.607   4.782
11533WAT     H234842   3.703   8.749   4.827
11534WAT      O34843   0.985   4.394   1.121
11534WAT     H134844   0.985   4.361   1.215
11534WAT     H234845   1.058   4.462   1.109
11535WAT      O34846   1.539   6.489   7.838
11535WAT     H134847   1.491   6.557   7.894
11535WAT     H234848   1.617   6.452   7.889
11536WAT      O34849   4.055   7.959   7.741
11536WAT     H134850   4.114   7.881   7.720
11536WAT     H234851   3.967   7.948   7.695
11537WAT      O34852   3.783   1.370   9.006
11537WAT     H134853   3.694   1.341   8.970
11537WAT     H234854   3.826   1.434   8.943
11538WAT      O34855   7.869   6.884   7.098
11538WAT     H134856   7.917   6.801   7.071
11538WAT     H234857   7.862   6.887   7.198
11539WAT      O34858   6.351   6.994   8.154
11539WAT     H134859   6.290   7.007   8.075
11539WAT     H234860   6.446   6.997   8.123
11540WAT      O34861   8.824   0.467   9.364
11540WAT     H134862   8.875   0.415   9.432
11540WAT     H234863   8.795   0.406   9.290
11541WAT      O34864   2.110   8.305   5.303
11541WAT     H134865   2.076   8.288   5.395
11541WAT     H234866   2.122   8.403   5.288
11542WAT      O34867   7.380   9.553   0.417
11542WAT     H134868   7.355   9.511   0.330
11542WAT     H234869   7.395   9.482   0.486
11543WAT      O34870   0.920   6.963   8.158
11543WAT     H134871   0.894   7.047   8.110
11543WAT     H234872   1.007   6.929   8.121
11544WAT      O34873   9.164   2.889   7.255
11544WAT     H134874   9.077   2.926   7.289
11544WAT     H234875   9.175   2.795   7.287
11545WAT      O34876   0.116   3.481   6.055
11545WAT     H134877   0.025   3.466   6.095
11545WAT     H234878   0.150   3.570   6.083
11546WAT      O34879   3.953   5.968   2.431
11546WAT     H134880   4.043   5.925   2.420
11546WAT     H234881   3.923   6.006   2.344
11547WAT      O34882   7.455   0.742   2.107
11547WAT     H134883   7.530   0.684   2.138
11547WAT     H234884   7.378   0.736   2.171
11548WAT      O34885   1.466   7.945   6.927
11548WAT     H134886   1.498   7.942   7.022
11548WAT     H234887   1.469   7.853   6.887
11549WAT      O34888   4.177   1.169   3.160
11549WAT     H134889   4.177   1.197   3.064
11549WAT     H234890   4.115   1.228   3.212
11550WAT      O34891   4.748   4.691   1.852
11550WAT     H134892   4.831   4.661   1.900
11550WAT     H234893   4.748   4.791   1.846
11551WAT      O34894   9.280   6.053   8.822
11551WAT     H134895   9.379   6.052   8.813
11551WAT     H234896   9.243   6.134   8.777
11552WAT      O34897   7.781   9.281   6.985
11552WAT     H134898   7.811   9.193   6.948
11552WAT     H234899   7.860   9.341   6.997
11553WAT      O34900   7.216   2.267   6.366
11553WAT     H134901   7.166   2.237   6.285
11553WAT     H234902   7.299   2.315   6.337
11554WAT      O34903   2.895   2.275   4.188
11554WAT     H134904   2.922   2.371   4.194
11554WAT     H234905   2.975   2.216   4.202
11555WAT      O34906   8.225   0.446   0.777
11555WAT     H134907   8.280   0.508   0.722
11555WAT     H234908   8.284   0.393   0.838
11556WAT      O34909   0.631   2.240   6.278
11556WAT     H134910   0.579   2.203   6.355
11556WAT     H234911   0.700   2.304   6.313
11557WAT      O34912   0.358   4.571   7.961
11557WAT     H134913   0.456   4.554   7.947
11557WAT     H234914   0.308   4.485   7.956
11558WAT      O34915   4.846   4.761   6.057
11558WAT     H134916   4.925   4.763   5.996
11558WAT     H234917   4.845   4.845   6.112
11559WAT      O34918   9.050   6.656   1.490
11559WAT     H134919   9.088   6.660   1.398
11559WAT     H234920   8.989   6.577   1.497
11560WAT      O34921   8.700   1.844   4.436
11560WAT     H134922   8.729   1.887   4.522
11560WAT     H234923   8.610   1.802   4.447
11561WAT      O34924   0.452   7.520   9.123
11561WAT     H134925   0.548   7.492   9.122
11561WAT     H234926   0.436   7.583   9.198
11562WAT      O34927   2.416   2.780   1.769
11562WAT     H134928   2.398   2.846   1.696
11562WAT     H234929   2.514   2.776   1.787
11563WAT      O34930   4.158   8.988   3.350
11563WAT     H134931   4.112   9.070   3.315
11563WAT     H234932   4.165   8.920   3.276
11564WAT      O34933   9.287   3.551   0.481
11564WAT     H134934   9.313   3.556   0.577
11564WAT     H234935   9.351   3.492   0.432
11565WAT      O34936   2.710   2.970   1.040
11565WAT     H134937   2.733   3.060   1.078
11565WAT     H234938   2.655   2.982   0.958
11566WAT      O34939   8.926   7.965   4.916
11566WAT     H134940   8.889   7.872   4.912
11566WAT     H234941   8.916   8.001   5.009
11567WAT      O34942   5.397   7.759   3.811
11567WAT     H134943   5.301   7.780   3.824
11567WAT     H234944   5.444   7.758   3.900
11568WAT      O34945   5.434   7.547   5.955
11568WAT     H134946   5.498   7.515   6.025
11568WAT     H234947   5.348   7.497   5.964
11569WAT      O34948   5.022   9.672   0.786
11569WAT     H134949   5.053   9.665   0.691
11569WAT     H234950   4.962   9.595   0.808
11570WAT      O34951   9.852   7.050   9.193
11570WAT     H134952   9.779   7.087   9.135
11570WAT     H234953   9.840   6.951   9.203
11571WAT      O34954   4.188   8.106   4.305
11571WAT     H134955   4.233   8.028   4.262
11571WAT     H234956   4.256   8.163   4.351
11572WAT      O34957   9.663   2.279   6.534
11572WAT     H134958   9.571   2.310   6.560
11572WAT     H234959   9.660   2.182   6.511
11573WAT      O34960   1.580   3.668   7.504
11573WAT     H134961   1.483   3.644   7.513
11573WAT     H234962   1.631   3.632   7.582
11574WAT      O34963   2.066   5.935   7.445
11574WAT     H134964   1.998   5.874   7.486
11574WAT     H234965   2.080   6.014   7.504
11575WAT      O34966   4.116   6.987   4.650
11575WAT     H134967   4.128   6.979   4.551
11575WAT     H234968   4.192   6.944   4.698
11576WAT      O34969   8.791   6.713   5.622
11576WAT     H134970   8.855   6.772   5.671
11576WAT     H234971   8.712   6.694   5.680
11577WAT      O34972   3.099   7.998   8.578
11577WAT     H134973   3.069   8.091   8.601
11577WAT     H234974   3.027   7.933   8.604
11578WAT      O34975   7.632   9.456   6.298
11578WAT     H134976   7.550   9.401   6.318
11578WAT     H234977   7.694   9.452   6.376
11579WAT      O34978   6.963   1.008   9.268
11579WAT     H134979   6.992   0.928   9.215
11579WAT     H234980   7.019   1.087   9.241
11580WAT      O34981   2.624   8.012   3.506
11580WAT     H134982   2.588   7.966   3.587
11580WAT     H234983   2.716   8.046   3.526
11581WAT      O34984   9.482   2.010   4.496
11581WAT     H134985   9.526   2.029   4.409
11581WAT     H234986   9.462   1.913   4.504
11582WAT      O34987   8.043   3.379   9.727
11582WAT     H134988   8.022   3.299   9.670
11582WAT     H234989   7.987   3.376   9.810
11583WAT      O34990   5.250   8.437   8.062
11583WAT     H134991   5.247   8.338   8.077
11583WAT     H234992   5.312   8.479   8.128
11584WAT      O34993   4.697   6.069   5.800
11584WAT     H134994   4.648   6.057   5.713
11584WAT     H234995   4.634   6.099   5.871
11585WAT      O34996   9.156   0.299   7.259
11585WAT     H134997   9.107   0.215   7.233
11585WAT     H234998   9.251   0.276   7.281
11586WAT      O34999   5.505   0.269   9.712
11586WAT     H135000   5.591   0.243   9.667
11586WAT     H235001   5.428   0.231   9.661
11587WAT      O35002   4.745   5.638   9.525
11587WAT     H135003   4.824   5.576   9.526
11587WAT     H235004   4.762   5.712   9.460
11588WAT      O35005   3.965   0.819   6.525
11588WAT     H135006   3.936   0.861   6.439
11588WAT     H235007   4.064   0.803   6.522
11589WAT      O35008   4.181   3.610   4.974
11589WAT     H135009   4.173   3.569   5.064
11589WAT     H235010   4.139   3.551   4.906
11590WAT      O35011   7.121   5.821   3.181
11590WAT     H135012   7.215   5.856   3.188
11590WAT     H235013   7.123   5.726   3.150
11591WAT      O35014   7.810   2.271   9.365
11591WAT     H135015   7.720   2.237   9.393
11591WAT     H235016   7.878   2.247   9.434
11592WAT      O35017   4.283   0.529   4.963
11592WAT     H135018   4.332   0.561   4.882
11592WAT     H235019   4.268   0.605   5.026
11593WAT      O35020   3.191   4.552   5.432
11593WAT     H135021   3.191   4.650   5.453
11593WAT     H235022   3.156   4.537   5.340
11594WAT      O35023   8.153   5.016   2.709
11594WAT     H135024   8.198   5.104   2.700
11594WAT     H235025   8.098   5.014   2.792
11595WAT      O35026   0.263   6.046   1.092
11595WAT     H135027   0.268   5.986   1.012
11595WAT     H235028   0.182   6.105   1.084
11596WAT      O35029   2.171   5.647   1.920
11596WAT     H135030   2.226   5.691   1.849
11596WAT     H235031   2.134   5.716   1.982
11597WAT      O35032   9.059   7.758   5.310
11597WAT     H135033   8.985   7.700   5.344
11597WAT     H235034   9.076   7.833   5.375
11598WAT      O35035   5.099   7.996   1.983
11598WAT     H135036   5.072   8.090   1.960
11598WAT     H235037   5.026   7.933   1.954
11599WAT      O35038   1.154   2.036   7.345
11599WAT     H135039   1.139   1.938   7.332
11599WAT     H235040   1.251   2.057   7.333
11600WAT      O35041   1.185   4.679   4.411
11600WAT     H135042   1.168   4.583   4.433
11600WAT     H235043   1.241   4.720   4.483
11601WAT      O35044   1.193   1.428   8.247
11601WAT     H135045   1.239   1.342   8.267
11601WAT     H235046   1.252   1.504   8.275
11602WAT      O35047   8.258   7.184   2.572
11602WAT     H135048   8.309   7.123   2.511
11602WAT     H235049   8.162   7.185   2.546
11603WAT      O35050   7.527   8.335   6.117
11603WAT     H135051   7.475   8.260   6.158
11603WAT     H235052   7.625   8.316   6.125
11604WAT      O35053   0.818   7.386   4.385
11604WAT     H135054   0.743   7.330   4.351
11604WAT     H235055   0.782   7.475   4.415
11605WAT      O35056   6.446   7.396   7.484
11605WAT     H135057   6.466   7.441   7.397
11605WAT     H235058   6.527   7.346   7.515
11606WAT      O35059   6.772   6.187   5.222
11606WAT     H135060   6.776   6.106   5.280
11606WAT     H235061   6.696   6.246   5.251
11607WAT      O35062   3.081   8.870   1.966
11607WAT     H135063   2.999   8.914   1.929
11607WAT     H235064   3.145   8.851   1.891
11608WAT      O35065   3.535   6.850   1.537
11608WAT     H135066   3.598   6.818   1.608
11608WAT     H235067   3.457   6.787   1.530
11609WAT      O35068   1.025   9.068   4.178
11609WAT     H135069   0.988   9.144   4.231
11609WAT     H235070   1.096   9.102   4.116
11610WAT      O35071   5.423   6.189   4.743
11610WAT     H135072   5.468   6.129   4.677
11610WAT     H235073   5.329   6.205   4.714
11611WAT      O35074   8.710   7.480   8.583
11611WAT     H135075   8.748   7.535   8.508
11611WAT     H235076   8.644   7.535   8.634
11612WAT      O35077   5.046   7.619   7.820
11612WAT     H135078   5.083   7.633   7.728
11612WAT     H235079   4.989   7.697   7.846
11613WAT      O35080   2.784   3.905   2.023
11613WAT     H135081   2.832   3.973   1.967
11613WAT     H235082   2.687   3.903   1.998
11614WAT      O35083   9.608   0.514   3.924
11614WAT     H135084   9.571   0.567   4.000
11614WAT     H235085   9.695   0.473   3.951
11615WAT      O35086   5.930   1.643   3.377
11615WAT     H135087   5.919   1.742   3.369
11615WAT     H235088   5.929   1.602   3.286
11616WAT      O35089   4.789   5.731   2.192
11616WAT     H135090   4.736   5.698   2.270
11616WAT     H235091   4.833   5.818   2.216
11617WAT      O35092   6.924   8.370   2.494
11617WAT     H135093   6.876   8.298   2.544
11617WAT     H235094   6.868   8.453   2.494
11618WAT      O35095   8.376   1.724   5.105
11618WAT     H135096   8.330   1.811   5.124
11618WAT     H235097   8.326   1.676   5.033
11619WAT      O35098   7.463   9.126   0.038
11619WAT     H135099   7.429   9.176  -0.041
11619WAT     H235100   7.519   9.187   0.095
11620WAT      O35101   9.246   7.544   1.754
11620WAT     H135102   9.326   7.602   1.771
11620WAT     H235103   9.273   7.448   1.756
11621WAT      O35104   0.109   9.531   6.314
11621WAT     H135105   0.164   9.577   6.245
11621WAT     H235106   0.014   9.525   6.282
11622WAT      O35107   3.727   7.860   7.937
11622WAT     H135108   3.667   7.842   7.860
11622WAT     H235109   3.691   7.938   7.990
11623WAT      O35110   5.100   1.632   6.245
11623WAT     H135111   5.179   1.689   6.265
11623WAT     H235112   5.016   1.686   6.255
11624WAT      O35113   6.306   2.411   5.706
11624WAT     H135114   6.368   2.445   5.635
11624WAT     H235115   6.349   2.334   5.753
11625WAT      O35116   5.027   5.027   2.123
11625WAT     H135117   5.011   5.032   2.024
11625WAT     H235118   5.095   4.956   2.142
11626WAT      O35119   6.156   3.787   9.176
11626WAT     H135120   6.198   3.868   9.217
11626WAT     H235121   6.056   3.792   9.188
11627WAT      O35122   4.843   3.544   3.176
11627WAT     H135123   4.938   3.571   3.158
11627WAT     H235124   4.828   3.451   3.143
11628WAT      O35125   3.470   2.443   3.995
11628WAT     H135126   3.380   2.410   4.023
11628WAT     H235127   3.533   2.438   4.073
11629WAT      O35128   6.226   8.223   7.576
11629WAT     H135129   6.258   8.149   7.636
11629WAT     H235130   6.200   8.302   7.632
11630WAT      O35131   1.045   4.695   6.756
11630WAT     H135132   1.001   4.687   6.846
11630WAT     H235133   1.076   4.605   6.726
11631WAT      O35134   3.109   8.018   5.228
11631WAT     H135135   3.034   7.953   5.217
11631WAT     H235136   3.073   8.105   5.260
11632WAT      O35137   7.101   8.940   4.990
11632WAT     H135138   7.183   8.946   5.046
11632WAT     H235139   7.021   8.925   5.048
11633WAT      O35140   5.544   3.324   4.801
11633WAT     H135141   5.586   3.378   4.728
11633WAT     H235142   5.611   3.261   4.839
11634WAT      O35143   3.672   5.298   7.429
11634WAT     H135144   3.761   5.253   7.439
11634WAT     H235145   3.654   5.315   7.332
11635WAT      O35146   8.169   0.250   9.284
11635WAT     H135147   8.224   0.215   9.359
11635WAT     H235148   8.149   0.176   9.219
11636WAT      O35149   3.192   9.142   0.224
11636WAT     H135150   3.278   9.166   0.178
11636WAT     H235151   3.130   9.099   0.158
11637WAT      O35152   7.463   4.227   8.566
11637WAT     H135153   7.435   4.155   8.502
11637WAT     H235154   7.561   4.219   8.585
11638WAT      O35155   0.894   7.286   8.833
11638WAT     H135156   0.958   7.325   8.767
11638WAT     H235157   0.805   7.331   8.825
11639WAT      O35158   8.690   9.423   2.754
11639WAT     H135159   8.732   9.483   2.687
11639WAT     H235160   8.732   9.332   2.749
11640WAT      O35161   6.803   7.769   1.546
11640WAT     H135162   6.856   7.854   1.546
11640WAT     H235163   6.841   7.707   1.615
11641WAT      O35164   9.199   2.611   7.336
11641WAT     H135165   9.257   2.543   7.382
11641WAT     H235166   9.118   2.567   7.299
11642WAT      O35167   4.066   6.528   8.802
11642WAT     H135168   4.045   6.622   8.776
11642WAT     H235169   4.153   6.501   8.761
11643WAT      O35170   3.830   3.369   2.935
11643WAT     H135171   3.766   3.373   2.859
11643WAT     H235172   3.833   3.275   2.971
11644WAT      O35173   4.671   0.777   6.511
11644WAT     H135174   4.636   0.684   6.523
11644WAT     H235175   4.687   0.819   6.600
11645WAT      O35176   8.801   0.179   0.373
11645WAT     H135177   8.769   0.256   0.428
11645WAT     H235178   8.749   0.097   0.396
11646WAT      O35179   5.202   5.487   0.380
11646WAT     H135180   5.232   5.524   0.292
11646WAT     H235181   5.198   5.561   0.447
11647WAT      O35182   0.744   1.286   2.166
11647WAT     H135183   0.757   1.342   2.248
11647WAT     H235184   0.660   1.315   2.120
11648WAT      O35185   5.768   6.163   8.733
11648WAT     H135186   5.830   6.100   8.686
11648WAT     H235187   5.690   6.113   8.770
11649WAT      O35188   0.148   4.230   4.874
11649WAT     H135189   0.239   4.191   4.885
11649WAT     H235190   0.089   4.198   4.948
11650WAT      O35191   3.293   1.532   3.352
11650WAT     H135192   3.336   1.461   3.407
11650WAT     H235193   3.234   1.588   3.411
11651WAT      O35194   3.079   3.003   1.543
11651WAT     H135195   2.990   3.047   1.549
11651WAT     H235196   3.099   2.956   1.629
11652WAT      O35197   1.730   2.492   5.320
11652WAT     H135198   1.736   2.490   5.220
11652WAT     H235199   1.635   2.505   5.348
11653WAT      O35200   5.413   7.644   5.023
11653WAT     H135201   5.464   7.681   5.100
11653WAT     H235202   5.452   7.556   4.995
11654WAT      O35203   3.843   2.211   1.852
11654WAT     H135204   3.894   2.160   1.783
11654WAT     H235205   3.851   2.165   1.940
11655WAT      O35206   3.308   8.636   4.741
11655WAT     H135207   3.399   8.652   4.704
11655WAT     H235208   3.300   8.679   4.830
11656WAT      O35209   7.766   8.419   8.868
11656WAT     H135210   7.671   8.390   8.858
11656WAT     H235211   7.796   8.404   8.962
11657WAT      O35212   6.087   7.079   3.293
11657WAT     H135213   6.052   7.172   3.304
11657WAT     H235214   6.079   7.051   3.198
11658WAT      O35215   8.090   5.388   3.771
11658WAT     H135216   8.146   5.312   3.739
11658WAT     H235217   7.994   5.371   3.749
11659WAT      O35218   2.431   2.291   1.667
11659WAT     H135219   2.472   2.328   1.583
11659WAT     H235220   2.422   2.192   1.658
11660WAT      O35221   5.810   2.753   7.181
11660WAT     H135222   5.766   2.840   7.202
11660WAT     H235223   5.767   2.713   7.099
11661WAT      O35224   8.062   8.877   0.408
11661WAT     H135225   7.989   8.936   0.374
11661WAT     H235226   8.148   8.902   0.364
11662WAT      O35227   6.105   7.412   0.231
11662WAT     H135228   6.089   7.497   0.282
11662WAT     H235229   6.203   7.392   0.231
11663WAT      O35230   9.323   3.671   4.962
11663WAT     H135231   9.354   3.674   4.866
11663WAT     H235232   9.370   3.597   5.010
11664WAT      O35233   9.481   2.631   6.505
11664WAT     H135234   9.570   2.672   6.487
11664WAT     H235235   9.466   2.555   6.442
11665WAT      O35236   2.239   9.591   5.024
11665WAT     H135237   2.294   9.646   5.087
11665WAT     H235238   2.142   9.614   5.036
11666WAT      O35239   5.138   6.239   6.743
11666WAT     H135240   5.191   6.307   6.691
11666WAT     H235241   5.118   6.276   6.834
11667WAT      O35242   7.596   6.699   2.079
11667WAT     H135243   7.692   6.670   2.073
11667WAT     H235244   7.578   6.731   2.172
11668WAT      O35245   5.233   6.069   8.068
11668WAT     H135246   5.158   6.069   8.001
11668WAT     H235247   5.310   6.016   8.031
11669WAT      O35248   8.977   9.262   2.437
11669WAT     H135249   9.017   9.331   2.497
11669WAT     H235250   9.048   9.224   2.378
11670WAT      O35251   7.732   6.975   5.974
11670WAT     H135252   7.820   6.974   6.020
11670WAT     H235253   7.680   7.056   6.003
11671WAT      O35254   2.561   5.962   1.880
11671WAT     H135255   2.572   5.863   1.866
11671WAT     H235256   2.621   5.992   1.954
11672WAT      O35257   5.458   7.252   7.513
11672WAT     H135258   5.416   7.243   7.423
11672WAT     H235259   5.557   7.254   7.503
11673WAT      O35260   7.309   8.003   6.973
11673WAT     H135261   7.244   7.931   6.997
11673WAT     H235262   7.312   8.071   7.046
11674WAT      O35263   7.536   6.683   6.164
11674WAT     H135264   7.534   6.592   6.122
11674WAT     H235265   7.568   6.751   6.098
11675WAT      O35266   7.343   4.588   3.095
11675WAT     H135267   7.391   4.512   3.052
11675WAT     H235268   7.408   4.643   3.148
11676WAT      O35269   8.171   3.917   0.342
11676WAT     H135270   8.140   3.952   0.254
11676WAT     H235271   8.099   3.858   0.381
11677WAT      O35272   7.567   4.474   7.378
11677WAT     H135273   7.498   4.535   7.418
11677WAT     H235274   7.534   4.380   7.385
11678WAT      O35275   3.942   8.443   5.531
11678WAT     H135276   4.033   8.446   5.490
11678WAT     H235277   3.893   8.362   5.499
11679WAT      O35278   8.024   1.965   7.563
11679WAT     H135279   7.955   1.939   7.496
11679WAT     H235280   7.985   2.033   7.625
11680WAT      O35281   5.738   8.361   2.017
11680WAT     H135282   5.672   8.338   2.088
11680WAT     H235283   5.710   8.445   1.970
11681WAT      O35284   7.189   9.630   2.692
11681WAT     H135285   7.159   9.568   2.620
11681WAT     H235286   7.235   9.578   2.764
11682WAT      O35287   8.623   3.249   3.397
11682WAT     H135288   8.678   3.259   3.315
11682WAT     H235289   8.529   3.225   3.371
11683WAT      O35290   4.328   6.280   2.755
11683WAT     H135291   4.283   6.367   2.732
11683WAT     H235292   4.259   6.215   2.788
11684WAT      O35293   0.668   7.833   8.812
11684WAT     H135294   0.589   7.778   8.841
11684WAT     H235295   0.682   7.821   8.714
11685WAT      O35296   0.889   4.329   9.048
11685WAT     H135297   0.933   4.349   8.960
11685WAT     H235298   0.895   4.231   9.066
11686WAT      O35299   8.982   7.731   2.478
11686WAT     H135300   9.051   7.715   2.407
11686WAT     H235301   8.988   7.826   2.509
11687WAT      O35302   4.195   3.073   4.431
11687WAT     H135303   4.140   3.007   4.482
11687WAT     H235304   4.291   3.044   4.431
11688WAT      O35305   0.141   3.098   7.116
11688WAT     H135306   0.187   3.123   7.202
11688WAT     H235307   0.178   3.153   7.041
11689WAT      O35308   6.431   3.078   4.577
11689WAT     H135309   6.437   2.989   4.531
11689WAT     H235310   6.448   3.066   4.674
11690WAT      O35311   7.758   0.252   2.985
11690WAT     H135312   7.666   0.247   3.025
11690WAT     H235313   7.757   0.208   2.895
11691WAT      O35314   9.326   3.995   9.096
11691WAT     H135315   9.317   4.091   9.123
11691WAT     H235316   9.236   3.950   9.100
11692WAT      O35317   5.092   0.902   1.844
11692WAT     H135318   5.111   0.995   1.811
11692WAT     H235319   4.995   0.894   1.866
11693WAT      O35320   3.540   5.159   0.533
11693WAT     H135321   3.631   5.133   0.501
11693WAT     H235322   3.540   5.256   0.559
11694WAT      O35323   2.392   1.713   2.125
11694WAT     H135324   2.352   1.799   2.095
11694WAT     H235325   2.348   1.637   2.076
11695WAT      O35326   6.008   1.284   7.486
11695WAT     H135327   6.015   1.336   7.571
11695WAT     H235328   6.040   1.190   7.501
11696WAT      O35329   8.471   2.361   6.115
11696WAT     H135330   8.508   2.318   6.197
11696WAT     H235331   8.519   2.447   6.098
11697WAT      O35332   3.020   5.960   1.485
11697WAT     H135333   2.950   5.922   1.424
11697WAT     H235334   2.997   5.937   1.580
11698WAT      O35335   0.276   7.176   4.405
11698WAT     H135336   0.186   7.209   4.432
11698WAT     H235337   0.280   7.077   4.415
11699WAT      O35338   1.740   1.378   2.972
11699WAT     H135339   1.833   1.401   2.942
11699WAT     H235340   1.676   1.400   2.899
11700WAT      O35341   5.399   6.706   8.632
11700WAT     H135342   5.384   6.661   8.544
11700WAT     H235343   5.334   6.673   8.699
11701WAT      O35344   7.997   1.043   7.813
11701WAT     H135345   7.922   1.061   7.750
11701WAT     H235346   7.967   1.064   7.907
11702WAT      O35347   6.649   1.198   3.358
11702WAT     H135348   6.683   1.248   3.438
11702WAT     H235349   6.703   1.115   3.344
11703WAT      O35350   0.733   6.395   7.865
11703WAT     H135351   0.812   6.428   7.814
11703WAT     H235352   0.659   6.374   7.802
11704WAT      O35353   3.784   9.284   2.640
11704WAT     H135354   3.755   9.359   2.700
11704WAT     H235355   3.819   9.322   2.555
11705WAT      O35356   4.511   1.316   9.842
11705WAT     H135357   4.578   1.364   9.899
11705WAT     H235358   4.499   1.366   9.756
11706WAT      O35359   2.150   6.888   3.306
11706WAT     H135360   2.235   6.882   3.253
11706WAT     H235361   2.155   6.825   3.384
11707WAT      O35362   4.251   6.778   1.165
11707WAT     H135363   4.319   6.823   1.107
11707WAT     H235364   4.176   6.743   1.108
11708WAT      O35365   7.150   0.527   7.837
11708WAT     H135366   7.130   0.534   7.739
11708WAT     H235367   7.094   0.455   7.878
11709WAT      O35368   8.352   9.283   4.344
11709WAT     H135369   8.438   9.257   4.301
11709WAT     H235370   8.287   9.208   4.336
11710WAT      O35371   1.097   3.905   0.590
11710WAT     H135372   1.086   3.909   0.689
11710WAT     H235373   1.181   3.857   0.567
11711WAT      O35374   2.317   2.692   4.722
11711WAT     H135375   2.337   2.606   4.768
11711WAT     H235376   2.230   2.685   4.673
11712WAT      O35377   7.547   9.179   6.131
11712WAT     H135378   7.645   9.190   6.146
11712WAT     H235379   7.497   9.226   6.204
11713WAT      O35380   8.760   9.823   1.839
11713WAT     H135381   8.770   9.756   1.766
11713WAT     H235382   8.705   9.784   1.913
11714WAT      O35383   5.554   6.300   3.650
11714WAT     H135384   5.650   6.279   3.631
11714WAT     H235385   5.499   6.218   3.635
11715WAT      O35386   9.413   0.406   4.849
11715WAT     H135387   9.430   0.362   4.761
11715WAT     H235388   9.499   0.412   4.900
11716WAT      O35389   0.426   4.935   1.581
11716WAT     H135390   0.371   4.981   1.511
11716WAT     H235391   0.437   4.839   1.556
11717WAT      O35392   9.574   3.826   6.296
11717WAT     H135393   9.491   3.773   6.281
11717WAT     H235394   9.588   3.839   6.394
11718WAT      O35395   0.742   0.515   8.900
11718WAT     H135396   0.727   0.442   8.835
11718WAT     H235397   0.840   0.534   8.907
11719WAT      O35398   4.974   1.206   0.598
11719WAT     H135399   4.907   1.281   0.600
11719WAT     H235400   5.015   1.196   0.689
11720WAT      O35401   6.333   8.172   1.132
11720WAT     H135402   6.411   8.229   1.104
11720WAT     H235403   6.267   8.167   1.058
11721WAT      O35404   1.416   3.584   7.875
11721WAT     H135405   1.488   3.653   7.864
11721WAT     H235406   1.451   3.508   7.929
11722WAT      O35407   6.853   4.671   4.847
11722WAT     H135408   6.950   4.696   4.854
11722WAT     H235409   6.843   4.573   4.863
11723WAT      O35410   7.994   5.198   5.669
11723WAT     H135411   7.965   5.200   5.765
11723WAT     H235412   8.021   5.105   5.645
11724WAT      O35413   0.817   7.872   5.890
11724WAT     H135414   0.799   7.787   5.940
11724WAT     H235415   0.835   7.852   5.794
11725WAT      O35416   6.524   6.464   8.172
11725WAT     H135417   6.622   6.457   8.186
11725WAT     H235418   6.502   6.450   8.076
11726WAT      O35419   4.422   0.960   8.768
11726WAT     H135420   4.484   0.925   8.697
11726WAT     H235421   4.343   0.899   8.776
11727WAT      O35422   5.799   7.389   1.626
11727WAT     H135423   5.793   7.465   1.562
11727WAT     H235424   5.876   7.404   1.688
11728WAT      O35425   8.963   1.419   5.972
11728WAT     H135426   9.053   1.449   6.004
11728WAT     H235427   8.974   1.366   5.888
11729WAT      O35428   7.388   4.514   4.814
11729WAT     H135429   7.303   4.525   4.763
11729WAT     H235430   7.446   4.595   4.800
11730WAT      O35431   6.506   1.955   1.957
11730WAT     H135432   6.499   1.927   1.861
11730WAT     H235433   6.594   2.000   1.972
11731WAT      O35434   1.128   9.431   7.245
11731WAT     H135435   1.074   9.462   7.166
11731WAT     H235436   1.223   9.457   7.233
11732WAT      O35437   5.642   9.307   0.200
11732WAT     H135438   5.667   9.228   0.144
11732WAT     H235439   5.723   9.339   0.249
11733WAT      O35440   1.530   1.758   5.233
11733WAT     H135441   1.547   1.741   5.136
11733WAT     H235442   1.540   1.672   5.283
11734WAT      O35443   5.728   2.928   3.897
11734WAT     H135444   5.771   2.894   3.814
11734WAT     H235445   5.789   2.993   3.942
11735WAT      O35446   4.163   9.318   2.889
11735WAT     H135447   4.064   9.304   2.894
11735WAT     H235448   4.196   9.286   2.800
11736WAT      O35449   7.743   4.200   8.646
11736WAT     H135450   7.786   4.110   8.660
11736WAT     H235451   7.679   4.218   8.721
11737WAT      O35452   5.993   0.748   5.960
11737WAT     H135453   6.000   0.823   5.895
11737WAT     H235454   6.009   0.661   5.913
11738WAT      O35455   0.918   7.075   6.982
11738WAT     H135456   0.885   7.009   6.915
11738WAT     H235457   0.849   7.084   7.055
11739WAT      O35458   0.054   1.451   4.723
11739WAT     H135459   0.063   1.446   4.822
11739WAT     H235460   0.092   1.538   4.691
11740WAT      O35461   8.546   9.642   9.453
11740WAT     H135462   8.520   9.548   9.478
11740WAT     H235463   8.470   9.704   9.475
11741WAT      O35464   3.137   5.263   6.992
11741WAT     H135465   3.039   5.280   6.992
11741WAT     H235466   3.156   5.175   6.948
11742WAT      O35467   8.562   2.326   7.791
11742WAT     H135468   8.529   2.419   7.777
11742WAT     H235469   8.537   2.296   7.883
11743WAT      O35470   8.939   8.593   7.262
11743WAT     H135471   8.843   8.567   7.273
11743WAT     H235472   8.965   8.586   7.166
11744WAT      O35473   6.192   6.422   9.141
11744WAT     H135474   6.145   6.500   9.100
11744WAT     H235475   6.205   6.350   9.072
11745WAT      O35476   6.847   7.573   4.945
11745WAT     H135477   6.937   7.569   4.987
11745WAT     H235478   6.796   7.650   4.983
11746WAT      O35479   4.339   9.170   4.249
11746WAT     H135480   4.277   9.107   4.295
11746WAT     H235481   4.392   9.219   4.318
11747WAT      O35482   0.917   9.772   8.783
11747WAT     H135483   0.982   9.832   8.737
11747WAT     H235484   0.870   9.715   8.715
11748WAT      O35485   3.997   8.486   3.627
11748WAT     H135486   3.928   8.418   3.603
11748WAT     H235487   3.987   8.566   3.568
11749WAT      O35488   9.135   5.336   7.768
11749WAT     H135489   9.058   5.278   7.741
11749WAT     H235490   9.198   5.284   7.825
11750WAT      O35491   7.053   3.533   4.307
11750WAT     H135492   7.082   3.441   4.332
11750WAT     H235493   7.109   3.566   4.232
11751WAT      O35494   1.301   5.198   7.668
11751WAT     H135495   1.284   5.101   7.651
11751WAT     H235496   1.377   5.229   7.612
11752WAT      O35497   0.958   7.464   0.433
11752WAT     H135498   0.984   7.560   0.443
11752WAT     H235499   1.004   7.425   0.354
11753WAT      O35500   3.763   7.240   0.032
11753WAT     H135501   3.795   7.145   0.041
11753WAT     H235502   3.794   7.277  -0.055
11754WAT      O35503   2.377   2.278   7.289
11754WAT     H135504   2.462   2.231   7.266
11754WAT     H235505   2.398   2.370   7.323
11755WAT      O35506   9.304   8.048   3.405
11755WAT     H135507   9.278   8.130   3.353
11755WAT     H235508   9.371   8.073   3.475
11756WAT      O35509   9.465   7.614   6.067
11756WAT     H135510   9.558   7.602   6.102
11756WAT     H235511   9.411   7.533   6.089
11757WAT      O35512   4.876   3.645   4.051
11757WAT     H135513   4.942   3.717   4.070
11757WAT     H235514   4.909   3.588   3.975
11758WAT      O35515   8.460   6.611   8.306
11758WAT     H135516   8.545   6.590   8.354
11758WAT     H235517   8.383   6.601   8.369
11759WAT      O35518   8.962   6.275   3.039
11759WAT     H135519   8.960   6.368   3.002
11759WAT     H235520   8.990   6.212   2.966
11760WAT      O35521   7.244   2.019   7.366
11760WAT     H135522   7.246   1.996   7.269
11760WAT     H235523   7.189   1.951   7.416
11761WAT      O35524   2.340   8.439   0.357
11761WAT     H135525   2.426   8.441   0.306
11761WAT     H235526   2.325   8.348   0.394
11762WAT      O35527   6.468   6.206   9.753
11762WAT     H135528   6.503   6.127   9.803
11762WAT     H235529   6.477   6.192   9.655
11763WAT      O35530   9.132   2.061   6.379
11763WAT     H135531   9.150   2.160   6.374
11763WAT     H235532   9.060   2.043   6.445
11764WAT      O35533   1.287   9.536   6.769
11764WAT     H135534   1.216   9.578   6.826
11764WAT     H235535   1.306   9.444   6.802
11765WAT      O35536   9.218   5.473   0.132
11765WAT     H135537   9.303   5.462   0.184
11765WAT     H235538   9.172   5.557   0.161
11766WAT      O35539   9.051   7.543   6.372
11766WAT     H135540   9.003   7.458   6.351
11766WAT     H235541   9.052   7.558   6.471
11767WAT      O35542   8.195   3.559   8.182
11767WAT     H135543   8.139   3.579   8.262
11767WAT     H235544   8.153   3.600   8.101
11768WAT      O35545   9.116   4.091   1.851
11768WAT     H135546   9.113   4.031   1.771
11768WAT     H235547   9.048   4.062   1.917
11769WAT      O35548   9.493   5.712   9.346
11769WAT     H135549   9.475   5.806   9.316
11769WAT     H235550   9.508   5.654   9.266
11770WAT      O35551   5.981   1.283   3.508
11770WAT     H135552   5.896   1.294   3.559
11770WAT     H235553   6.013   1.189   3.517
11771WAT      O35554   9.485   4.549   5.744
11771WAT     H135555   9.534   4.513   5.665
11771WAT     H235556   9.529   4.633   5.776
11772WAT      O35557   7.915   0.234   0.997
11772WAT     H135558   7.818   0.231   1.019
11772WAT     H235559   7.926   0.246   0.898
11773WAT      O35560   9.871   8.297   6.791
11773WAT     H135561   9.878   8.204   6.757
11773WAT     H235562   9.779   8.332   6.775
11774WAT      O35563   6.305   7.898   8.549
11774WAT     H135564   6.220   7.846   8.551
11774WAT     H235565   6.381   7.838   8.574
11775WAT      O35566   8.166   0.160   7.811
11775WAT     H135567   8.171   0.061   7.828
11775WAT     H235568   8.245   0.205   7.852
11776WAT      O35569   6.981  -0.000   0.100
11776WAT     H135570   6.918   0.070   0.065
11776WAT     H235571   7.053  -0.016   0.033
11777WAT      O35572   8.432   3.968   3.036
11777WAT     H135573   8.382   3.882   3.050
11777WAT     H235574   8.397   4.013   2.954
11778WAT      O35575   1.943   4.325   2.725
11778WAT     H135576   2.037   4.309   2.696
11778WAT     H235577   1.882   4.263   2.676
11779WAT      O35578   5.560   2.496   9.379
11779WAT     H135579   5.533   2.446   9.461
11779WAT     H235580   5.479   2.517   9.325
11780WAT      O35581   3.219   3.441   7.667
11780WAT     H135582   3.242   3.538   7.680
11780WAT     H235583   3.121   3.428   7.685
11781WAT      O35584   3.650   3.912   2.034
11781WAT     H135585   3.602   3.900   1.947
11781WAT     H235586   3.665   4.009   2.051
11782WAT      O35587   5.194   2.950   2.862
11782WAT     H135588   5.123   2.968   2.793
11782WAT     H235589   5.194   3.024   2.929
11783WAT      O35590   0.633   8.940   9.051
11783WAT     H135591   0.536   8.943   9.028
11783WAT     H235592   0.648   8.983   9.140
11784WAT      O35593   7.846   0.180   8.290
11784WAT     H135594   7.884   0.177   8.198
11784WAT     H235595   7.799   0.267   8.304
11785WAT      O35596   9.274   2.720   2.778
11785WAT     H135597   9.294   2.688   2.685
11785WAT     H235598   9.297   2.649   2.844
11786WAT      O35599   5.723   5.030   4.532
11786WAT     H135600   5.750   4.972   4.609
11786WAT     H235601   5.772   5.117   4.536
11787WAT      O35602   5.799   2.541   4.597
11787WAT     H135603   5.705   2.552   4.630
11787WAT     H235604   5.854   2.619   4.626
11788WAT      O35605   9.120   6.950   5.489
11788WAT     H135606   9.050   6.988   5.428
11788WAT     H235607   9.168   7.025   5.536
11789WAT      O35608   5.072   9.694   2.524
11789WAT     H135609   4.983   9.721   2.562
11789WAT     H235610   5.059   9.619   2.459
11790WAT      O35611   3.941   1.239   1.160
11790WAT     H135612   4.039   1.223   1.173
11790WAT     H235613   3.904   1.168   1.100
11791WAT      O35614   5.723   1.975   8.603
11791WAT     H135615   5.775   1.987   8.687
11791WAT     H235616   5.680   1.885   8.603
11792WAT      O35617   7.294   9.081   4.703
11792WAT     H135618   7.267   9.072   4.607
11792WAT     H235619   7.324   8.993   4.738
11793WAT      O35620   1.310   0.588   0.796
11793WAT     H135621   1.281   0.683   0.801
11793WAT     H235622   1.379   0.579   0.723
11794WAT      O35623   7.313   2.999   6.030
11794WAT     H135624   7.301   3.078   6.089
11794WAT     H235625   7.224   2.965   6.001
11795WAT      O35626   2.885   8.470   2.398
11795WAT     H135627   2.976   8.433   2.417
11795WAT     H235628   2.894   8.559   2.353
11796WAT      O35629   5.656   4.411   7.449
11796WAT     H135630   5.602   4.327   7.440
11796WAT     H235631   5.617   4.482   7.389
11797WAT      O35632   4.034   3.497   1.838
11797WAT     H135633   3.947   3.522   1.879
11797WAT     H235634   4.099   3.469   1.909
11798WAT      O35635   3.072   4.903   7.815
11798WAT     H135636   3.163   4.865   7.798
11798WAT     H235637   3.038   4.945   7.731
11799WAT      O35638   8.792   8.084   3.273
11799WAT     H135639   8.883   8.062   3.239
11799WAT     H235640   8.799   8.129   3.362
11800WAT      O35641   1.991   2.225   7.535
11800WAT     H135642   2.077   2.189   7.498
11800WAT     H235643   1.980   2.320   7.505
11801WAT      O35644   2.979   1.677   4.605
11801WAT     H135645   2.980   1.674   4.705
11801WAT     H235646   3.057   1.625   4.569
11802WAT      O35647   5.407   8.415   4.658
11802WAT     H135648   5.376   8.401   4.564
11802WAT     H235649   5.328   8.433   4.717
11803WAT      O35650   0.583   8.130   9.286
11803WAT     H135651   0.542   8.100   9.373
11803WAT     H235652   0.603   8.050   9.230
11804WAT      O35653   6.054   1.597   9.508
11804WAT     H135654   5.982   1.531   9.487
11804WAT     H235655   6.084   1.584   9.602
11805WAT      O35656   5.694   8.414   4.043
11805WAT     H135657   5.598   8.435   4.024
11805WAT     H235658   5.701   8.360   4.127
11806WAT      O35659   4.382   6.188   9.704
11806WAT     H135660   4.401   6.227   9.614
11806WAT     H235661   4.287   6.157   9.708
11807WAT      O35662   5.720   8.960   0.907
11807WAT     H135663   5.661   8.889   0.868
11807WAT     H235664   5.673   9.048   0.905
11808WAT      O35665   0.411   1.460   8.712
11808WAT     H135666   0.487   1.455   8.777
11808WAT     H235667   0.355   1.541   8.731
11809WAT      O35668   0.706   4.994   8.252
11809WAT     H135669   0.680   5.073   8.196
11809WAT     H235670   0.625   4.941   8.276
11810WAT      O35671   8.769   2.504   8.673
11810WAT     H135672   8.726   2.575   8.729
11810WAT     H235673   8.794   2.543   8.584
11811WAT      O35674   9.306   7.315   8.400
11811WAT     H135675   9.284   7.281   8.492
11811WAT     H235676   9.389   7.269   8.367
11812WAT      O35677   0.203   3.716   9.820
11812WAT     H135678   0.298   3.743   9.801
11812WAT     H235679   0.142   3.761   9.754
11813WAT      O35680   2.156   5.978   8.558
11813WAT     H135681   2.162   6.063   8.505
11813WAT     H235682   2.061   5.947   8.560
11814WAT      O35683   2.165   8.167   0.010
11814WAT     H135684   2.161   8.154  -0.090
11814WAT     H235685   2.259   8.151   0.041
11815WAT      O35686   2.912   8.365   7.226
11815WAT     H135687   2.812   8.367   7.239
11815WAT     H235688   2.933   8.392   7.133
11816WAT      O35689   8.160   0.725   3.301
11816WAT     H135690   8.168   0.637   3.346
11816WAT     H235691   8.141   0.796   3.369
11817WAT      O35692   9.446   1.572   4.351
11817WAT     H135693   9.505   1.647   4.381
11817WAT     H235694   9.445   1.500   4.420
11818WAT      O35695   0.602   0.143   4.400
11818WAT     H135696   0.549   0.062   4.375
11818WAT     H235697   0.669   0.162   4.328
11819WAT      O35698   5.079   7.543   2.859
11819WAT     H135699   5.071   7.504   2.767
11819WAT     H235700   5.174   7.533   2.891
11820WAT      O35701   8.853   9.624   8.272
11820WAT     H135702   8.922   9.554   8.256
11820WAT     H235703   8.785   9.590   8.337
11821WAT      O35704   4.637   7.499   4.489
11821WAT     H135705   4.556   7.557   4.492
11821WAT     H235706   4.609   7.403   4.496
11822WAT      O35707   8.267   7.638   2.401
11822WAT     H135708   8.236   7.545   2.382
11822WAT     H235709   8.215   7.703   2.346
11823WAT      O35710   0.375   7.981   0.048
11823WAT     H135711   0.289   7.935   0.068
11823WAT     H235712   0.382   8.064   0.104
11824WAT      O35713   1.257   3.866   2.959
11824WAT     H135714   1.178   3.903   3.008
11824WAT     H235715   1.242   3.769   2.939
11825WAT      O35716   0.611   8.632   0.643
11825WAT     H135717   0.516   8.604   0.652
11825WAT     H235718   0.671   8.554   0.666
11826WAT      O35719   1.439   5.383   8.162
11826WAT     H135720   1.368   5.315   8.182
11826WAT     H235721   1.399   5.460   8.112
11827WAT      O35722   2.199   0.522   6.530
11827WAT     H135723   2.261   0.581   6.478
11827WAT     H235724   2.150   0.462   6.468
11828WAT      O35725   9.713   7.525   4.613
11828WAT     H135726   9.715   7.438   4.662
11828WAT     H235727   9.662   7.514   4.527
11829WAT      O35728   5.093   7.992   2.413
11829WAT     H135729   5.025   7.954   2.351
11829WAT     H235730   5.106   7.931   2.491
11830WAT      O35731   3.720   9.665   1.923
11830WAT     H135732   3.659   9.741   1.946
11830WAT     H235733   3.807   9.676   1.971
11831WAT      O35734   3.204   0.264   8.083
11831WAT     H135735   3.292   0.311   8.078
11831WAT     H235736   3.151   0.302   8.159
11832WAT      O35737   2.038   8.568   9.174
11832WAT     H135738   1.961   8.587   9.112
11832WAT     H235739   2.004   8.562   9.268
11833WAT      O35740   6.814   3.103   1.651
11833WAT     H135741   6.853   3.150   1.573
11833WAT     H235742   6.788   3.010   1.625
11834WAT      O35743   6.725   2.375   4.283
11834WAT     H135744   6.664   2.433   4.229
11834WAT     H235745   6.809   2.358   4.232
11835WAT      O35746   9.144   2.543   3.252
11835WAT     H135747   9.070   2.610   3.247
11835WAT     H235748   9.115   2.459   3.206
11836WAT      O35749   0.281   9.164   0.134
11836WAT     H135750   0.306   9.221   0.056
11836WAT     H235751   0.292   9.067   0.109
11837WAT      O35752   6.775   0.579   6.461
11837WAT     H135753   6.746   0.526   6.382
11837WAT     H235754   6.844   0.527   6.512
11838WAT      O35755   0.593   8.542   8.392
11838WAT     H135756   0.589   8.446   8.367
11838WAT     H235757   0.687   8.576   8.379
11839WAT      O35758   3.976   6.391   4.846
11839WAT     H135759   3.962   6.349   4.756
11839WAT     H235760   4.029   6.330   4.904
11840WAT      O35761   1.392   4.445   7.706
11840WAT     H135762   1.475   4.391   7.723
11840WAT     H235763   1.410   4.541   7.728
11841WAT      O35764   2.936   2.025   1.857
11841WAT     H135765   2.884   1.944   1.828
11841WAT     H235766   2.877   2.105   1.856
11842WAT      O35767   6.043   8.617   8.807
11842WAT     H135768   5.989   8.587   8.886
11842WAT     H235769   6.140   8.623   8.833
11843WAT      O35770   4.556   0.579   5.223
11843WAT     H135771   4.556   0.482   5.201
11843WAT     H235772   4.633   0.599   5.284
11844WAT      O35773   6.923   8.641   1.951
11844WAT     H135774   7.023   8.637   1.946
11844WAT     H235775   6.884   8.622   1.861
11845WAT      O35776   1.636   6.537   6.833
11845WAT     H135777   1.727   6.527   6.794
11845WAT     H235778   1.619   6.463   6.898
11846WAT      O35779   9.764   5.779   0.267
11846WAT     H135780   9.769   5.766   0.366
11846WAT     H235781   9.724   5.868   0.248
11847WAT      O35782   3.455   4.950   1.573
11847WAT     H135783   3.532   4.927   1.512
11847WAT     H235784   3.428   5.045   1.557
11848WAT      O35785   1.652   2.599   0.548
11848WAT     H135786   1.683   2.505   0.533
11848WAT     H235787   1.641   2.645   0.459
11849WAT      O35788   0.065   1.252   3.192
11849WAT     H135789  -0.028   1.226   3.219
11849WAT     H235790   0.131   1.213   3.256
11850WAT      O35791   0.750   2.121   3.273
11850WAT     H135792   0.655   2.150   3.264
11850WAT     H235793   0.808   2.176   3.212
11851WAT      O35794   2.387   6.293   2.483
11851WAT     H135795   2.478   6.291   2.441
11851WAT     H235796   2.351   6.386   2.481
11852WAT      O35797   9.115   8.826   5.452
11852WAT     H135798   9.032   8.872   5.422
11852WAT     H235799   9.184   8.828   5.379
11853WAT      O35800   9.325   3.996   4.056
11853WAT     H135801   9.424   4.000   4.050
11853WAT     H235802   9.284   4.041   3.976
11854WAT      O35803   1.954   7.468   2.505
11854WAT     H135804   2.020   7.511   2.443
11854WAT     H235805   2.002   7.438   2.588
11855WAT      O35806   1.085   2.251   6.993
11855WAT     H135807   1.070   2.220   7.086
11855WAT     H235808   1.090   2.351   6.991
11856WAT      O35809   6.723   6.995   4.045
11856WAT     H135810   6.659   6.989   4.121
11856WAT     H235811   6.684   7.055   3.974
11857WAT      O35812   0.726   0.259   4.091
11857WAT     H135813   0.803   0.205   4.057
11857WAT     H235814   0.644   0.202   4.093
11858WAT      O35815   7.608   7.511   1.358
11858WAT     H135816   7.530   7.450   1.344
11858WAT     H235817   7.596   7.594   1.304
11859WAT      O35818   9.710   5.736   5.055
11859WAT     H135819   9.676   5.801   5.123
11859WAT     H235820   9.734   5.650   5.100
11860WAT      O35821   9.616   8.325   0.492
11860WAT     H135822   9.610   8.338   0.393
11860WAT     H235823   9.704   8.358   0.525
11861WAT      O35824   7.251   3.154   0.422
11861WAT     H135825   7.334   3.208   0.437
11861WAT     H235826   7.224   3.111   0.508
11862WAT      O35827   4.801   5.021   7.956
11862WAT     H135828   4.744   5.062   8.028
11862WAT     H235829   4.894   5.010   7.990
11863WAT      O35830   3.543   6.737   5.446
11863WAT     H135831   3.559   6.833   5.470
11863WAT     H235832   3.472   6.700   5.506
11864WAT      O35833   4.508   2.589   9.198
11864WAT     H135834   4.484   2.675   9.153
11864WAT     H235835   4.518   2.605   9.296
11865WAT      O35836   0.102   2.782   1.802
11865WAT     H135837   0.200   2.780   1.783
11865WAT     H235838   0.075   2.697   1.849
11866WAT      O35839   4.966   7.171   1.802
11866WAT     H135840   4.913   7.183   1.886
11866WAT     H235841   4.918   7.213   1.725
11867WAT      O35842   1.430   2.788   2.836
11867WAT     H135843   1.386   2.756   2.752
11867WAT     H235844   1.490   2.717   2.871
11868WAT      O35845   6.733   2.440   3.716
11868WAT     H135846   6.739   2.361   3.778
11868WAT     H235847   6.685   2.413   3.633
11869WAT      O35848   7.110   3.340   7.721
11869WAT     H135849   7.204   3.308   7.726
11869WAT     H235850   7.070   3.344   7.813
11870WAT      O35851   7.355   0.748   2.471
11870WAT     H135852   7.282   0.715   2.531
11870WAT     H235853   7.317   0.773   2.382
11871WAT      O35854   7.244   4.627   5.924
11871WAT     H135855   7.185   4.563   5.973
11871WAT     H235856   7.303   4.576   5.861
11872WAT      O35857   6.589   6.272   5.592
11872WAT     H135858   6.553   6.256   5.500
11872WAT     H235859   6.569   6.366   5.620
11873WAT      O35860   0.689   8.107   5.883
11873WAT     H135861   0.711   8.011   5.866
11873WAT     H235862   0.643   8.145   5.803
11874WAT      O35863   0.738   4.704   7.549
11874WAT     H135864   0.712   4.628   7.610
11874WAT     H235865   0.812   4.674   7.489
11875WAT      O35866   2.542   5.616   9.636
11875WAT     H135867   2.513   5.539   9.693
11875WAT     H235868   2.569   5.693   9.695
11876WAT      O35869   9.043   8.508   7.696
11876WAT     H135870   9.079   8.571   7.627
11876WAT     H235871   9.087   8.419   7.686
11877WAT      O35872   2.807   4.379   9.669
11877WAT     H135873   2.896   4.360   9.628
11877WAT     H235874   2.739   4.317   9.629
11878WAT      O35875   4.635   1.055   7.215
11878WAT     H135876   4.646   1.151   7.242
11878WAT     H235877   4.695   0.998   7.271
11879WAT      O35878   2.667   3.070   7.901
11879WAT     H135879   2.726   3.042   7.826
11879WAT     H235880   2.647   2.991   7.959
11880WAT      O35881   4.402   7.664   7.053
11880WAT     H135882   4.361   7.657   7.144
11880WAT     H235883   4.340   7.713   6.992
11881WAT      O35884   3.565   2.235   4.957
11881WAT     H135885   3.530   2.283   5.037
11881WAT     H235886   3.603   2.300   4.892
11882WAT      O35887   6.123   1.972   1.716
11882WAT     H135888   6.176   2.003   1.637
11882WAT     H235889   6.121   2.043   1.785
11883WAT      O35890   0.585   7.357   8.491
11883WAT     H135891   0.516   7.429   8.504
11883WAT     H235892   0.613   7.322   8.580
11884WAT      O35893   4.795   6.825   2.089
11884WAT     H135894   4.877   6.828   2.145
11884WAT     H235895   4.743   6.742   2.109
11885WAT      O35896   1.270   8.622   9.455
11885WAT     H135897   1.233   8.532   9.430
11885WAT     H235898   1.367   8.613   9.479
11886WAT      O35899   4.145   0.529   3.896
11886WAT     H135900   4.235   0.491   3.918
11886WAT     H235901   4.155   0.608   3.836
11887WAT      O35902   4.544   7.016   7.589
11887WAT     H135903   4.545   6.983   7.683
11887WAT     H235904   4.515   7.112   7.587
11888WAT      O35905   6.975   6.692   5.689
11888WAT     H135906   6.943   6.614   5.635
11888WAT     H235907   6.964   6.671   5.786
11889WAT      O35908   3.589   3.174   4.286
11889WAT     H135909   3.636   3.261   4.273
11889WAT     H235910   3.522   3.183   4.360
11890WAT      O35911   4.430   2.401   9.608
11890WAT     H135912   4.351   2.342   9.590
11890WAT     H235913   4.432   2.425   9.705
11891WAT      O35914   4.059   2.541   7.291
11891WAT     H135915   3.968   2.508   7.267
11891WAT     H235916   4.053   2.600   7.372
11892WAT      O35917   2.450   4.277   7.348
11892WAT     H135918   2.380   4.334   7.304
11892WAT     H235919   2.527   4.334   7.375
11893WAT      O35920   2.671   5.334   1.612
11893WAT     H135921   2.763   5.317   1.579
11893WAT     H235922   2.605   5.313   1.539
11894WAT      O35923   1.202   1.039   5.562
11894WAT     H135924   1.192   1.034   5.662
11894WAT     H235925   1.182   0.949   5.522
11895WAT      O35926   2.777   9.833   7.425
11895WAT     H135927   2.832   9.871   7.351
11895WAT     H235928   2.809   9.868   7.513
11896WAT      O35929   3.894   3.468   0.073
11896WAT     H135930   3.824   3.515   0.126
11896WAT     H235931   3.917   3.522  -0.008
11897WAT      O35932   5.483   4.091   4.549
11897WAT     H135933   5.477   3.993   4.565
11897WAT     H235934   5.461   4.140   4.633
11898WAT      O35935   5.757   7.613   6.411
11898WAT     H135936   5.734   7.519   6.386
11898WAT     H235937   5.807   7.657   6.336
11899WAT      O35938   1.033   7.446   7.966
11899WAT     H135939   0.961   7.463   8.034
11899WAT     H235940   0.992   7.440   7.875
11900WAT      O35941   1.559   3.830   3.538
11900WAT     H135942   1.564   3.818   3.438
11900WAT     H235943   1.514   3.916   3.559
11901WAT      O35944   8.650   6.879   4.804
11901WAT     H135945   8.747   6.866   4.823
11901WAT     H235946   8.606   6.926   4.881
11902WAT      O35947   1.480   3.707   6.855
11902WAT     H135948   1.492   3.805   6.871
11902WAT     H235949   1.541   3.655   6.915
11903WAT      O35950   0.631   3.829   4.357
11903WAT     H135951   0.692   3.827   4.278
11903WAT     H235952   0.576   3.913   4.355
11904WAT      O35953   4.895   3.573   5.016
11904WAT     H135954   4.854   3.506   4.954
11904WAT     H235955   4.987   3.543   5.042
11905WAT      O35956   2.775   3.353   4.430
11905WAT     H135957   2.800   3.276   4.371
11905WAT     H235958   2.680   3.343   4.460
11906WAT      O35959   7.374   1.037   4.156
11906WAT     H135960   7.286   1.082   4.144
11906WAT     H235961   7.362   0.938   4.154
11907WAT      O35962   0.877   8.256   0.579
11907WAT     H135963   0.803   8.276   0.516
11907WAT     H235964   0.949   8.205   0.533
11908WAT      O35965   1.312   7.253   7.877
11908WAT     H135966   1.353   7.342   7.895
11908WAT     H235967   1.357   7.212   7.797
11909WAT      O35968   2.661   1.080   2.681
11909WAT     H135969   2.759   1.091   2.700
11909WAT     H235970   2.647   0.999   2.624
11910WAT      O35971   9.138   0.247   1.814
11910WAT     H135972   9.098   0.156   1.815
11910WAT     H235973   9.066   0.316   1.826
11911WAT      O35974   7.328   8.910   8.911
11911WAT     H135975   7.340   8.941   8.817
11911WAT     H235976   7.268   8.830   8.913
11912WAT      O35977   5.787   3.607   7.649
11912WAT     H135978   5.780   3.514   7.683
11912WAT     H235979   5.873   3.648   7.680
11913WAT      O35980   2.530   6.772   0.917
11913WAT     H135981   2.619   6.814   0.935
11913WAT     H235982   2.543   6.686   0.868
11914WAT      O35983   9.849   9.332   2.979
11914WAT     H135984   9.754   9.353   3.002
11914WAT     H235985   9.879   9.252   3.032
11915WAT      O35986   3.257   1.071   8.004
11915WAT     H135987   3.166   1.090   7.966
11915WAT     H235988   3.326   1.116   7.947
11916WAT      O35989   7.056   7.945   3.780
11916WAT     H135990   6.963   7.939   3.743
11916WAT     H235991   7.118   7.978   3.708
11917WAT      O35992   5.440   7.017   7.648
11917WAT     H135993   5.523   7.008   7.703
11917WAT     H235994   5.439   7.106   7.603
11918WAT      O35995   7.711   6.343   1.781
11918WAT     H135996   7.717   6.374   1.876
11918WAT     H235997   7.800   6.352   1.737
11919WAT      O35998   6.545   9.146   3.762
11919WAT     H135999   6.540   9.241   3.731
11919WAT     H236000   6.636   9.110   3.744
11920WAT      O36001   4.238   5.749   5.072
11920WAT     H136002   4.240   5.649   5.074
11920WAT     H236003   4.153   5.780   5.030
11921WAT      O36004   0.481   0.103   4.006
11921WAT     H136005   0.445   0.164   3.935
11921WAT     H236006   0.407   0.076   4.067
11922WAT      O36007   8.195   5.560   1.694
11922WAT     H136008   8.143   5.506   1.761
11922WAT     H236009   8.194   5.656   1.722
11923WAT      O36010   5.793   7.148   2.080
11923WAT     H136011   5.851   7.079   2.036
11923WAT     H236012   5.737   7.105   2.150
11924WAT      O36013   5.724   0.006   7.579
11924WAT     H136014   5.811  -0.007   7.532
11924WAT     H236015   5.653   0.032   7.513
11925WAT      O36016   2.998   4.996   8.343
11925WAT     H136017   2.982   4.942   8.260
11925WAT     H236018   3.060   5.072   8.321
11926WAT      O36019   0.474   6.210   5.901
11926WAT     H136020   0.450   6.164   5.815
11926WAT     H236021   0.464   6.308   5.890
11927WAT      O36022   7.440   6.639   8.087
11927WAT     H136023   7.414   6.600   8.176
11927WAT     H236024   7.396   6.729   8.077
11928WAT      O36025   6.837   0.851   5.779
11928WAT     H136026   6.861   0.799   5.861
11928WAT     H236027   6.797   0.789   5.711
11929WAT      O36028   9.228   1.685   4.253
11929WAT     H136029   9.233   1.784   4.257
11929WAT     H236030   9.311   1.645   4.292
11930WAT      O36031   4.986   9.434   8.501
11930WAT     H136032   4.939   9.399   8.420
11930WAT     H236033   5.006   9.531   8.489
11931WAT      O36034   7.527   9.532   7.082
11931WAT     H136035   7.591   9.610   7.080
11931WAT     H236036   7.559   9.466   7.150
11932WAT      O36037   4.544   2.648   0.447
11932WAT     H136038   4.480   2.621   0.376
11932WAT     H236039   4.622   2.586   0.447
11933WAT      O36040   7.728   5.544   5.849
11933WAT     H136041   7.740   5.497   5.937
11933WAT     H236042   7.670   5.625   5.863
11934WAT      O36043   1.679   5.324   5.416
11934WAT     H136044   1.610   5.253   5.401
11934WAT     H236045   1.635   5.405   5.456
11935WAT      O36046   3.757   6.470   2.304
11935WAT     H136047   3.763   6.403   2.378
11935WAT     H236048   3.702   6.433   2.230
11936WAT      O36049   4.441   4.291   3.659
11936WAT     H136050   4.475   4.214   3.605
11936WAT     H236051   4.477   4.285   3.752
11937WAT      O36052   1.649   4.985   6.258
11937WAT     H136053   1.718   5.011   6.326
11937WAT     H236054   1.562   4.968   6.304
11938WAT      O36055   3.806   1.637   5.939
11938WAT     H136056   3.781   1.621   6.034
11938WAT     H236057   3.765   1.723   5.907
11939WAT      O36058   1.682   8.764   8.011
11939WAT     H136059   1.782   8.762   8.002
11939WAT     H236060   1.645   8.675   7.986
11940WAT      O36061   9.869   2.495   7.785
11940WAT     H136062   9.931   2.521   7.712
11940WAT     H236063   9.775   2.515   7.757
11941WAT      O36064   7.811   2.664   3.054
11941WAT     H136065   7.765   2.644   3.141
11941WAT     H236066   7.859   2.582   3.023
11942WAT      O36067   6.546   4.375   4.524
11942WAT     H136068   6.448   4.386   4.508
11942WAT     H236069   6.586   4.465   4.545
11943WAT      O36070   4.526   2.621   9.479
11943WAT     H136071   4.477   2.699   9.517
11943WAT     H236072   4.509   2.540   9.535
11944WAT      O36073   7.453   6.177   5.792
11944WAT     H136074   7.477   6.120   5.871
11944WAT     H236075   7.397   6.254   5.821
11945WAT      O36076   8.158   2.488   9.406
11945WAT     H136077   8.206   2.505   9.320
11945WAT     H236078   8.106   2.570   9.431
11946WAT      O36079   4.068   5.457   5.937
11946WAT     H136080   4.064   5.448   6.037
11946WAT     H236081   4.025   5.378   5.895
11947WAT      O36082   3.491   3.857   0.847
11947WAT     H136083   3.441   3.938   0.877
11947WAT     H236084   3.588   3.879   0.836
11948WAT      O36085   4.831   9.229   4.199
11948WAT     H136086   4.833   9.328   4.185
11948WAT     H236087   4.925   9.195   4.208
11949WAT      O36088   1.852   6.860   8.903
11949WAT     H136089   1.840   6.899   8.812
11949WAT     H236090   1.779   6.795   8.922
11950WAT      O36091   5.003   0.327   2.543
11950WAT     H136092   5.039   0.298   2.632
11950WAT     H236093   5.074   0.376   2.492
11951WAT      O36094   0.390   6.409   8.723
11951WAT     H136095   0.482   6.387   8.692
11951WAT     H236096   0.392   6.437   8.819
11952WAT      O36097   5.416   1.269   7.551
11952WAT     H136098   5.444   1.346   7.494
11952WAT     H236099   5.316   1.268   7.560
11953WAT      O36100   2.106   9.374   2.985
11953WAT     H136101   2.177   9.442   2.968
11953WAT     H236102   2.043   9.408   3.055
11954WAT      O36103   6.958   7.433   3.317
11954WAT     H136104   6.867   7.393   3.305
11954WAT     H236105   6.953   7.532   3.304
11955WAT      O36106   6.044   9.649   4.951
11955WAT     H136107   6.069   9.701   5.032
11955WAT     H236108   6.042   9.551   4.974
11956WAT      O36109   1.605   6.472   1.609
11956WAT     H136110   1.548   6.397   1.574
11956WAT     H236111   1.574   6.497   1.701
11957WAT      O36112   1.484   9.634   1.265
11957WAT     H136113   1.500   9.621   1.363
11957WAT     H236114   1.496   9.730   1.241
11958WAT      O36115   5.854   2.396   5.122
11958WAT     H136116   5.869   2.468   5.054
11958WAT     H236117   5.905   2.419   5.206
11959WAT      O36118   7.554   3.039   7.426
11959WAT     H136119   7.551   3.128   7.472
11959WAT     H236120   7.547   3.053   7.327
11960WAT      O36121   8.714   8.918   2.289
11960WAT     H136122   8.629   8.945   2.334
11960WAT     H236123   8.786   8.907   2.358
11961WAT      O36124   8.890   5.494   2.284
11961WAT     H136125   8.891   5.591   2.257
11961WAT     H236126   8.979   5.453   2.264
11962WAT      O36127   0.073   6.211   0.939
11962WAT     H136128  -0.015   6.191   0.897
11962WAT     H236129   0.061   6.272   1.017
11963WAT      O36130   9.647   0.599   7.477
11963WAT     H136131   9.710   0.548   7.535
11963WAT     H236132   9.675   0.695   7.474
11964WAT      O36133   5.360   5.573   2.653
11964WAT     H136134   5.335   5.601   2.561
11964WAT     H236135   5.452   5.605   2.674
11965WAT      O36136   4.459   0.715   1.504
11965WAT     H136137   4.456   0.786   1.574
11965WAT     H236138   4.549   0.672   1.504
11966WAT      O36139   5.220   8.556   1.976
11966WAT     H136140   5.236   8.631   1.911
11966WAT     H236141   5.249   8.470   1.934
11967WAT      O36142   5.762   7.675   1.046
11967WAT     H136143   5.800   7.721   1.127
11967WAT     H236144   5.815   7.592   1.028
11968WAT      O36145   8.123   5.513   2.753
11968WAT     H136146   8.177   5.491   2.834
11968WAT     H236147   8.164   5.469   2.673
11969WAT      O36148   6.804   6.359   4.671
11969WAT     H136149   6.778   6.435   4.611
11969WAT     H236150   6.730   6.340   4.735
11970WAT      O36151   8.623   8.834   6.351
11970WAT     H136152   8.677   8.878   6.280
11970WAT     H236153   8.634   8.735   6.345
11971WAT      O36154   5.008   1.101   2.722
11971WAT     H136155   5.073   1.130   2.651
11971WAT     H236156   5.054   1.042   2.788
11972WAT      O36157   5.060   1.465   3.478
11972WAT     H136158   4.965   1.479   3.505
11972WAT     H236159   5.085   1.529   3.406
11973WAT      O36160   3.946   1.200   8.158
11973WAT     H136161   4.027   1.143   8.147
11973WAT     H236162   3.972   1.291   8.189
11974WAT      O36163   4.349   9.088   1.184
11974WAT     H136164   4.294   9.171   1.176
11974WAT     H236165   4.293   9.009   1.159
11975WAT      O36166   0.058   5.180   0.143
11975WAT     H136167   0.017   5.266   0.175
11975WAT     H236168   0.125   5.148   0.210
11976WAT      O36169   8.563   7.901   5.852
11976WAT     H136170   8.475   7.927   5.812
11976WAT     H236171   8.570   7.802   5.855
11977WAT      O36172   6.265   7.645   8.238
11977WAT     H136173   6.213   7.569   8.277
11977WAT     H236174   6.361   7.618   8.228
11978WAT      O36175   3.297   3.376   2.452
11978WAT     H136176   3.362   3.370   2.377
11978WAT     H236177   3.285   3.285   2.493
11979WAT      O36178   5.843   4.316   4.846
11979WAT     H136179   5.751   4.350   4.865
11979WAT     H236180   5.909   4.388   4.866
11980WAT      O36181   2.133   6.294   3.077
11980WAT     H136182   2.050   6.284   3.132
11980WAT     H236183   2.162   6.390   3.077
11981WAT      O36184   0.323   5.059   7.356
11981WAT     H136185   0.321   4.969   7.399
11981WAT     H236186   0.339   5.050   7.258
11982WAT      O36187   4.964   0.886   7.905
11982WAT     H136188   4.999   0.979   7.917
11982WAT     H236189   5.024   0.822   7.952
11983WAT      O36190   6.137   3.401   0.941
11983WAT     H136191   6.173   3.352   0.862
11983WAT     H236192   6.184   3.368   1.024
11984WAT      O36193   9.047   1.742   4.870
11984WAT     H136194   9.046   1.644   4.851
11984WAT     H236195   9.137   1.780   4.846
11985WAT      O36196   8.920   9.464   7.892
11985WAT     H136197   8.861   9.420   7.959
11985WAT     H236198   8.990   9.400   7.861
11986WAT      O36199   6.554   4.617   7.684
11986WAT     H136200   6.481   4.619   7.616
11986WAT     H236201   6.562   4.706   7.728
11987WAT      O36202   0.313   2.521   4.121
11987WAT     H136203   0.378   2.562   4.058
11987WAT     H236204   0.351   2.436   4.158
11988WAT      O36205   8.068   7.815   5.701
11988WAT     H136206   7.971   7.810   5.726
11988WAT     H236207   8.123   7.769   5.770
11989WAT      O36208   8.560   1.113   5.612
11989WAT     H136209   8.577   1.190   5.674
11989WAT     H236210   8.632   1.110   5.542
11990WAT      O36211   5.982   7.147   6.242
11990WAT     H136212   6.032   7.065   6.213
11990WAT     H236213   5.928   7.126   6.323
11991WAT      O36214   0.299   6.380   1.650
11991WAT     H136215   0.263   6.427   1.570
11991WAT     H236216   0.273   6.429   1.733
11992WAT      O36217   2.095   9.510   1.855
11992WAT     H136218   2.165   9.562   1.806
11992WAT     H236219   2.094   9.539   1.951
11993WAT      O36220   6.700   9.363   6.503
11993WAT     H136221   6.734   9.341   6.594
11993WAT     H236222   6.634   9.438   6.509
11994WAT      O36223   0.748   5.600   9.462
11994WAT     H136224   0.768   5.698   9.457
11994WAT     H236225   0.700   5.581   9.548
11995WAT      O36226   1.908   7.406   4.048
11995WAT     H136227   1.906   7.501   4.079
11995WAT     H236228   1.980   7.394   3.981
11996WAT      O36229   3.389   5.248   1.129
11996WAT     H136230   3.292   5.234   1.108
11996WAT     H236231   3.443   5.172   1.092
11997WAT      O36232   6.327   9.522   9.360
11997WAT     H136233   6.241   9.485   9.395
11997WAT     H236234   6.333   9.619   9.383
11998WAT      O36235   8.196   1.935   8.671
11998WAT     H136236   8.098   1.934   8.650
11998WAT     H236237   8.209   1.914   8.768
11999WAT      O36238   1.407   2.726   9.101
11999WAT     H136239   1.421   2.627   9.094
11999WAT     H236240   1.355   2.758   9.022
12000WAT      O36241   4.981   5.258   9.137
12000WAT     H136242   5.028   5.170   9.126
12000WAT     H236243   5.030   5.314   9.204
12001WAT      O36244   2.809   1.537   7.420
12001WAT     H136245   2.873   1.606   7.387
12001WAT     H236246   2.755   1.503   7.343
12002WAT      O36247   1.248   4.300   9.183
12002WAT     H136248   1.173   4.280   9.247
12002WAT     H236249   1.225   4.380   9.128
12003WAT      O36250   1.171   8.293   2.988
12003WAT     H136251   1.073   8.270   2.987
12003WAT     H236252   1.194   8.340   3.073
12004WAT      O36253   0.728   5.385   7.920
12004WAT     H136254   0.816   5.416   7.955
12004WAT     H236255   0.697   5.306   7.973
12005WAT      O36256   8.620   3.596   7.940
12005WAT     H136257   8.699   3.589   7.879
12005WAT     H236258   8.567   3.512   7.934
12006WAT      O36259   4.249   3.641   3.620
12006WAT     H136260   4.213   3.646   3.713
12006WAT     H236261   4.302   3.724   3.601
12007WAT      O36262   0.761   6.042   1.040
12007WAT     H136263   0.845   6.077   0.998
12007WAT     H236264   0.689   6.110   1.031
12008WAT      O36265   1.820   3.884   8.487
12008WAT     H136266   1.904   3.925   8.451
12008WAT     H236267   1.797   3.926   8.575
12009WAT      O36268   1.795   1.394   8.035
12009WAT     H136269   1.806   1.383   7.937
12009WAT     H236270   1.883   1.422   8.075
12010WAT      O36271   2.559   0.470   0.020
12010WAT     H136272   2.592   0.388   0.066
12010WAT     H236273   2.637   0.524  -0.012
12011WAT      O36274   2.463   0.379   4.648
12011WAT     H136275   2.387   0.398   4.709
12011WAT     H236276   2.547   0.416   4.687
12012WAT      O36277   0.743   1.337   5.911
12012WAT     H136278   0.668   1.278   5.883
12012WAT     H236279   0.751   1.337   6.011
12013WAT      O36280   2.787   6.799   4.161
12013WAT     H136281   2.728   6.719   4.152
12013WAT     H236282   2.783   6.853   4.077
12014WAT      O36283   4.110   6.358   3.431
12014WAT     H136284   4.107   6.262   3.405
12014WAT     H236285   4.195   6.399   3.398
12015WAT      O36286   7.065   9.496   0.456
12015WAT     H136287   7.028   9.509   0.548
12015WAT     H236288   7.162   9.521   0.456
12016WAT      O36289   3.662   6.437   4.109
12016WAT     H136290   3.728   6.500   4.149
12016WAT     H236291   3.703   6.391   4.030
12017WAT      O36292   3.657   4.576   3.453
12017WAT     H136293   3.695   4.484   3.443
12017WAT     H236294   3.589   4.575   3.526
12018WAT      O36295   6.487   6.118   3.073
12018WAT     H136296   6.428   6.124   3.154
12018WAT     H236297   6.526   6.026   3.067
12019WAT      O36298   6.806   7.698   0.550
12019WAT     H136299   6.900   7.692   0.517
12019WAT     H236300   6.788   7.623   0.614
12020WAT      O36301   6.856   3.061   0.415
12020WAT     H136302   6.813   3.127   0.477
12020WAT     H236303   6.904   3.110   0.343
12021WAT      O36304   8.843   4.201   2.875
12021WAT     H136305   8.882   4.293   2.883
12021WAT     H236306   8.862   4.164   2.784
12022WAT      O36307   8.118   1.274   2.496
12022WAT     H136308   8.057   1.232   2.563
12022WAT     H236309   8.135   1.209   2.422
12023WAT      O36310   6.368   3.534   7.199
12023WAT     H136311   6.418   3.447   7.202
12023WAT     H236312   6.425   3.607   7.235
12024WAT      O36313   3.552   6.394   5.118
12024WAT     H136314   3.495   6.460   5.168
12024WAT     H236315   3.567   6.313   5.176
12025WAT      O36316   2.767   0.609   6.592
12025WAT     H136317   2.733   0.618   6.499
12025WAT     H236318   2.855   0.655   6.600
12026WAT      O36319   4.795   7.586   0.694
12026WAT     H136320   4.868   7.640   0.654
12026WAT     H236321   4.786   7.500   0.644
12027WAT      O36322   2.655   5.605   1.276
12027WAT     H136323   2.649   5.593   1.177
12027WAT     H236324   2.573   5.651   1.309
12028WAT      O36325   3.829   7.440   5.095
12028WAT     H136326   3.785   7.399   5.175
12028WAT     H236327   3.858   7.533   5.117
12029WAT      O36328   2.793   9.355   7.309
12029WAT     H136329   2.812   9.267   7.266
12029WAT     H236330   2.842   9.361   7.395
12030WAT      O36331   2.228   2.329   1.411
12030WAT     H136332   2.323   2.354   1.425
12030WAT     H236333   2.186   2.390   1.344
12031WAT      O36334   3.033   4.237   7.507
12031WAT     H136335   2.946   4.188   7.500
12031WAT     H236336   3.100   4.180   7.555
12032WAT      O36337   4.073   1.580   3.090
12032WAT     H136338   4.172   1.566   3.092
12032WAT     H236339   4.052   1.675   3.116
12033WAT      O36340   6.475   3.671   3.395
12033WAT     H136341   6.526   3.658   3.310
12033WAT     H236342   6.495   3.596   3.458
12034WAT      O36343   0.074   2.877   9.387
12034WAT     H136344   0.122   2.794   9.414
12034WAT     H236345   0.052   2.932   9.468
12035WAT      O36346   1.337   5.678   1.385
12035WAT     H136347   1.302   5.603   1.440
12035WAT     H236348   1.271   5.701   1.313
12036WAT      O36349   6.016   9.198   5.682
12036WAT     H136350   6.061   9.172   5.596
12036WAT     H236351   5.917   9.190   5.671
12037WAT      O36352   4.273   7.392   6.912
12037WAT     H136353   4.324   7.425   6.992
12037WAT     H236354   4.331   7.332   6.858
12038WAT      O36355   5.297   7.269   9.820
12038WAT     H136356   5.254   7.186   9.785
12038WAT     H236357   5.396   7.264   9.805
12039WAT      O36358   7.832   9.353   3.754
12039WAT     H136359   7.775   9.302   3.690
12039WAT     H236360   7.924   9.313   3.757
12040WAT      O36361   6.498   4.683   6.780
12040WAT     H136362   6.468   4.730   6.863
12040WAT     H236363   6.523   4.589   6.803
12041WAT      O36364   8.507   7.900   4.369
12041WAT     H136365   8.498   7.831   4.441
12041WAT     H236366   8.593   7.886   4.319
12042WAT      O36367   8.040   7.617   3.869
12042WAT     H136368   7.975   7.671   3.922
12042WAT     H236369   8.129   7.616   3.914
12043WAT      O36370   4.467   2.002   8.887
12043WAT     H136371   4.553   1.984   8.934
12043WAT     H236372   4.391   1.964   8.940
12044WAT      O36373   0.045   1.441   8.455
12044WAT     H136374   0.081   1.433   8.362
12044WAT     H236375   0.114   1.407   8.520
12045WAT      O36376   1.388   5.856   3.136
12045WAT     H136377   1.327   5.847   3.058
12045WAT     H236378   1.430   5.767   3.155
12046WAT      O36379   5.923   7.743   1.290
12046WAT     H136380   5.963   7.818   1.342
12046WAT     H236381   5.996   7.680   1.261
12047WAT      O36382   0.589   8.046   6.582
12047WAT     H136383   0.550   7.954   6.587
12047WAT     H236384   0.606   8.080   6.674
12048WAT      O36385   4.835   5.600   1.124
12048WAT     H136386   4.804   5.614   1.030
12048WAT     H236387   4.866   5.688   1.162
12049WAT      O36388   9.419   4.423   1.908
12049WAT     H136389   9.353   4.490   1.941
12049WAT     H236390   9.383   4.379   1.825
12050WAT      O36391   7.236   4.086   2.101
12050WAT     H136392   7.235   4.001   2.153
12050WAT     H236393   7.145   4.127   2.102
12051WAT      O36394   8.526   1.547   7.380
12051WAT     H136395   8.575   1.460   7.390
12051WAT     H236396   8.435   1.538   7.418
12052WAT      O36397   6.858   4.780   8.768
12052WAT     H136398   6.931   4.729   8.723
12052WAT     H236399   6.769   4.749   8.735
12053WAT      O36400   7.411   6.770   6.602
12053WAT     H136401   7.330   6.827   6.585
12053WAT     H236402   7.456   6.800   6.686
12054WAT      O36403   1.664   5.894   0.451
12054WAT     H136404   1.677   5.804   0.409
12054WAT     H236405   1.750   5.924   0.493
12055WAT      O36406   4.319   2.388   8.218
12055WAT     H136407   4.409   2.384   8.175
12055WAT     H236408   4.264   2.310   8.187
12056WAT      O36409   6.346   8.977   8.562
12056WAT     H136410   6.413   8.903   8.575
12056WAT     H236411   6.292   8.988   8.645
12057WAT      O36412   8.353   8.214   6.414
12057WAT     H136413   8.334   8.133   6.359
12057WAT     H236414   8.312   8.204   6.505
12058WAT      O36415   1.933   3.883   1.684
12058WAT     H136416   1.913   3.873   1.586
12058WAT     H236417   1.872   3.952   1.724
12059WAT      O36418   4.181   2.540   9.802
12059WAT     H136419   4.231   2.573   9.722
12059WAT     H236420   4.122   2.613   9.837
12060WAT      O36421   4.718   8.399   2.708
12060WAT     H136422   4.637   8.341   2.695
12060WAT     H236423   4.726   8.424   2.804
12061WAT      O36424   7.811   6.333   6.971
12061WAT     H136425   7.753   6.348   6.890
12061WAT     H236426   7.772   6.260   7.027
12062WAT      O36427   8.785   8.122   5.439
12062WAT     H136428   8.704   8.062   5.438
12062WAT     H236429   8.833   8.112   5.525
12063WAT      O36430   6.229   6.293   0.106
12063WAT     H136431   6.258   6.388   0.101
12063WAT     H236432   6.133   6.286   0.081
12064WAT      O36433   5.526   0.087   0.520
12064WAT     H136434   5.620   0.095   0.488
12064WAT     H236435   5.463   0.089   0.442
12065WAT      O36436   2.579   0.045   3.274
12065WAT     H136437   2.529  -0.041   3.287
12065WAT     H236438   2.522   0.121   3.305
12066WAT      O36439   7.212   2.467   8.280
12066WAT     H136440   7.207   2.556   8.327
12066WAT     H236441   7.259   2.478   8.193
12067WAT      O36442   9.592   8.699   4.456
12067WAT     H136443   9.690   8.717   4.450
12067WAT     H236444   9.576   8.600   4.453
12068WAT      O36445   7.021   2.102   7.960
12068WAT     H136446   7.095   2.098   7.892
12068WAT     H236447   7.061   2.103   8.052
12069WAT      O36448   8.692   8.756   0.365
12069WAT     H136449   8.636   8.804   0.298
12069WAT     H236450   8.776   8.808   0.381
12070WAT      O36451   1.773   6.308   3.978
12070WAT     H136452   1.793   6.222   3.931
12070WAT     H236453   1.709   6.291   4.053
12071WAT      O36454   9.578   7.235   8.119
12071WAT     H136455   9.557   7.197   8.029
12071WAT     H236456   9.573   7.335   8.114
12072WAT      O36457   6.461   4.043   7.153
12072WAT     H136458   6.510   3.976   7.098
12072WAT     H236459   6.387   4.083   7.098
12073WAT      O36460   0.885   0.671   2.301
12073WAT     H136461   0.861   0.707   2.210
12073WAT     H236462   0.960   0.726   2.338
12074WAT      O36463   5.349   4.769   7.990
12074WAT     H136464   5.434   4.720   7.971
12074WAT     H236465   5.343   4.787   8.088
12075WAT      O36466   9.724   5.486   2.415
12075WAT     H136467   9.656   5.452   2.350
12075WAT     H236468   9.816   5.468   2.379
12076WAT      O36469   0.938   9.356   0.725
12076WAT     H136470   1.033   9.325   0.735
12076WAT     H236471   0.907   9.396   0.812
12077WAT      O36472   3.972   7.158   6.144
12077WAT     H136473   3.998   7.078   6.089
12077WAT     H236474   4.021   7.238   6.110
12078WAT      O36475   8.903   4.228   6.401
12078WAT     H136476   8.937   4.135   6.414
12078WAT     H236477   8.939   4.265   6.315
12079WAT      O36478   4.127   5.883   3.000
12079WAT     H136479   4.059   5.830   2.949
12079WAT     H236480   4.217   5.871   2.958
12080WAT      O36481   5.452   8.089   2.484
12080WAT     H136482   5.390   8.029   2.435
12080WAT     H236483   5.464   8.057   2.578
12081WAT      O36484   7.714   8.969   7.469
12081WAT     H136485   7.708   8.869   7.470
12081WAT     H236486   7.734   9.002   7.560
12082WAT      O36487   4.401   0.429   6.552
12082WAT     H136488   4.483   0.467   6.594
12082WAT     H236489   4.399   0.330   6.566
12083WAT      O36490   2.120   4.977   0.611
12083WAT     H136491   2.052   4.983   0.538
12083WAT     H236492   2.212   4.970   0.572
12084WAT      O36493   8.913   3.828   1.222
12084WAT     H136494   8.900   3.739   1.266
12084WAT     H236495   8.956   3.891   1.287
12085WAT      O36496   1.826   7.841   7.885
12085WAT     H136497   1.924   7.860   7.890
12085WAT     H236498   1.777   7.904   7.946
12086WAT      O36499   4.569   7.602   8.736
12086WAT     H136500   4.476   7.578   8.763
12086WAT     H236501   4.605   7.530   8.675
12087WAT      O36502   7.012   9.307   2.673
12087WAT     H136503   7.087   9.323   2.736
12087WAT     H236504   7.011   9.378   2.603
12088WAT      O36505   0.250   5.397   5.343
12088WAT     H136506   0.285   5.488   5.363
12088WAT     H236507   0.322   5.341   5.303
12089WAT      O36508   8.623   6.075   9.479
12089WAT     H136509   8.563   6.137   9.530
12089WAT     H236510   8.586   5.982   9.485
12090WAT      O36511   6.268   8.059   6.798
12090WAT     H136512   6.197   7.990   6.784
12090WAT     H236513   6.264   8.127   6.724
12091WAT      O36514   7.185   1.450   8.340
12091WAT     H136515   7.154   1.545   8.350
12091WAT     H236516   7.280   1.442   8.370
12092WAT      O36517   8.159   4.850   6.014
12092WAT     H136518   8.075   4.836   6.067
12092WAT     H236519   8.163   4.782   5.940
12093WAT      O36520   3.167   6.344   2.228
12093WAT     H136521   3.247   6.404   2.226
12093WAT     H236522   3.084   6.399   2.221
12094WAT      O36523   5.005   2.242   0.064
12094WAT     H136524   5.068   2.168   0.040
12094WAT     H236525   4.982   2.294  -0.018
12095WAT      O36526   2.634   1.427   3.863
12095WAT     H136527   2.598   1.434   3.770
12095WAT     H236528   2.686   1.510   3.885
12096WAT      O36529   1.194   0.060   8.386
12096WAT     H136530   1.265  -0.003   8.356
12096WAT     H236531   1.208   0.149   8.342
12097WAT      O36532   2.037   8.014   8.593
12097WAT     H136533   1.953   7.961   8.583
12097WAT     H236534   2.073   8.002   8.686
12098WAT      O36535   5.918   9.567   3.714
12098WAT     H136536   5.971   9.482   3.706
12098WAT     H236537   5.889   9.579   3.808
12099WAT      O36538   4.242   5.076   0.911
12099WAT     H136539   4.273   5.148   0.974
12099WAT     H236540   4.170   5.023   0.954
12100WAT      O36541   2.083   9.490   6.787
12100WAT     H136542   2.021   9.413   6.774
12100WAT     H236543   2.124   9.515   6.699
12101WAT      O36544   1.251   3.354   4.431
12101WAT     H136545   1.268   3.318   4.522
12101WAT     H236546   1.168   3.311   4.394
12102WAT      O36547   3.715   5.910   2.540
12102WAT     H136548   3.808   5.936   2.513
12102WAT     H236549   3.690   5.956   2.625
12103WAT      O36550   3.024   1.057   2.380
12103WAT     H136551   3.123   1.044   2.383
12103WAT     H236552   2.985   1.001   2.307
12104WAT      O36553   8.957   6.996   9.104
12104WAT     H136554   8.901   7.070   9.068
12104WAT     H236555   8.965   6.923   9.036
12105WAT      O36556   7.595   9.505   4.491
12105WAT     H136557   7.637   9.422   4.454
12105WAT     H236558   7.665   9.562   4.533
12106WAT      O36559   7.240   3.903   5.818
12106WAT     H136560   7.230   3.808   5.846
12106WAT     H236561   7.151   3.948   5.816
12107WAT      O36562   8.094   7.943   9.446
12107WAT     H136563   8.075   7.907   9.355
12107WAT     H236564   8.017   7.998   9.477
12108WAT      O36565   6.520   3.434   3.526
12108WAT     H136566   6.610   3.393   3.518
12108WAT     H236567   6.476   3.403   3.610
12109WAT      O36568   5.544   2.968   2.986
12109WAT     H136569   5.508   2.944   2.896
12109WAT     H236570   5.473   2.953   3.055
12110WAT      O36571   6.933   7.345   3.608
12110WAT     H136572   6.950   7.340   3.510
12110WAT     H236573   6.932   7.441   3.637
12111WAT      O36574   8.570   9.767   1.246
12111WAT     H136575   8.567   9.686   1.187
12111WAT     H236576   8.570   9.738   1.342
12112WAT      O36577   3.498   5.909   4.589
12112WAT     H136578   3.510   5.871   4.681
12112WAT     H236579   3.474   6.005   4.596
12113WAT      O36580   0.339   9.632   1.723
12113WAT     H136581   0.366   9.548   1.677
12113WAT     H236582   0.239   9.638   1.724
12114WAT      O36583   8.680   4.116   9.100
12114WAT     H136584   8.732   4.031   9.094
12114WAT     H236585   8.596   4.108   9.046
12115WAT      O36586   6.777   6.422   0.254
12115WAT     H136587   6.710   6.385   0.318
12115WAT     H236588   6.755   6.518   0.233
12116WAT      O36589   6.257   5.617   5.500
12116WAT     H136590   6.295   5.535   5.544
12116WAT     H236591   6.326   5.689   5.500
12117WAT      O36592   9.147   8.459   9.133
12117WAT     H136593   9.185   8.369   9.153
12117WAT     H236594   9.215   8.513   9.083
12118WAT      O36595   2.831   7.729   9.511
12118WAT     H136596   2.732   7.742   9.519
12118WAT     H236597   2.855   7.638   9.543
12119WAT      O36598   0.798   3.536   5.531
12119WAT     H136599   0.895   3.513   5.541
12119WAT     H236600   0.742   3.462   5.569
12120WAT      O36601   0.224   6.808   4.660
12120WAT     H136602   0.321   6.831   4.657
12120WAT     H236603   0.189   6.826   4.752
12121WAT      O36604   7.869   1.530   9.456
12121WAT     H136605   7.918   1.614   9.482
12121WAT     H236606   7.928   1.451   9.472
12122WAT      O36607   1.233   7.944   3.320
12122WAT     H136608   1.258   8.039   3.300
12122WAT     H236609   1.315   7.887   3.316
12123WAT      O36610   1.015   6.551   7.897
12123WAT     H136611   1.000   6.573   7.993
12123WAT     H236612   1.032   6.635   7.846
12124WAT      O36613   1.213   6.850   3.746
12124WAT     H136614   1.194   6.859   3.649
12124WAT     H236615   1.305   6.885   3.766
12125WAT      O36616   3.822   5.733   8.831
12125WAT     H136617   3.843   5.821   8.872
12125WAT     H236618   3.883   5.663   8.869
12126WAT      O36619   6.162   0.827   2.191
12126WAT     H136620   6.130   0.806   2.283
12126WAT     H236621   6.086   0.865   2.138
12127WAT      O36622   2.075   5.353   8.477
12127WAT     H136623   2.087   5.316   8.385
12127WAT     H236624   2.159   5.399   8.506
12128WAT      O36625   2.146   8.079   7.863
12128WAT     H136626   2.106   8.041   7.780
12128WAT     H236627   2.245   8.081   7.854
12129WAT      O36628   2.569   9.164   8.708
12129WAT     H136629   2.548   9.226   8.632
12129WAT     H236630   2.614   9.214   8.781
12130WAT      O36631   7.904   5.112   1.238
12130WAT     H136632   7.949   5.117   1.327
12130WAT     H236633   7.808   5.139   1.248
12131WAT      O36634   2.497   8.056   7.269
12131WAT     H136635   2.431   8.108   7.323
12131WAT     H236636   2.495   8.087   7.174
12132WAT      O36637   4.408   9.557   1.417
12132WAT     H136638   4.442   9.496   1.346
12132WAT     H236639   4.312   9.577   1.401
12133WAT      O36640   7.165   1.463   3.141
12133WAT     H136641   7.144   1.485   3.045
12133WAT     H236642   7.185   1.366   3.149
12134WAT      O36643   4.754   9.487   9.408
12134WAT     H136644   4.688   9.462   9.337
12134WAT     H236645   4.733   9.438   9.492
12135WAT      O36646   0.766   0.992   0.927
12135WAT     H136647   0.701   1.041   0.985
12135WAT     H236648   0.852   1.042   0.923
12136WAT      O36649   2.493   2.487   6.919
12136WAT     H136650   2.429   2.417   6.886
12136WAT     H236651   2.442   2.569   6.944
12137WAT      O36652   5.188   4.567   6.714
12137WAT     H136653   5.180   4.665   6.696
12137WAT     H236654   5.105   4.521   6.683
12138WAT      O36655   6.903   3.635   0.739
12138WAT     H136656   6.960   3.575   0.795
12138WAT     H236657   6.808   3.631   0.770
12139WAT      O36658   7.629   8.360   3.411
12139WAT     H136659   7.684   8.318   3.338
12139WAT     H236660   7.687   8.377   3.491
12140WAT      O36661   5.577   9.093   4.122
12140WAT     H136662   5.602   9.003   4.088
12140WAT     H236663   5.654   9.156   4.108
12141WAT      O36664   3.768   7.524   7.915
12141WAT     H136665   3.668   7.520   7.919
12141WAT     H236666   3.795   7.579   7.836
12142WAT      O36667   8.784   7.747   1.156
12142WAT     H136668   8.749   7.814   1.222
12142WAT     H236669   8.883   7.740   1.167
12143WAT      O36670   7.718   8.036   5.097
12143WAT     H136671   7.739   7.967   5.027
12143WAT     H236672   7.802   8.058   5.148
12144WAT      O36673   0.222   8.379   6.907
12144WAT     H136674   0.226   8.311   6.980
12144WAT     H236675   0.135   8.370   6.857
12145WAT      O36676   2.669   2.394   7.556
12145WAT     H136677   2.678   2.454   7.635
12145WAT     H236678   2.654   2.300   7.587
12146WAT      O36679   5.630   7.841   6.768
12146WAT     H136680   5.554   7.902   6.791
12146WAT     H236681   5.623   7.813   6.673
12147WAT      O36682   4.831   8.716   5.376
12147WAT     H136683   4.779   8.794   5.344
12147WAT     H236684   4.817   8.705   5.475
12148WAT      O36685   6.685   5.248   0.304
12148WAT     H136686   6.623   5.193   0.360
12148WAT     H236687   6.633   5.294   0.232
12149WAT      O36688   9.887  -0.002   4.778
12149WAT     H136689   9.921   0.040   4.694
12149WAT     H236690   9.814   0.055   4.816
12150WAT      O36691   8.155   5.840   6.064
12150WAT     H136692   8.073   5.813   6.116
12150WAT     H236693   8.206   5.909   6.116
12151WAT      O36694   1.013   3.366   5.302
12151WAT     H136695   0.930   3.339   5.350
12151WAT     H236696   1.032   3.301   5.228
12152WAT      O36697   7.851   4.726   4.815
12152WAT     H136698   7.924   4.660   4.830
12152WAT     H236699   7.842   4.785   4.895
12153WAT      O36700   6.403   1.583   5.063
12153WAT     H136701   6.465   1.509   5.036
12153WAT     H236702   6.445   1.671   5.041
12154WAT      O36703   7.601   7.353   3.348
12154WAT     H136704   7.686   7.405   3.338
12154WAT     H236705   7.576   7.313   3.260
12155WAT      O36706   0.611   9.396   2.373
12155WAT     H136707   0.517   9.361   2.373
12155WAT     H236708   0.673   9.324   2.405
12156WAT      O36709   7.434   7.084   2.036
12156WAT     H136710   7.382   7.006   2.072
12156WAT     H236711   7.531   7.059   2.030
12157WAT      O36712   3.409   7.990   9.238
12157WAT     H136713   3.472   8.068   9.246
12157WAT     H236714   3.387   7.956   9.329
12158WAT      O36715   2.615   1.626   8.646
12158WAT     H136716   2.689   1.586   8.700
12158WAT     H236717   2.648   1.649   8.555
12159WAT      O36718   7.863   7.105   6.774
12159WAT     H136719   7.769   7.137   6.780
12159WAT     H236720   7.868   7.028   6.711
12160WAT      O36721   8.760   7.628   3.973
12160WAT     H136722   8.773   7.726   3.989
12160WAT     H236723   8.827   7.576   4.025
12161WAT      O36724   0.857   3.702   5.100
12161WAT     H136725   0.826   3.717   5.194
12161WAT     H236726   0.831   3.779   5.043
12162WAT      O36727   7.324   2.439   4.999
12162WAT     H136728   7.275   2.373   5.055
12162WAT     H236729   7.310   2.419   4.902
12163WAT      O36730   4.056   9.408   4.935
12163WAT     H136731   4.130   9.343   4.949
12163WAT     H236732   4.039   9.419   4.837
12164WAT      O36733   5.345   7.446   0.827
12164WAT     H136734   5.440   7.420   0.808
12164WAT     H236735   5.312   7.395   0.906
12165WAT      O36736   1.965   6.682   7.910
12165WAT     H136737   2.002   6.632   7.988
12165WAT     H236738   2.018   6.660   7.828
12166WAT      O36739   7.306   8.319   3.084
12166WAT     H136740   7.348   8.255   3.148
12166WAT     H236741   7.376   8.371   3.036
12167WAT      O36742   7.916   4.586   0.548
12167WAT     H136743   7.951   4.517   0.485
12167WAT     H236744   7.818   4.570   0.563
12168WAT      O36745   6.674   2.349   8.949
12168WAT     H136746   6.665   2.425   9.013
12168WAT     H236747   6.695   2.385   8.858
12169WAT      O36748   3.269   6.754   5.962
12169WAT     H136749   3.201   6.705   5.907
12169WAT     H236750   3.238   6.848   5.977
12170WAT      O36751   0.590   8.639   9.840
12170WAT     H136752   0.634   8.584   9.768
12170WAT     H236753   0.505   8.677   9.805
12171WAT      O36754   8.466   2.880   6.306
12171WAT     H136755   8.423   2.869   6.217
12171WAT     H236756   8.549   2.825   6.309
12172WAT      O36757   5.432   2.568   1.012
12172WAT     H136758   5.346   2.612   1.039
12172WAT     H236759   5.413   2.477   0.975
12173WAT      O36760   2.841   9.152   6.613
12173WAT     H136761   2.785   9.084   6.565
12173WAT     H236762   2.782   9.207   6.673
12174WAT      O36763   7.032   8.075   3.458
12174WAT     H136764   7.070   8.067   3.366
12174WAT     H236765   7.020   8.171   3.481
12175WAT      O36766   1.343   5.213   6.145
12175WAT     H136767   1.407   5.160   6.201
12175WAT     H236768   1.259   5.230   6.197
12176WAT      O36769   8.998   8.389   5.472
12176WAT     H136770   9.047   8.309   5.437
12176WAT     H236771   8.929   8.360   5.538
12177WAT      O36772   1.170   1.645   2.094
12177WAT     H136773   1.076   1.669   2.116
12177WAT     H236774   1.187   1.549   2.116
12178WAT      O36775   1.475   1.904   8.091
12178WAT     H136776   1.390   1.863   8.125
12178WAT     H236777   1.538   1.831   8.064
12179WAT      O36778   2.771   3.294   9.833
12179WAT     H136779   2.837   3.229   9.798
12179WAT     H236780   2.764   3.372   9.770
12180WAT      O36781   3.283   1.568   7.041
12180WAT     H136782   3.335   1.649   7.068
12180WAT     H236783   3.186   1.591   7.033
12181WAT      O36784   5.960   8.102   3.474
12181WAT     H136785   5.945   8.141   3.383
12181WAT     H236786   5.976   8.004   3.465
12182WAT      O36787   1.053   3.258   1.460
12182WAT     H136788   0.975   3.319   1.446
12182WAT     H236789   1.073   3.251   1.558
12183WAT      O36790   2.229   7.364   9.659
12183WAT     H136791   2.133   7.392   9.650
12183WAT     H236792   2.245   7.328   9.750
12184WAT      O36793   9.277   1.713   7.032
12184WAT     H136794   9.194   1.668   6.999
12184WAT     H236795   9.317   1.659   7.107
12185WAT      O36796   2.238   6.815   5.969
12185WAT     H136797   2.236   6.909   5.935
12185WAT     H236798   2.283   6.813   6.058
12186WAT      O36799   2.459   0.071   6.389
12186WAT     H136800   2.396   0.063   6.311
12186WAT     H236801   2.443   0.158   6.435
12187WAT      O36802   5.209   9.746   3.546
12187WAT     H136803   5.186   9.717   3.453
12187WAT     H236804   5.211   9.846   3.551
12188WAT      O36805   0.825   2.718   6.661
12188WAT     H136806   0.856   2.784   6.592
12188WAT     H236807   0.904   2.672   6.700
12189WAT      O36808   7.044   4.882   1.149
12189WAT     H136809   7.080   4.917   1.062
12189WAT     H236810   7.118   4.836   1.199
12190WAT      O36811   1.881   9.751   4.303
12190WAT     H136812   1.809   9.688   4.272
12190WAT     H236813   1.841   9.839   4.326
12191WAT      O36814   2.155   3.945   1.857
12191WAT     H136815   2.069   3.929   1.809
12191WAT     H236816   2.225   3.885   1.820
12192WAT      O36817   0.067   2.118   2.712
12192WAT     H136818   0.141   2.132   2.779
12192WAT     H236819   0.008   2.043   2.743
12193WAT      O36820   3.894   2.765   3.232
12193WAT     H136821   3.979   2.723   3.197
12193WAT     H236822   3.915   2.822   3.311
12194WAT      O36823   4.564   6.465   0.244
12194WAT     H136824   4.477   6.509   0.267
12194WAT     H236825   4.549   6.397   0.172
12195WAT      O36826   7.346   4.204   0.789
12195WAT     H136827   7.413   4.250   0.848
12195WAT     H236828   7.370   4.107   0.781
12196WAT      O36829   6.741   0.984   0.473
12196WAT     H136830   6.687   1.053   0.425
12196WAT     H236831   6.819   0.957   0.415
12197WAT      O36832   2.551   8.670   4.491
12197WAT     H136833   2.519   8.591   4.543
12197WAT     H236834   2.514   8.667   4.398
12198WAT      O36835   7.085   4.595   4.461
12198WAT     H136836   7.121   4.562   4.549
12198WAT     H236837   6.990   4.564   4.451
12199WAT      O36838   1.662   9.831   4.578
12199WAT     H136839   1.680   9.735   4.556
12199WAT     H236840   1.566   9.852   4.558
12200WAT      O36841   5.036   0.229   7.855
12200WAT     H136842   4.957   0.276   7.895
12200WAT     H236843   5.102   0.296   7.823
12201WAT      O36844   4.680   5.040   2.513
12201WAT     H136845   4.664   5.107   2.585
12201WAT     H236846   4.676   4.948   2.552
12202WAT      O36847   4.943   1.533   6.983
12202WAT     H136848   4.899   1.444   6.996
12202WAT     H236849   4.886   1.591   6.924
12203WAT      O36850   1.722   1.601   8.944
12203WAT     H136851   1.656   1.537   8.904
12203WAT     H236852   1.674   1.684   8.973
12204WAT      O36853   5.088   0.801   2.372
12204WAT     H136854   5.162   0.866   2.358
12204WAT     H236855   5.011   0.846   2.418
12205WAT      O36856   9.138   4.284   1.289
12205WAT     H136857   9.088   4.343   1.351
12205WAT     H236858   9.104   4.298   1.195
12206WAT      O36859   6.067   1.189   8.902
12206WAT     H136860   6.052   1.272   8.848
12206WAT     H236861   6.011   1.192   8.985
12207WAT      O36862   9.299   5.396   8.272
12207WAT     H136863   9.226   5.451   8.232
12207WAT     H236864   9.271   5.364   8.362
12208WAT      O36865   1.967   7.282   9.299
12208WAT     H136866   1.974   7.206   9.364
12208WAT     H236867   1.871   7.296   9.275
12209WAT      O36868   8.878   1.837   9.243
12209WAT     H136869   8.834   1.849   9.155
12209WAT     H236870   8.971   1.802   9.229
12210WAT      O36871   7.245   9.000   0.984
12210WAT     H136872   7.187   9.032   1.059
12210WAT     H236873   7.275   9.078   0.930
12211WAT      O36874   5.841   2.827   6.496
12211WAT     H136875   5.885   2.861   6.579
12211WAT     H236876   5.760   2.883   6.477
12212WAT      O36877   7.459   9.347   9.736
12212WAT     H136878   7.467   9.364   9.638
12212WAT     H236879   7.365   9.366   9.766
12213WAT      O36880   0.465   6.767   4.309
12213WAT     H136881   0.491   6.856   4.273
12213WAT     H236882   0.383   6.734   4.262
12214WAT      O36883   9.207   8.040   6.395
12214WAT     H136884   9.239   7.945   6.390
12214WAT     H236885   9.161   8.055   6.483
12215WAT      O36886   4.150   3.922   2.315
12215WAT     H136887   4.225   3.983   2.293
12215WAT     H236888   4.099   3.899   2.232
12216WAT      O36889   3.201   6.830   9.605
12216WAT     H136890   3.290   6.848   9.562
12216WAT     H236891   3.190   6.889   9.685
12217WAT      O36892   8.850   8.819   1.926
12217WAT     H136893   8.832   8.916   1.911
12217WAT     H236894   8.876   8.804   2.021
12218WAT      O36895   6.772   5.054   2.659
12218WAT     H136896   6.776   4.984   2.730
12218WAT     H236897   6.863   5.091   2.643
12219WAT      O36898   5.261   5.186   7.450
12219WAT     H136899   5.170   5.171   7.488
12219WAT     H236900   5.328   5.186   7.524
12220WAT      O36901   1.830   4.964   2.542
12220WAT     H136902   1.851   4.952   2.639
12220WAT     H236903   1.735   4.936   2.525
12221WAT      O36904   3.732   1.021   1.461
12221WAT     H136905   3.771   1.111   1.442
12221WAT     H236906   3.643   1.032   1.506
12222WAT      O36907   7.359   9.590   4.396
12222WAT     H136908   7.281   9.552   4.446
12222WAT     H236909   7.443   9.544   4.424
12223WAT      O36910   9.723   1.525   8.601
12223WAT     H136911   9.808   1.504   8.551
12223WAT     H236912   9.700   1.449   8.661
12224WAT      O36913   9.507   7.626   7.276
12224WAT     H136914   9.454   7.701   7.236
12224WAT     H236915   9.462   7.596   7.360
12225WAT      O36916   5.624   8.244   6.320
12225WAT     H136917   5.537   8.222   6.364
12225WAT     H236918   5.673   8.160   6.297
12226WAT      O36919   5.215   8.785   0.014
12226WAT     H136920   5.258   8.696   0.002
12226WAT     H236921   5.160   8.786   0.097
12227WAT      O36922   4.858   3.058   5.048
12227WAT     H136923   4.774   3.041   4.995
12227WAT     H236924   4.936   3.063   4.986
12228WAT      O36925   2.526   4.829   8.382
12228WAT     H136926   2.473   4.801   8.303
12228WAT     H236927   2.550   4.748   8.436
12229WAT      O36928   2.070   5.200   5.777
12229WAT     H136929   2.104   5.112   5.744
12229WAT     H236930   1.997   5.233   5.717
12230WAT      O36931   1.001   4.927   4.028
12230WAT     H136932   1.075   4.923   3.960
12230WAT     H236933   1.039   4.956   4.116
12231WAT      O36934   4.695   2.708   7.643
12231WAT     H136935   4.712   2.610   7.657
12231WAT     H236936   4.763   2.761   7.693
12232WAT      O36937   5.279   0.423   8.044
12232WAT     H136938   5.375   0.448   8.028
12232WAT     H236939   5.274   0.330   8.079
12233WAT      O36940   2.783   1.954   8.904
12233WAT     H136941   2.864   1.900   8.926
12233WAT     H236942   2.803   2.051   8.920
12234WAT      O36943   3.637   8.518   8.829
12234WAT     H136944   3.641   8.447   8.900
12234WAT     H236945   3.646   8.608   8.872
12235WAT      O36946   0.130   0.541   5.497
12235WAT     H136947   0.073   0.518   5.418
12235WAT     H236948   0.087   0.614   5.549
12236WAT      O36949   2.674   5.067   8.357
12236WAT     H136950   2.633   4.980   8.384
12236WAT     H236951   2.708   5.060   8.263
12237WAT      O36952   0.802   7.356   2.083
12237WAT     H136953   0.853   7.365   1.997
12237WAT     H236954   0.707   7.381   2.067
12238WAT      O36955   1.224   2.522   4.615
12238WAT     H136956   1.287   2.586   4.571
12238WAT     H236957   1.163   2.483   4.546
12239WAT      O36958   8.544   1.450   2.705
12239WAT     H136959   8.630   1.429   2.751
12239WAT     H236960   8.561   1.470   2.609
12240WAT      O36961   7.453   7.186   5.701
12240WAT     H136962   7.515   7.234   5.763
12240WAT     H236963   7.358   7.209   5.725
12241WAT      O36964   3.207   2.953   7.694
12241WAT     H136965   3.286   3.004   7.725
12241WAT     H236966   3.237   2.877   7.635
12242WAT      O36967   1.273   0.955   4.833
12242WAT     H136968   1.273   1.010   4.917
12242WAT     H236969   1.347   0.887   4.838
12243WAT      O36970   1.942   7.430   8.824
12243WAT     H136971   1.960   7.387   8.912
12243WAT     H236972   1.928   7.359   8.755
12244WAT      O36973   0.642   8.857   2.617
12244WAT     H136974   0.616   8.875   2.711
12244WAT     H236975   0.582   8.908   2.555
12245WAT      O36976   4.143   6.856   3.728
12245WAT     H136977   4.108   6.945   3.755
12245WAT     H236978   4.241   6.851   3.748
12246WAT      O36979   5.047   8.207   4.985
12246WAT     H136980   5.128   8.149   4.993
12246WAT     H236981   5.031   8.254   5.071
12247WAT      O36982   6.142   0.712   1.318
12247WAT     H136983   6.195   0.787   1.278
12247WAT     H236984   6.070   0.684   1.253
12248WAT      O36985   2.752   2.268   0.085
12248WAT     H136986   2.680   2.255   0.017
12248WAT     H236987   2.828   2.317   0.044
12249WAT      O36988   6.820   3.482   7.069
12249WAT     H136989   6.848   3.389   7.048
12249WAT     H236990   6.816   3.494   7.169
12250WAT      O36991   0.685   8.869   8.641
12250WAT     H136992   0.599   8.857   8.591
12250WAT     H236993   0.673   8.937   8.713
12251WAT      O36994   4.193   8.985   4.375
12251WAT     H136995   4.222   8.946   4.463
12251WAT     H236996   4.172   8.912   4.311
12252WAT      O36997   5.569   5.990   6.044
12252WAT     H136998   5.644   5.942   5.999
12252WAT     H236999   5.605   6.069   6.093
12253WAT      O37000   8.417   0.531   8.064
12253WAT     H137001   8.417   0.496   8.158
12253WAT     H237002   8.370   0.466   8.004
12254WAT      O37003   0.303   7.643   3.817
12254WAT     H137004   0.315   7.592   3.733
12254WAT     H237005   0.208   7.674   3.824
12255WAT      O37006   5.624   8.702   0.278
12255WAT     H137007   5.526   8.698   0.258
12255WAT     H237008   5.670   8.628   0.229
12256WAT      O37009   8.656   7.738   6.598
12256WAT     H137010   8.622   7.817   6.648
12256WAT     H237011   8.582   7.699   6.543
12257WAT      O37012   5.044   8.365   6.144
12257WAT     H137013   5.047   8.397   6.049
12257WAT     H237014   5.117   8.409   6.196
12258WAT      O37015   0.349   5.433   6.459
12258WAT     H137016   0.375   5.496   6.533
12258WAT     H237017   0.400   5.458   6.376
12259WAT      O37018   0.025   9.529   4.216
12259WAT     H137019   0.065   9.609   4.261
12259WAT     H237020  -0.043   9.559   4.149
12260WAT      O37021   2.490   3.759   2.298
12260WAT     H137022   2.503   3.753   2.397
12260WAT     H237023   2.566   3.712   2.252
12261WAT      O37024   8.298   9.587   7.782
12261WAT     H137025   8.226   9.652   7.807
12261WAT     H237026   8.380   9.606   7.837
12262WAT      O37027   5.262   9.556   3.727
12262WAT     H137028   5.170   9.524   3.747
12262WAT     H237029   5.258   9.638   3.670
12263WAT      O37030   6.141   6.662   6.748
12263WAT     H137031   6.063   6.709   6.787
12263WAT     H237032   6.125   6.643   6.651
12264WAT      O37033   5.456   3.200   2.371
12264WAT     H137034   5.477   3.110   2.408
12264WAT     H237035   5.488   3.205   2.276
12265WAT      O37036   5.625   1.082   9.617
12265WAT     H137037   5.715   1.084   9.574
12265WAT     H237038   5.636   1.077   9.716
12266WAT      O37039   0.874   8.943   0.755
12266WAT     H137040   0.850   9.005   0.680
12266WAT     H237041   0.942   8.987   0.814
12267WAT      O37042   2.132   7.923   6.198
12267WAT     H137043   2.071   8.002   6.201
12267WAT     H237044   2.091   7.852   6.140
12268WAT      O37045   9.587   0.859   5.414
12268WAT     H137046   9.639   0.793   5.359
12268WAT     H237047   9.632   0.873   5.501
12269WAT      O37048   3.195   5.258   2.591
12269WAT     H137049   3.250   5.323   2.539
12269WAT     H237050   3.203   5.277   2.688
12270WAT      O37051   1.873   7.410   3.704
12270WAT     H137052   1.915   7.480   3.647
12270WAT     H237053   1.927   7.397   3.787
12271WAT      O37054   0.522   1.444   3.974
12271WAT     H137055   0.554   1.416   3.883
12271WAT     H237056   0.487   1.364   4.023
12272WAT      O37057   5.915   5.811   1.993
12272WAT     H137058   5.934   5.717   1.963
12272WAT     H237059   5.904   5.870   1.912
12273WAT      O37060   0.586   8.157   8.456
12273WAT     H137061   0.543   8.220   8.520
12273WAT     H237062   0.546   8.065   8.467
12274WAT      O37063   8.261   8.375   1.999
12274WAT     H137064   8.191   8.416   2.058
12274WAT     H237065   8.218   8.341   1.916
12275WAT      O37066   1.366   2.420   0.509
12275WAT     H137067   1.346   2.481   0.586
12275WAT     H237068   1.408   2.472   0.435
12276WAT      O37069   9.772   7.091   2.345
12276WAT     H137070   9.711   7.111   2.421
12276WAT     H237071   9.838   7.021   2.373
12277WAT      O37072   2.708   4.062   5.768
12277WAT     H137073   2.778   4.037   5.701
12277WAT     H237074   2.622   4.081   5.721
12278WAT      O37075   2.018   1.887   6.424
12278WAT     H137076   1.933   1.934   6.398
12278WAT     H237077   2.053   1.926   6.509
12279WAT      O37078   7.364   3.425   9.350
12279WAT     H137079   7.289   3.439   9.415
12279WAT     H237080   7.419   3.508   9.344
12280WAT      O37081   8.605   3.249   0.388
12280WAT     H137082   8.686   3.270   0.333
12280WAT     H237083   8.606   3.151   0.412
12281WAT      O37084   8.924   1.793   8.195
12281WAT     H137085   8.928   1.735   8.114
12281WAT     H237086   8.897   1.739   8.274
12282WAT      O37087   5.504   7.151   8.010
12282WAT     H137088   5.522   7.054   7.998
12282WAT     H237089   5.530   7.179   8.102
12283WAT      O37090   7.311   8.702   5.652
12283WAT     H137091   7.281   8.612   5.683
12283WAT     H237092   7.322   8.763   5.730
12284WAT      O37093   5.120   5.506   1.596
12284WAT     H137094   5.214   5.475   1.584
12284WAT     H237095   5.104   5.528   1.692
12285WAT      O37096   8.372   6.792   6.757
12285WAT     H137097   8.287   6.743   6.738
12285WAT     H237098   8.351   6.882   6.796
12286WAT      O37099   7.816   9.235   7.413
12286WAT     H137100   7.785   9.140   7.410
12286WAT     H237101   7.859   9.253   7.502
12287WAT      O37102   6.909   0.746   2.919
12287WAT     H137103   6.877   0.667   2.970
12287WAT     H237104   6.987   0.719   2.861
12288WAT      O37105   9.791   3.345   9.060
12288WAT     H137106   9.865   3.406   9.032
12288WAT     H237107   9.808   3.312   9.153
12289WAT      O37108   0.835   1.992   3.563
12289WAT     H137109   0.820   1.963   3.469
12289WAT     H237110   0.894   1.925   3.610
12290WAT      O37111   2.173   4.028   2.593
12290WAT     H137112   2.159   4.113   2.644
12290WAT     H237113   2.146   3.950   2.649
12291WAT      O37114   4.298   1.500   0.771
12291WAT     H137115   4.328   1.559   0.696
12291WAT     H237116   4.234   1.432   0.736
12292WAT      O37117   6.572   8.342   0.169
12292WAT     H137118   6.606   8.351   0.076
12292WAT     H237119   6.633   8.283   0.222
12293WAT      O37120   3.267   6.609   6.419
12293WAT     H137121   3.228   6.698   6.443
12293WAT     H237122   3.307   6.614   6.328
12294WAT      O37123   3.951   5.663   3.552
12294WAT     H137124   4.017   5.636   3.482
12294WAT     H237125   3.872   5.707   3.509
12295WAT      O37126   5.132   7.241   5.080
12295WAT     H137127   5.175   7.158   5.116
12295WAT     H237128   5.159   7.320   5.135
12296WAT      O37129   4.764   3.272   1.305
12296WAT     H137130   4.766   3.177   1.337
12296WAT     H237131   4.670   3.305   1.303
12297WAT      O37132   5.699   0.316   7.364
12297WAT     H137133   5.627   0.252   7.387
12297WAT     H237134   5.671   0.372   7.286
12298WAT      O37135   3.284   3.743   1.170
12298WAT     H137136   3.339   3.731   1.088
12298WAT     H237137   3.234   3.659   1.190
12299WAT      O37138   3.098   2.348   8.986
12299WAT     H137139   3.011   2.322   8.945
12299WAT     H237140   3.158   2.268   8.989
12300WAT      O37141   5.421   5.942   9.879
12300WAT     H137142   5.402   6.019   9.818
12300WAT     H237143   5.335   5.902   9.910
12301WAT      O37144   9.043   8.929   2.683
12301WAT     H137145   8.998   8.913   2.596
12301WAT     H237146   8.982   8.900   2.758
12302WAT      O37147   2.353   5.196   8.987
12302WAT     H137148   2.316   5.288   8.993
12302WAT     H237149   2.450   5.200   8.962
12303WAT      O37150   0.159   7.074   1.569
12303WAT     H137151   0.177   6.976   1.580
12303WAT     H237152   0.202   7.106   1.485
12304WAT      O37153   3.063   5.213   2.246
12304WAT     H137154   3.118   5.240   2.167
12304WAT     H237155   3.111   5.142   2.298
12305WAT      O37156   1.172   3.639   2.611
12305WAT     H137157   1.170   3.729   2.567
12305WAT     H237158   1.267   3.613   2.629
12306WAT      O37159   0.170   0.258   5.654
12306WAT     H137160   0.174   0.358   5.659
12306WAT     H237161   0.208   0.218   5.737
12307WAT      O37162   1.953   4.857   1.853
12307WAT     H137163   2.019   4.856   1.928
12307WAT     H237164   1.992   4.812   1.773
12308WAT      O37165   3.773   9.329   6.274
12308WAT     H137166   3.837   9.394   6.315
12308WAT     H237167   3.760   9.351   6.177
12309WAT      O37168   1.511   1.302   3.171
12309WAT     H137169   1.522   1.401   3.172
12309WAT     H237170   1.433   1.278   3.113
12310WAT      O37171   8.279   2.189   8.516
12310WAT     H137172   8.328   2.270   8.549
12310WAT     H237173   8.289   2.114   8.581
12311WAT      O37174   4.116   9.396   4.033
12311WAT     H137175   4.056   9.454   3.978
12311WAT     H237176   4.070   9.370   4.118
12312WAT      O37177   4.645   9.024   6.085
12312WAT     H137178   4.627   9.017   5.987
12312WAT     H237179   4.614   9.112   6.119
12313WAT      O37180   3.073   6.546   3.237
12313WAT     H137181   3.045   6.482   3.309
12313WAT     H237182   2.991   6.591   3.199
12314WAT      O37183   7.569   2.197   4.127
12314WAT     H137184   7.552   2.123   4.192
12314WAT     H237185   7.662   2.190   4.092
12315WAT      O37186   0.925   2.111   6.279
12315WAT     H137187   0.979   2.041   6.232
12315WAT     H237188   0.885   2.072   6.362
12316WAT      O37189   6.919   4.357   0.485
12316WAT     H137190   6.839   4.298   0.476
12316WAT     H237191   6.975   4.326   0.562
12317WAT      O37192   9.467   5.435   0.204
12317WAT     H137193   9.538   5.437   0.274
12317WAT     H237194   9.485   5.360   0.141
12318WAT      O37195   4.607   8.029   4.983
12318WAT     H137196   4.675   8.032   5.056
12318WAT     H237197   4.541   7.957   5.003
12319WAT      O37198   6.729   7.274   8.082
12319WAT     H137199   6.779   7.360   8.085
12319WAT     H237200   6.715   7.240   8.175
12320WAT      O37201   5.607   1.568   0.339
12320WAT     H137202   5.572   1.657   0.312
12320WAT     H237203   5.545   1.496   0.306
12321WAT      O37204   7.404   6.312   1.317
12321WAT     H137205   7.414   6.231   1.259
12321WAT     H237206   7.453   6.389   1.276
12322WAT      O37207   0.951   6.204   2.779
12322WAT     H137208   0.932   6.286   2.834
12322WAT     H237209   0.915   6.123   2.825
12323WAT      O37210   1.463   5.991   8.287
12323WAT     H137211   1.418   6.021   8.203
12323WAT     H237212   1.429   6.043   8.365
12324WAT      O37213   2.432   6.371   9.429
12324WAT     H137214   2.350   6.414   9.468
12324WAT     H237215   2.513   6.410   9.473
12325WAT      O37216   9.157   6.298   2.753
12325WAT     H137217   9.237   6.358   2.748
12325WAT     H237218   9.125   6.276   2.661
12326WAT      O37219   3.728   2.664   0.622
12326WAT     H137220   3.721   2.678   0.721
12326WAT     H237221   3.742   2.751   0.576
12327WAT      O37222   0.054   6.078   4.631
12327WAT     H137223  -0.014   6.133   4.582
12327WAT     H237224   0.008   6.012   4.690
12328WAT      O37225   2.152   2.272   0.816
12328WAT     H137226   2.182   2.274   0.721
12328WAT     H237227   2.207   2.206   0.868
12329WAT      O37228   4.321   3.851   8.708
12329WAT     H137229   4.226   3.835   8.679
12329WAT     H237230   4.375   3.767   8.694
12330WAT      O37231   9.608   0.110   4.714
12330WAT     H137232   9.602   0.060   4.627
12330WAT     H237233   9.675   0.184   4.706
12331WAT      O37234   0.309   2.615   8.423
12331WAT     H137235   0.326   2.638   8.519
12331WAT     H237236   0.246   2.538   8.418
12332WAT      O37237   8.476   5.993   0.434
12332WAT     H137238   8.400   5.947   0.388
12332WAT     H237239   8.486   6.085   0.398
12333WAT      O37240   1.316   0.678   1.581
12333WAT     H137241   1.323   0.620   1.663
12333WAT     H237242   1.395   0.661   1.522
12334WAT      O37243   8.447   5.992   2.590
12334WAT     H137244   8.540   5.961   2.605
12334WAT     H237245   8.383   5.917   2.609
12335WAT      O37246   8.857   9.372   0.240
12335WAT     H137247   8.794   9.448   0.223
12335WAT     H237248   8.934   9.405   0.296
12336WAT      O37249   2.611   7.940   8.789
12336WAT     H137250   2.698   7.897   8.763
12336WAT     H237251   2.591   7.919   8.884
12337WAT      O37252   6.310   6.373   9.387
12337WAT     H137253   6.387   6.434   9.370
12337WAT     H237254   6.261   6.356   9.301
12338WAT      O37255   8.590   2.172   4.701
12338WAT     H137256   8.592   2.272   4.711
12338WAT     H237257   8.681   2.140   4.672
12339WAT      O37258   1.903   4.864   9.546
12339WAT     H137259   1.990   4.913   9.551
12339WAT     H237260   1.905   4.801   9.468
12340WAT      O37261   5.473   0.212   0.907
12340WAT     H137262   5.456   0.123   0.864
12340WAT     H237263   5.412   0.280   0.868
12341WAT      O37264   9.616   6.971   4.655
12341WAT     H137265   9.553   7.044   4.628
12341WAT     H237266   9.563   6.889   4.677
12342WAT      O37267   9.769   6.303   4.461
12342WAT     H137268   9.829   6.242   4.409
12342WAT     H237269   9.705   6.249   4.515
12343WAT      O37270   4.799   5.830   5.687
12343WAT     H137271   4.783   5.914   5.738
12343WAT     H237272   4.714   5.779   5.679
12344WAT      O37273   4.356   3.471   2.367
12344WAT     H137274   4.444   3.425   2.378
12344WAT     H237275   4.284   3.413   2.404
12345WAT      O37276   1.429   3.991   6.990
12345WAT     H137277   1.403   3.980   6.894
12345WAT     H237278   1.348   3.981   7.048
12346WAT      O37279   3.600   6.080   1.913
12346WAT     H137280   3.598   6.086   1.813
12346WAT     H237281   3.683   6.124   1.948
12347WAT      O37282   5.166   2.307   4.394
12347WAT     H137283   5.147   2.405   4.381
12347WAT     H237284   5.087   2.254   4.365
12348WAT      O37285   6.903   9.800   3.811
12348WAT     H137286   6.903   9.890   3.766
12348WAT     H237287   6.809   9.769   3.823
12349WAT      O37288   6.666   8.710   9.378
12349WAT     H137289   6.616   8.629   9.408
12349WAT     H237290   6.764   8.692   9.379
12350WAT      O37291   4.207   8.709   1.224
12350WAT     H137292   4.259   8.643   1.170
12350WAT     H237293   4.218   8.800   1.184
12351WAT      O37294   8.756   1.508   5.280
12351WAT     H137295   8.830   1.573   5.299
12351WAT     H237296   8.734   1.510   5.182
12352WAT      O37297   0.558   1.775   0.023
12352WAT     H137298   0.621   1.749   0.097
12352WAT     H237299   0.527   1.869   0.038
12353WAT      O37300   6.530   7.385   4.610
12353WAT     H137301   6.524   7.391   4.709
12353WAT     H237302   6.548   7.290   4.583
12354WAT      O37303   4.496   1.498   4.040
12354WAT     H137304   4.541   1.567   4.097
12354WAT     H237305   4.437   1.441   4.097
12355WAT      O37306   6.875   4.079   9.684
12355WAT     H137307   6.974   4.087   9.672
12355WAT     H237308   6.845   4.136   9.760
12356WAT      O37309   8.673   1.323   3.626
12356WAT     H137310   8.764   1.314   3.584
12356WAT     H237311   8.605   1.281   3.566
12357WAT      O37312   2.566   9.267   0.645
12357WAT     H137313   2.581   9.228   0.554
12357WAT     H237314   2.598   9.362   0.646
12358WAT      O37315   0.038   6.084   0.613
12358WAT     H137316  -0.004   6.021   0.548
12358WAT     H237317  -0.033   6.118   0.676
12359WAT      O37318   5.478   6.578   2.568
12359WAT     H137319   5.499   6.549   2.475
12359WAT     H237320   5.517   6.512   2.633
12360WAT      O37321   6.844   1.879   2.141
12360WAT     H137322   6.924   1.847   2.191
12360WAT     H237323   6.793   1.801   2.105
12361WAT      O37324   9.170   4.199   5.436
12361WAT     H137325   9.261   4.233   5.460
12361WAT     H237326   9.105   4.224   5.508
12362WAT      O37327   3.614   9.061   4.093
12362WAT     H137328   3.531   9.013   4.121
12362WAT     H237329   3.593   9.124   4.019
12363WAT      O37330   3.095   8.459   0.293
12363WAT     H137331   3.181   8.509   0.301
12363WAT     H237332   3.070   8.420   0.382
12364WAT      O37333   3.051   8.122   4.320
12364WAT     H137334   3.063   8.089   4.414
12364WAT     H237335   3.137   8.113   4.271
12365WAT      O37336   3.441   6.719   7.295
12365WAT     H137337   3.516   6.675   7.344
12365WAT     H237338   3.386   6.772   7.359
12366WAT      O37339   0.161   1.089   9.213
12366WAT     H137340   0.165   1.018   9.143
12366WAT     H237341   0.122   1.052   9.297
12367WAT      O37342   5.974   0.974   3.069
12367WAT     H137343   5.986   0.879   3.098
12367WAT     H237344   5.897   1.014   3.119
12368WAT      O37345   8.384   5.551   0.920
12368WAT     H137346   8.446   5.491   0.970
12368WAT     H237347   8.329   5.496   0.857
12369WAT      O37348   9.839   7.030   3.998
12369WAT     H137349   9.740   7.031   3.983
12369WAT     H237350   9.872   7.123   4.013
12370WAT      O37351   8.564   2.222   7.271
12370WAT     H137352   8.636   2.178   7.324
12370WAT     H237353   8.480   2.169   7.279
12371WAT      O37354   0.637   8.231   8.969
12371WAT     H137355   0.611   8.300   9.037
12371WAT     H237356   0.569   8.157   8.969
12372WAT      O37357   8.210   3.299   4.033
12372WAT     H137358   8.209   3.238   3.954
12372WAT     H237359   8.120   3.339   4.047
12373WAT      O37360   1.037   8.095   0.204
12373WAT     H137361   0.974   8.087   0.127
12373WAT     H237362   1.110   8.159   0.181
12374WAT      O37363   3.104   9.248   6.989
12374WAT     H137364   3.131   9.256   6.893
12374WAT     H237365   3.178   9.204   7.041
12375WAT      O37366   1.872   0.592   0.013
12375WAT     H137367   1.840   0.511  -0.038
12375WAT     H237368   1.971   0.598   0.007
12376WAT      O37369   6.997   4.382   7.454
12376WAT     H137370   7.044   4.325   7.522
12376WAT     H237371   6.904   4.402   7.485
12377WAT      O37372   1.899   0.411   5.299
12377WAT     H137373   1.859   0.321   5.282
12377WAT     H237374   1.910   0.425   5.397
12378WAT      O37375   1.863   0.335   0.676
12378WAT     H137376   1.769   0.340   0.642
12378WAT     H237377   1.863   0.333   0.776
12379WAT      O37378   1.080   1.805   0.675
12379WAT     H137379   1.047   1.858   0.597
12379WAT     H237380   1.023   1.823   0.755
12380WAT      O37381   5.414   7.232   2.251
12380WAT     H137382   5.466   7.223   2.337
12380WAT     H237383   5.412   7.328   2.224
12381WAT      O37384   2.536   7.465   3.954
12381WAT     H137385   2.522   7.369   3.928
12381WAT     H237386   2.570   7.516   3.876
12382WAT      O37387   8.135   6.960   5.866
12382WAT     H137388   8.154   6.904   5.946
12382WAT     H237389   8.204   6.942   5.795
12383WAT      O37390   5.129   8.131   0.132
12383WAT     H137391   5.194   8.172   0.069
12383WAT     H237392   5.156   8.151   0.227
12384WAT      O37393   2.435   5.328   4.487
12384WAT     H137394   2.380   5.313   4.405
12384WAT     H237395   2.526   5.360   4.460
12385WAT      O37396   8.909   5.635   2.518
12385WAT     H137397   8.846   5.613   2.592
12385WAT     H237398   8.893   5.575   2.441
12386WAT      O37399   5.988   8.371   6.472
12386WAT     H137400   5.903   8.395   6.519
12386WAT     H237401   6.044   8.314   6.532
12387WAT      O37402   4.865   3.338   8.049
12387WAT     H137403   4.930   3.385   8.109
12387WAT     H237404   4.793   3.295   8.105
12388WAT      O37405   8.255   5.986   1.604
12388WAT     H137406   8.170   6.034   1.583
12388WAT     H237407   8.248   5.943   1.694
12389WAT      O37408   5.950   2.780   0.773
12389WAT     H137409   5.941   2.877   0.751
12389WAT     H237410   5.861   2.735   0.761
12390WAT      O37411   3.026   4.448   6.600
12390WAT     H137412   2.995   4.395   6.679
12390WAT     H237413   2.974   4.420   6.519
12391WAT      O37414   4.124   3.675   2.774
12391WAT     H137415   4.031   3.712   2.769
12391WAT     H237416   4.183   3.724   2.711
12392WAT      O37417   5.132   8.525   5.277
12392WAT     H137418   5.157   8.481   5.363
12392WAT     H237419   5.035   8.513   5.259
12393WAT      O37420   6.034   7.936   6.778
12393WAT     H137421   5.973   7.926   6.857
12393WAT     H237422   5.992   7.893   6.698
12394WAT      O37423   8.151   2.512   2.941
12394WAT     H137424   8.195   2.435   2.895
12394WAT     H237425   8.209   2.594   2.932
12395WAT      O37426   7.512   2.624   6.860
12395WAT     H137427   7.591   2.567   6.838
12395WAT     H237428   7.543   2.718   6.876
12396WAT      O37429   8.863   4.983   0.565
12396WAT     H137430   8.883   5.024   0.476
12396WAT     H237431   8.861   5.054   0.635
12397WAT      O37432   2.712   3.562   6.967
12397WAT     H137433   2.798   3.589   6.924
12397WAT     H237434   2.706   3.604   7.058
12398WAT      O37435   5.516   6.695   1.024
12398WAT     H137436   5.504   6.747   0.940
12398WAT     H237437   5.609   6.659   1.029
12399WAT      O37438   1.122   3.990   6.646
12399WAT     H137439   1.134   3.966   6.742
12399WAT     H237440   1.035   4.036   6.633
12400WAT      O37441   9.733   5.580   1.860
12400WAT     H137442   9.823   5.538   1.863
12400WAT     H237443   9.664   5.513   1.887
12401WAT      O37444   7.242   6.997   7.857
12401WAT     H137445   7.187   7.056   7.916
12401WAT     H237446   7.197   6.988   7.768
12402WAT      O37447   0.576   8.097   1.744
12402WAT     H137448   0.551   8.144   1.659
12402WAT     H237449   0.675   8.105   1.758
12403WAT      O37450   1.051   9.629   7.428
12403WAT     H137451   1.025   9.616   7.524
12403WAT     H237452   1.098   9.548   7.395
12404WAT      O37453   7.218   3.638   5.901
12404WAT     H137454   7.254   3.548   5.877
12404WAT     H237455   7.198   3.640   5.999
12405WAT      O37456   6.608   0.270   7.195
12405WAT     H137457   6.588   0.190   7.138
12405WAT     H237458   6.707   0.283   7.201
12406WAT      O37459   7.227   5.359   9.596
12406WAT     H137460   7.157   5.308   9.645
12406WAT     H237461   7.314   5.353   9.645
12407WAT      O37462   8.926   2.540   3.841
12407WAT     H137463   8.898   2.625   3.797
12407WAT     H237464   9.014   2.511   3.804
12408WAT      O37465   4.760   3.988   2.191
12408WAT     H137466   4.847   3.938   2.187
12408WAT     H237467   4.685   3.924   2.176
12409WAT      O37468   1.430   9.104   7.969
12409WAT     H137469   1.371   9.173   7.925
12409WAT     H237470   1.452   9.033   7.902
12410WAT      O37471   3.324   9.565   2.369
12410WAT     H137472   3.240   9.611   2.398
12410WAT     H237473   3.341   9.486   2.429
12411WAT      O37474   5.914   0.846   3.407
12411WAT     H137475   5.873   0.908   3.340
12411WAT     H237476   5.979   0.897   3.463
12412WAT      O37477   9.015   1.059   3.301
12412WAT     H137478   9.043   1.149   3.336
12412WAT     H237479   9.021   0.992   3.374
12413WAT      O37480   0.520   2.904   1.156
12413WAT     H137481   0.473   2.992   1.166
12413WAT     H237482   0.508   2.850   1.240
12414WAT      O37483   1.264   1.346   6.257
12414WAT     H137484   1.171   1.343   6.220
12414WAT     H237485   1.327   1.301   6.193
12415WAT      O37486   7.913   6.214   2.059
12415WAT     H137487   7.924   6.238   2.156
12415WAT     H237488   7.826   6.251   2.026
12416WAT      O37489   6.004   2.243   2.058
12416WAT     H137490   5.966   2.217   2.146
12416WAT     H237491   6.102   2.223   2.056
12417WAT      O37492   7.373   8.798   6.269
12417WAT     H137493   7.331   8.856   6.339
12417WAT     H237494   7.404   8.855   6.193
12418WAT      O37495   0.127   2.865   5.658
12418WAT     H137496   0.071   2.875   5.575
12418WAT     H237497   0.131   2.769   5.684
12419WAT      O37498   0.960   6.501   9.887
12419WAT     H137499   1.038   6.535   9.833
12419WAT     H237500   0.972   6.529   9.982
12420WAT      O37501   2.013   7.595   4.997
12420WAT     H137502   2.012   7.567   5.093
12420WAT     H237503   2.086   7.662   4.983
12421WAT      O37504   9.713   0.866   7.429
12421WAT     H137505   9.728   0.872   7.528
12421WAT     H237506   9.686   0.955   7.393
12422WAT      O37507   6.110   1.915   1.409
12422WAT     H137508   6.201   1.923   1.371
12422WAT     H237509   6.044   1.959   1.348
12423WAT      O37510   6.101   7.326   5.141
12423WAT     H137511   6.002   7.328   5.151
12423WAT     H237512   6.144   7.354   5.227
12424WAT      O37513   5.332   0.957   4.199
12424WAT     H137514   5.368   1.030   4.141
12424WAT     H237515   5.398   0.882   4.204
12425WAT      O37516   8.307   8.589   6.103
12425WAT     H137517   8.222   8.641   6.108
12425WAT     H237518   8.378   8.647   6.063
12426WAT      O37519   0.936   0.366   5.098
12426WAT     H137520   0.873   0.405   5.165
12426WAT     H237521   0.886   0.345   5.014
12427WAT      O37522   7.822   7.850   1.012
12427WAT     H137523   7.914   7.843   0.976
12427WAT     H237524   7.773   7.764   0.998
12428WAT      O37525   0.214   1.481   7.349
12428WAT     H137526   0.228   1.401   7.290
12428WAT     H237527   0.302   1.525   7.367
12429WAT      O37528   5.317   2.573   6.283
12429WAT     H137529   5.262   2.489   6.276
12429WAT     H237530   5.266   2.641   6.336
12430WAT      O37531   4.838   1.512   9.028
12430WAT     H137532   4.876   1.516   9.120
12430WAT     H237533   4.779   1.432   9.019
12431WAT      O37534   9.558   5.227   5.852
12431WAT     H137535   9.645   5.270   5.829
12431WAT     H237536   9.493   5.297   5.884
12432WAT      O37537   2.018   2.763   8.990
12432WAT     H137538   2.027   2.783   9.088
12432WAT     H237539   1.987   2.669   8.978
12433WAT      O37540   8.891   2.774   4.720
12433WAT     H137541   8.840   2.765   4.806
12433WAT     H237542   8.911   2.871   4.703
12434WAT      O37543   5.102   3.687   3.121
12434WAT     H137544   5.064   3.748   3.189
12434WAT     H237545   5.175   3.734   3.070
12435WAT      O37546   3.455   3.570   9.748
12435WAT     H137547   3.428   3.478   9.777
12435WAT     H237548   3.414   3.638   9.809
12436WAT      O37549   5.348   8.343   9.234
12436WAT     H137550   5.279   8.305   9.173
12436WAT     H237551   5.417   8.273   9.254
12437WAT      O37552   6.175   0.178   8.348
12437WAT     H137553   6.243   0.113   8.314
12437WAT     H237554   6.128   0.220   8.270
12438WAT      O37555   5.329   1.674   4.655
12438WAT     H137556   5.364   1.768   4.657
12438WAT     H237557   5.230   1.676   4.669
12439WAT      O37558   8.567   0.808   2.334
12439WAT     H137559   8.661   0.802   2.366
12439WAT     H237560   8.550   0.735   2.268
12440WAT      O37561   5.103   8.561   9.113
12440WAT     H137562   5.131   8.627   9.183
12440WAT     H237563   5.029   8.600   9.058
12441WAT      O37564   9.382   5.705   1.437
12441WAT     H137565   9.357   5.791   1.481
12441WAT     H237566   9.421   5.643   1.506
12442WAT      O37567   0.013   3.157   0.182
12442WAT     H137568   0.062   3.132   0.099
12442WAT     H237569   0.023   3.083   0.249
12443WAT      O37570   1.527   3.976   0.056
12443WAT     H137571   1.587   3.898   0.073
12443WAT     H237572   1.520   4.032   0.139
12444WAT      O37573   6.649   7.663   8.223
12444WAT     H137574   6.664   7.758   8.194
12444WAT     H237575   6.707   7.602   8.169
12445WAT      O37576   1.065   5.275   6.542
12445WAT     H137577   0.986   5.313   6.588
12445WAT     H237578   1.105   5.344   6.481
12446WAT      O37579   7.308   7.964   7.835
12446WAT     H137580   7.291   7.944   7.932
12446WAT     H237581   7.229   7.935   7.781
12447WAT      O37582   9.294   7.877   4.973
12447WAT     H137583   9.209   7.825   4.973
12447WAT     H237584   9.313   7.909   4.881
12448WAT      O37585   5.245   4.283   0.875
12448WAT     H137586   5.238   4.184   0.861
12448WAT     H237587   5.163   4.328   0.840
12449WAT      O37588   9.650   6.250   7.581
12449WAT     H137589   9.706   6.332   7.587
12449WAT     H237590   9.633   6.228   7.485
12450WAT      O37591   6.220   2.372   8.797
12450WAT     H137592   6.277   2.420   8.864
12450WAT     H237593   6.162   2.437   8.749
12451WAT      O37594   5.345   1.351   4.269
12451WAT     H137595   5.377   1.408   4.344
12451WAT     H237596   5.278   1.285   4.303
12452WAT      O37597   5.649   1.992   7.424
12452WAT     H137598   5.732   2.033   7.386
12452WAT     H237599   5.649   2.003   7.524
12453WAT      O37600   2.665   4.751   5.655
12453WAT     H137601   2.570   4.737   5.627
12453WAT     H237602   2.721   4.773   5.575
12454WAT      O37603   3.583   3.925   3.746
12454WAT     H137604   3.532   4.008   3.771
12454WAT     H237605   3.613   3.878   3.829
12455WAT      O37606   8.828   3.840   3.319
12455WAT     H137607   8.735   3.856   3.285
12455WAT     H237608   8.880   3.925   3.314
12456WAT      O37609   0.834   0.365   4.324
12456WAT     H137610   0.806   0.332   4.234
12456WAT     H237611   0.934   0.367   4.329
12457WAT      O37612   4.537   7.333   1.135
12457WAT     H137613   4.524   7.291   1.045
12457WAT     H237614   4.503   7.427   1.133
12458WAT      O37615   5.247   1.983   4.500
12458WAT     H137616   5.299   2.038   4.434
12458WAT     H237617   5.299   1.976   4.585
12459WAT      O37618   7.810   3.129   4.469
12459WAT     H137619   7.904   3.160   4.480
12459WAT     H237620   7.807   3.052   4.406
12460WAT      O37621   5.887   7.852   6.530
12460WAT     H137622   5.798   7.835   6.487
12460WAT     H237623   5.942   7.769   6.525
12461WAT      O37624   3.183   0.531   5.542
12461WAT     H137625   3.207   0.592   5.617
12461WAT     H237626   3.115   0.574   5.484
12462WAT      O37627   9.671   1.916   1.827
12462WAT     H137628   9.604   1.986   1.803
12462WAT     H237629   9.694   1.923   1.924
12463WAT      O37630   2.718   9.626   7.215
12463WAT     H137631   2.750   9.539   7.252
12463WAT     H237632   2.725   9.697   7.286
12464WAT      O37633   9.673   6.715   0.034
12464WAT     H137634   9.734   6.787   0.068
12464WAT     H237635   9.579   6.736   0.060
12465WAT      O37636   9.088   6.491   4.633
12465WAT     H137637   9.086   6.406   4.579
12465WAT     H237638   8.996   6.509   4.669
12466WAT      O37639   0.680   0.384   8.613
12466WAT     H137640   0.704   0.480   8.630
12466WAT     H237641   0.730   0.351   8.533
12467WAT      O37642   3.003   8.432   6.078
12467WAT     H137643   3.015   8.472   6.169
12467WAT     H237644   3.091   8.422   6.033
12468WAT      O37645   4.378   1.550   1.010
12468WAT     H137646   4.338   1.535   0.920
12468WAT     H237647   4.386   1.463   1.058
12469WAT      O37648   0.958   4.160   1.910
12469WAT     H137649   0.940   4.106   1.828
12469WAT     H237650   0.872   4.182   1.956
12470WAT      O37651   5.622   6.522   6.341
12470WAT     H137652   5.613   6.565   6.252
12470WAT     H237653   5.698   6.458   6.341
12471WAT      O37654   8.238   3.063   8.372
12471WAT     H137655   8.258   3.161   8.359
12471WAT     H237656   8.148   3.053   8.416
12472WAT      O37657   8.946   3.360   8.527
12472WAT     H137658   8.863   3.307   8.511
12472WAT     H237659   8.951   3.435   8.461
12473WAT      O37660   2.379   5.708   3.938
12473WAT     H137661   2.362   5.612   3.916
12473WAT     H237662   2.373   5.762   3.854
12474WAT      O37663   7.949   3.413   4.898
12474WAT     H137664   7.878   3.347   4.873
12474WAT     H237665   7.909   3.483   4.958
12475WAT      O37666   1.818   6.000   1.173
12475WAT     H137667   1.790   5.971   1.081
12475WAT     H237668   1.890   5.940   1.207
12476WAT      O37669   2.032   7.526   7.643
12476WAT     H137670   2.106   7.494   7.701
12476WAT     H237671   2.070   7.581   7.568
12477WAT      O37672   2.455   4.416   1.164
12477WAT     H137673   2.471   4.338   1.225
12477WAT     H237674   2.376   4.395   1.105
12478WAT      O37675   9.199   8.426   1.214
12478WAT     H137676   9.180   8.458   1.307
12478WAT     H237677   9.129   8.461   1.151
12479WAT      O37678   9.774   6.356   7.975
12479WAT     H137679   9.727   6.291   7.916
12479WAT     H237680   9.760   6.449   7.940
12480WAT      O37681   4.533   6.840   5.376
12480WAT     H137682   4.527   6.741   5.365
12480WAT     H237683   4.594   6.878   5.306
12481WAT      O37684   1.216   4.722   0.555
12481WAT     H137685   1.151   4.650   0.580
12481WAT     H237686   1.269   4.692   0.476
12482WAT      O37687   9.879   1.416   9.056
12482WAT     H137688   9.817   1.341   9.081
12482WAT     H237689   9.885   1.423   8.956
12483WAT      O37690   8.858   1.821   0.465
12483WAT     H137691   8.792   1.759   0.423
12483WAT     H237692   8.945   1.817   0.415
12484WAT      O37693   6.076   5.310   7.465
12484WAT     H137694   6.001   5.371   7.441
12484WAT     H237695   6.042   5.236   7.522
12485WAT      O37696   5.041   0.781   8.992
12485WAT     H137697   4.997   0.860   9.033
12485WAT     H237698   4.987   0.699   9.009
12486WAT      O37699   1.501   1.051   4.433
12486WAT     H137700   1.516   1.137   4.384
12486WAT     H237701   1.486   1.070   4.530
12487WAT      O37702   1.944   9.621   0.051
12487WAT     H137703   1.849   9.609   0.024
12487WAT     H237704   1.961   9.717   0.072
12488WAT      O37705   9.425   6.561   9.094
12488WAT     H137706   9.476   6.586   9.176
12488WAT     H237707   9.400   6.644   9.044
12489WAT      O37708   8.857   5.263   1.881
12489WAT     H137709   8.891   5.172   1.905
12489WAT     H237710   8.842   5.269   1.782
12490WAT      O37711   7.011   1.315   0.586
12490WAT     H137712   7.041   1.408   0.609
12490WAT     H237713   7.081   1.249   0.613
12491WAT      O37714   6.715   2.090   2.047
12491WAT     H137715   6.755   2.003   2.077
12491WAT     H237716   6.668   2.134   2.124
12492WAT      O37717   2.756   8.454   2.637
12492WAT     H137718   2.794   8.470   2.546
12492WAT     H237719   2.770   8.358   2.663
12493WAT      O37720   8.859   8.838   4.019
12493WAT     H137721   8.839   8.875   3.929
12493WAT     H237722   8.862   8.738   4.014
12494WAT      O37723   0.503   7.212   1.866
12494WAT     H137724   0.404   7.201   1.858
12494WAT     H237725   0.539   7.256   1.784
12495WAT      O37726   1.555   4.536   5.545
12495WAT     H137727   1.550   4.441   5.576
12495WAT     H237728   1.650   4.568   5.553
12496WAT      O37729   0.957   1.958   5.843
12496WAT     H137730   1.037   1.964   5.783
12496WAT     H237731   0.905   1.875   5.822
12497WAT      O37732   5.100   7.277   3.440
12497WAT     H137733   5.014   7.289   3.490
12497WAT     H237734   5.172   7.248   3.504
12498WAT      O37735   2.394   1.296   4.254
12498WAT     H137736   2.416   1.371   4.316
12498WAT     H237737   2.349   1.223   4.305
12499WAT      O37738   3.114   5.609   4.074
12499WAT     H137739   3.042   5.592   4.141
12499WAT     H237740   3.075   5.608   3.982
12500WAT      O37741   0.477   3.410   8.033
12500WAT     H137742   0.520   3.468   8.102
12500WAT     H237743   0.378   3.420   8.037
12501WAT      O37744   6.908   1.487   3.897
12501WAT     H137745   6.927   1.538   3.981
12501WAT     H237746   6.893   1.551   3.822
12502WAT      O37747   5.427   0.218   2.425
12502WAT     H137748   5.346   0.159   2.419
12502WAT     H237749   5.413   0.287   2.496
12503WAT      O37750   9.460   8.226   0.692
12503WAT     H137751   9.527   8.280   0.641
12503WAT     H237752   9.506   8.170   0.760
12504WAT      O37753   4.091   5.309   7.501
12504WAT     H137754   4.108   5.281   7.406
12504WAT     H237755   4.177   5.338   7.543
12505WAT      O37756   0.014   6.799   7.438
12505WAT     H137757   0.006   6.702   7.417
12505WAT     H237758   0.075   6.843   7.372
12506WAT      O37759   0.035   7.117   5.704
12506WAT     H137760   0.083   7.166   5.777
12506WAT     H237761   0.001   7.030   5.739
12507WAT      O37762   1.236   1.821   6.063
12507WAT     H137763   1.142   1.844   6.086
12507WAT     H237764   1.237   1.745   5.998
12508WAT      O37765   9.819   2.220   3.725
12508WAT     H137766   9.833   2.122   3.743
12508WAT     H237767   9.821   2.236   3.627
12509WAT      O37768   4.225   4.294   0.069
12509WAT     H137769   4.174   4.208   0.079
12509WAT     H237770   4.312   4.286   0.116
12510WAT      O37771   2.524   5.292   6.734
12510WAT     H137772   2.485   5.224   6.672
12510WAT     H237773   2.517   5.260   6.828
12511WAT      O37774   5.777   9.004   1.371
12511WAT     H137775   5.824   8.966   1.451
12511WAT     H237776   5.741   9.094   1.394
12512WAT      O37777   8.430   3.419   0.505
12512WAT     H137778   8.370   3.366   0.565
12512WAT     H237779   8.493   3.357   0.458
12513WAT      O37780   9.119   3.818   6.326
12513WAT     H137781   9.190   3.843   6.392
12513WAT     H237782   9.159   3.810   6.234
12514WAT      O37783   8.968   6.826   8.330
12514WAT     H137784   8.998   6.859   8.420
12514WAT     H237785   9.041   6.840   8.263
12515WAT      O37786   3.553   6.877   4.320
12515WAT     H137787   3.535   6.952   4.383
12515WAT     H237788   3.651   6.874   4.300
12516WAT      O37789   2.585   6.929   1.275
12516WAT     H137790   2.565   7.027   1.271
12516WAT     H237791   2.550   6.884   1.193
12517WAT      O37792   8.449   9.809   4.226
12517WAT     H137793   8.390   9.755   4.286
12517WAT     H237794   8.393   9.877   4.178
12518WAT      O37795   1.556   4.179   1.877
12518WAT     H137796   1.521   4.197   1.969
12518WAT     H237797   1.536   4.258   1.818
12519WAT      O37798   4.997   4.005   9.851
12519WAT     H137799   5.064   4.051   9.909
12519WAT     H237800   4.951   4.072   9.793
12520WAT      O37801   0.927   2.073   6.855
12520WAT     H137802   0.980   2.140   6.907
12520WAT     H237803   0.971   1.983   6.863
12521WAT      O37804   4.459   6.055   5.973
12521WAT     H137805   4.414   6.089   5.891
12521WAT     H237806   4.391   6.029   6.041
12522WAT      O37807   1.660   4.544   5.890
12522WAT     H137808   1.647   4.589   5.802
12522WAT     H237809   1.578   4.556   5.946
12523WAT      O37810   3.256   0.495   1.665
12523WAT     H137811   3.290   0.454   1.581
12523WAT     H237812   3.316   0.468   1.741
12524WAT      O37813   5.746   7.431   8.998
12524WAT     H137814   5.824   7.442   8.937
12524WAT     H237815   5.726   7.334   9.011
12525WAT      O37816   9.485   3.784   0.280
12525WAT     H137817   9.533   3.741   0.356
12525WAT     H237818   9.551   3.831   0.221
12526WAT      O37819   0.893   2.590   1.107
12526WAT     H137820   0.976   2.623   1.152
12526WAT     H237821   0.822   2.660   1.112
12527WAT      O37822   8.120   8.915   0.066
12527WAT     H137823   8.021   8.912   0.082
12527WAT     H237824   8.144   8.850  -0.007
12528WAT      O37825   5.564   0.111   8.075
12528WAT     H137826   5.658   0.096   8.047
12528WAT     H237827   5.516   0.165   8.006
12529WAT      O37828   0.660   8.183   4.352
12529WAT     H137829   0.686   8.103   4.406
12529WAT     H237830   0.600   8.155   4.277
12530WAT      O37831   2.673   0.425   1.037
12530WAT     H137832   2.697   0.512   1.080
12530WAT     H237833   2.589   0.437   0.984
12531WAT      O37834   4.441   7.290   8.172
12531WAT     H137835   4.360   7.244   8.137
12531WAT     H237836   4.419   7.332   8.260
12532WAT      O37837   5.611   8.854   4.036
12532WAT     H137838   5.661   8.801   3.967
12532WAT     H237839   5.597   8.797   4.117
12533WAT      O37840   5.958   5.196   2.493
12533WAT     H137841   5.949   5.109   2.444
12533WAT     H237842   6.001   5.179   2.582
12534WAT      O37843   4.214   1.701   4.046
12534WAT     H137844   4.200   1.627   4.112
12534WAT     H237845   4.299   1.749   4.068
12535WAT      O37846   6.106   0.193   3.430
12535WAT     H137847   6.010   0.219   3.419
12535WAT     H237848   6.117   0.095   3.412
12536WAT      O37849   3.353   6.856   2.061
12536WAT     H137850   3.305   6.819   1.981
12536WAT     H237851   3.308   6.940   2.091
12537WAT      O37852   7.351   6.859   7.356
12537WAT     H137853   7.303   6.807   7.426
12537WAT     H237854   7.437   6.813   7.333
12538WAT      O37855   8.262   6.998   6.878
12538WAT     H137856   8.182   7.029   6.928
12538WAT     H237857   8.344   7.011   6.934
12539WAT      O37858   1.589   4.849   2.511
12539WAT     H137859   1.605   4.760   2.554
12539WAT     H237860   1.491   4.868   2.508
12540WAT      O37861   9.418   3.363   2.743
12540WAT     H137862   9.457   3.454   2.758
12540WAT     H237863   9.462   3.320   2.664
12541WAT      O37864   9.383   8.233   9.884
12541WAT     H137865   9.469   8.246   9.837
12541WAT     H237866   9.344   8.144   9.861
12542WAT      O37867   4.088   3.763   8.642
12542WAT     H137868   4.067   3.668   8.617
12542WAT     H237869   4.005   3.805   8.680
12543WAT      O37870   1.496   0.059   5.751
12543WAT     H137871   1.482   0.137   5.691
12543WAT     H237872   1.476   0.085   5.846
12544WAT      O37873   9.367   0.936   7.315
12544WAT     H137874   9.453   0.964   7.358
12544WAT     H237875   9.387   0.894   7.226
12545WAT      O37876   2.055   9.279   9.394
12545WAT     H137877   1.988   9.337   9.442
12545WAT     H237878   2.041   9.184   9.420
12546WAT      O37879   5.477   8.053   9.609
12546WAT     H137880   5.541   7.979   9.592
12546WAT     H237881   5.519   8.141   9.586
12547WAT      O37882   1.105   1.326   8.771
12547WAT     H137883   1.129   1.406   8.716
12547WAT     H237884   1.172   1.253   8.756
12548WAT      O37885   0.125   5.117   0.626
12548WAT     H137886   0.133   5.203   0.676
12548WAT     H237887   0.044   5.068   0.659
12549WAT      O37888   0.573   6.262   6.243
12549WAT     H137889   0.527   6.203   6.310
12549WAT     H237890   0.610   6.206   6.169
12550WAT      O37891   8.799   3.924   0.063
12550WAT     H137892   8.800   3.831   0.098
12550WAT     H237893   8.789   3.988   0.139
12551WAT      O37894   9.178   6.324   5.216
12551WAT     H137895   9.277   6.334   5.207
12551WAT     H237896   9.148   6.369   5.300
12552WAT      O37897   7.258   2.696   0.818
12552WAT     H137898   7.193   2.770   0.800
12552WAT     H237899   7.331   2.731   0.877
12553WAT      O37900   3.531   3.394   3.885
12553WAT     H137901   3.477   3.441   3.955
12553WAT     H237902   3.544   3.455   3.807
12554WAT      O37903   9.173   2.079   1.061
12554WAT     H137904   9.270   2.102   1.071
12554WAT     H237905   9.163   2.012   0.987
12555WAT      O37906   1.165   1.150   0.410
12555WAT     H137907   1.229   1.220   0.442
12555WAT     H237908   1.154   1.158   0.311
12556WAT      O37909   6.705   4.355   6.184
12556WAT     H137910   6.792   4.373   6.230
12556WAT     H237911   6.646   4.435   6.191
12557WAT      O37912   6.970   5.085   5.010
12557WAT     H137913   6.880   5.058   5.045
12557WAT     H237914   7.007   5.157   5.068
12558WAT      O37915   0.420   4.967   1.857
12558WAT     H137916   0.408   4.874   1.889
12558WAT     H237917   0.435   4.968   1.758
12559WAT      O37918   1.929   2.228   3.546
12559WAT     H137919   1.854   2.227   3.613
12559WAT     H237920   1.962   2.135   3.531
12560WAT      O37921   5.510   2.865   7.982
12560WAT     H137922   5.550   2.803   8.050
12560WAT     H237923   5.482   2.812   7.902
12561WAT      O37924   9.480   1.065   8.682
12561WAT     H137925   9.470   0.990   8.617
12561WAT     H237926   9.404   1.129   8.670
12562WAT      O37927   1.182   5.527   8.619
12562WAT     H137928   1.083   5.534   8.603
12562WAT     H237929   1.198   5.479   8.705
12563WAT      O37930   6.189   0.611   4.341
12563WAT     H137931   6.230   0.667   4.269
12563WAT     H237932   6.204   0.514   4.320
12564WAT      O37933   0.275   1.493   0.189
12564WAT     H137934   0.178   1.501   0.212
12564WAT     H237935   0.292   1.402   0.149
12565WAT      O37936   6.810   2.746   5.500
12565WAT     H137937   6.824   2.674   5.568
12565WAT     H237938   6.723   2.792   5.518
12566WAT      O37939   5.125   0.711   4.553
12566WAT     H137940   5.086   0.796   4.589
12566WAT     H237941   5.070   0.633   4.584
12567WAT      O37942   0.500   3.800   2.460
12567WAT     H137943   0.495   3.750   2.374
12567WAT     H237944   0.487   3.898   2.442
12568WAT      O37945   4.520   3.374   5.134
12568WAT     H137946   4.445   3.342   5.192
12568WAT     H237947   4.607   3.341   5.172
12569WAT      O37948   2.285   6.520   4.790
12569WAT     H137949   2.226   6.526   4.871
12569WAT     H237950   2.232   6.545   4.709
12570WAT      O37951   7.743   5.828   2.184
12570WAT     H137952   7.740   5.806   2.087
12570WAT     H237953   7.747   5.743   2.237
12571WAT      O37954   3.349   0.864   6.935
12571WAT     H137955   3.278   0.800   6.965
12571WAT     H237956   3.432   0.814   6.913
12572WAT      O37957   7.666   7.926   6.375
12572WAT     H137958   7.670   7.922   6.275
12572WAT     H237959   7.705   8.013   6.405
12573WAT      O37960   0.323   3.072   8.500
12573WAT     H137961   0.329   3.049   8.597
12573WAT     H237962   0.407   3.118   8.471
12574WAT      O37963   2.130   9.137   6.327
12574WAT     H137964   2.104   9.040   6.328
12574WAT     H237965   2.221   9.147   6.287
12575WAT      O37966   5.920   7.392   3.838
12575WAT     H137967   5.975   7.355   3.765
12575WAT     H237968   5.964   7.474   3.875
12576WAT      O37969   5.642   1.814   4.672
12576WAT     H137970   5.557   1.867   4.665
12576WAT     H237971   5.718   1.870   4.638
12577WAT      O37972   8.340   1.545   3.164
12577WAT     H137973   8.392   1.493   3.232
12577WAT     H237974   8.390   1.628   3.139
12578WAT      O37975   9.455   0.328   4.578
12578WAT     H137976   9.554   0.337   4.573
12578WAT     H237977   9.425   0.255   4.516
12579WAT      O37978   0.035   4.414   0.694
12579WAT     H137979  -0.045   4.355   0.705
12579WAT     H237980   0.103   4.390   0.762
12580WAT      O37981   6.146   5.702   2.589
12580WAT     H137982   6.234   5.730   2.628
12580WAT     H237983   6.085   5.670   2.662
12581WAT      O37984   8.325   4.904   7.828
12581WAT     H137985   8.329   4.844   7.907
12581WAT     H237986   8.251   4.874   7.767
12582WAT      O37987   0.082   0.977   9.457
12582WAT     H137988   0.083   0.994   9.555
12582WAT     H237989  -0.009   0.949   9.428
12583WAT      O37990   1.792   8.838   9.647
12583WAT     H137991   1.863   8.789   9.596
12583WAT     H237992   1.814   8.837   9.744
12584WAT      O37993   6.961   6.373   9.280
12584WAT     H137994   6.956   6.291   9.223
12584WAT     H237995   6.902   6.362   9.360
12585WAT      O37996   7.687   2.513   5.555
12585WAT     H137997   7.609   2.456   5.578
12585WAT     H237998   7.702   2.581   5.626
12586WAT      O37999   5.671   8.512   4.996
12586WAT     H138000   5.678   8.599   4.946
12586WAT     H238001   5.577   8.500   5.027
12587WAT      O38002   1.725   3.004   1.151
12587WAT     H138003   1.652   2.956   1.102
12587WAT     H238004   1.737   2.963   1.242
12588WAT      O38005   8.179   2.821   5.723
12588WAT     H138006   8.252   2.887   5.703
12588WAT     H238007   8.098   2.870   5.755
12589WAT      O38008   5.407   8.536   9.030
12589WAT     H138009   5.380   8.527   9.126
12589WAT     H238010   5.336   8.498   8.971
12590WAT      O38011   3.379   9.729   4.820
12590WAT     H138012   3.304   9.666   4.841
12590WAT     H238013   3.357   9.820   4.856
12591WAT      O38014   6.469   9.161   8.141
12591WAT     H138015   6.541   9.096   8.166
12591WAT     H238016   6.470   9.238   8.206
12592WAT      O38017   0.218   7.753   0.019
12592WAT     H138018   0.314   7.741  -0.008
12592WAT     H238019   0.198   7.694   0.097
12593WAT      O38020   3.489   5.893   2.087
12593WAT     H138021   3.548   5.950   2.030
12593WAT     H238022   3.467   5.808   2.038
12594WAT      O38023   9.772   4.377   5.133
12594WAT     H138024   9.784   4.303   5.199
12594WAT     H238025   9.823   4.457   5.162
12595WAT      O38026   0.693   6.137   4.743
12595WAT     H138027   0.639   6.180   4.815
12595WAT     H238028   0.774   6.191   4.724
12596WAT      O38029   1.068   5.974   2.328
12596WAT     H138030   1.092   6.009   2.419
12596WAT     H238031   1.105   5.882   2.317
12597WAT      O38032   3.791   8.428   4.766
12597WAT     H138033   3.734   8.349   4.788
12597WAT     H238034   3.884   8.397   4.747
12598WAT      O38035   0.693   5.008   1.630
12598WAT     H138036   0.594   4.993   1.634
12598WAT     H238037   0.718   5.036   1.537
12599WAT      O38038   4.935   8.175   3.330
12599WAT     H138039   4.838   8.151   3.320
12599WAT     H238040   4.988   8.093   3.346
12600WAT      O38041   5.520   9.821   3.755
12600WAT     H138042   5.578   9.899   3.778
12600WAT     H238043   5.543   9.744   3.816
12601WAT      O38044   0.430   5.236   2.935
12601WAT     H138045   0.521   5.225   2.896
12601WAT     H238046   0.436   5.286   3.021
12602WAT      O38047   8.096   2.435   1.683
12602WAT     H138048   8.151   2.354   1.662
12602WAT     H238049   8.149   2.517   1.659
12603WAT      O38050   3.275   7.803   9.061
12603WAT     H138051   3.297   7.877   9.124
12603WAT     H238052   3.181   7.813   9.030
12604WAT      O38053   5.324   7.762   9.852
12604WAT     H138054   5.419   7.773   9.821
12604WAT     H238055   5.316   7.796   9.945
12605WAT      O38056   7.995   0.259   5.118
12605WAT     H138057   8.079   0.305   5.149
12605WAT     H238058   7.989   0.265   5.019
12606WAT      O38059   6.325   0.532   1.242
12606WAT     H138060   6.262   0.591   1.293
12606WAT     H238061   6.315   0.550   1.144
12607WAT      O38062   7.352   4.848   6.693
12607WAT     H138063   7.293   4.775   6.658
12607WAT     H238064   7.419   4.873   6.622
12608WAT      O38065   0.432   0.082   4.718
12608WAT     H138066   0.510   0.112   4.772
12608WAT     H238067   0.446  -0.011   4.687
12609WAT      O38068   2.955   2.789   8.513
12609WAT     H138069   2.888   2.719   8.489
12609WAT     H238070   2.934   2.825   8.604
12610WAT      O38071   3.320   1.600   8.127
12610WAT     H138072   3.388   1.660   8.085
12610WAT     H238073   3.233   1.609   8.077
12611WAT      O38074   9.862   8.874   9.672
12611WAT     H138075   9.875   8.793   9.615
12611WAT     H238076   9.810   8.850   9.753
12612WAT      O38077   2.540   8.765   6.669
12612WAT     H138078   2.445   8.786   6.644
12612WAT     H238079   2.560   8.670   6.647
12613WAT      O38080   6.070   1.190   1.675
12613WAT     H138081   6.101   1.096   1.686
12613WAT     H238082   5.986   1.191   1.621
12614WAT      O38083   5.048   4.456   8.779
12614WAT     H138084   5.101   4.534   8.745
12614WAT     H238085   5.109   4.378   8.792
12615WAT      O38086   0.006   4.237   3.029
12615WAT     H138087  -0.060   4.163   3.041
12615WAT     H238088   0.069   4.239   3.107
12616WAT      O38089   7.196   4.485   9.473
12616WAT     H138090   7.287   4.447   9.458
12616WAT     H238091   7.138   4.466   9.394
12617WAT      O38092   4.456   1.444   8.900
12617WAT     H138093   4.504   1.466   8.985
12617WAT     H238094   4.418   1.352   8.906
12618WAT      O38095   1.627   6.087   5.227
12618WAT     H138096   1.676   6.004   5.253
12618WAT     H238097   1.669   6.128   5.146
12619WAT      O38098   3.529   2.318   6.681
12619WAT     H138099   3.493   2.243   6.625
12619WAT     H238100   3.481   2.320   6.768
12620WAT      O38101   0.461   7.107   2.276
12620WAT     H138102   0.540   7.167   2.290
12620WAT     H238103   0.489   7.012   2.289
12621WAT      O38104   1.506   3.143   7.374
12621WAT     H138105   1.419   3.098   7.357
12621WAT     H238106   1.508   3.232   7.328
12622WAT      O38107   3.268   5.674   8.455
12622WAT     H138108   3.238   5.763   8.489
12622WAT     H238109   3.243   5.666   8.358
12623WAT      O38110   0.798   5.027   6.556
12623WAT     H138111   0.800   4.964   6.478
12623WAT     H238112   0.869   5.000   6.621
12624WAT      O38113   4.971   4.567   1.978
12624WAT     H138114   5.036   4.629   1.934
12624WAT     H238115   5.019   4.484   2.006
12625WAT      O38116   7.210   1.294   4.063
12625WAT     H138117   7.130   1.271   4.008
12625WAT     H238118   7.186   1.288   4.160
12626WAT      O38119   1.049   8.222   5.036
12626WAT     H138120   1.010   8.200   4.947
12626WAT     H238121   1.099   8.308   5.030
12627WAT      O38122   4.703   7.783   2.518
12627WAT     H138123   4.712   7.877   2.484
12627WAT     H238124   4.606   7.764   2.534
12628WAT      O38125   7.690   1.634   0.615
12628WAT     H138126   7.647   1.590   0.536
12628WAT     H238127   7.620   1.680   0.670
12629WAT      O38128   9.442   5.731   7.184
12629WAT     H138129   9.540   5.738   7.164
12629WAT     H238130   9.392   5.800   7.131
12630WAT      O38131   0.873   9.546   9.837
12630WAT     H138132   0.865   9.478   9.764
12630WAT     H238133   0.944   9.518   9.901
12631WAT      O38134   6.898   7.563   5.852
12631WAT     H138135   6.834   7.585   5.926
12631WAT     H238136   6.992   7.571   5.886
12632WAT      O38137   7.622   6.993   7.062
12632WAT     H138138   7.721   6.978   7.062
12632WAT     H238139   7.576   6.908   7.034
12633WAT      O38140   9.545   4.548   1.690
12633WAT     H138141   9.492   4.500   1.759
12633WAT     H238142   9.512   4.524   1.599
12634WAT      O38143   9.278   1.843   6.296
12634WAT     H138144   9.321   1.821   6.383
12634WAT     H238145   9.204   1.909   6.311
12635WAT      O38146   2.846   1.216   7.259
12635WAT     H138147   2.929   1.211   7.314
12635WAT     H238148   2.866   1.260   7.172
12636WAT      O38149   9.178   9.439   2.550
12636WAT     H138150   9.262   9.392   2.578
12636WAT     H238151   9.199   9.508   2.481
12637WAT      O38152   8.691   5.036   6.928
12637WAT     H138153   8.656   4.948   6.959
12637WAT     H238154   8.730   5.085   7.006
12638WAT      O38155   2.082   0.458   7.954
12638WAT     H138156   2.158   0.501   7.906
12638WAT     H238157   2.111   0.370   7.991
12639WAT      O38158   0.318   1.651   9.852
12639WAT     H138159   0.413   1.678   9.868
12639WAT     H238160   0.292   1.582   9.920
12640WAT      O38161   9.353   7.774   6.778
12640WAT     H138162   9.387   7.819   6.695
12640WAT     H238163   9.320   7.683   6.756
12641WAT      O38164   7.503   5.065   8.482
12641WAT     H138165   7.514   5.040   8.386
12641WAT     H238166   7.556   5.002   8.539
12642WAT      O38167   6.298   4.418   4.372
12642WAT     H138168   6.217   4.467   4.406
12642WAT     H238169   6.281   4.386   4.279
12643WAT      O38170   6.204   4.709   2.527
12643WAT     H138171   6.204   4.734   2.624
12643WAT     H238172   6.132   4.642   2.510
12644WAT      O38173   3.355   3.298   7.895
12644WAT     H138174   3.406   3.216   7.869
12644WAT     H238175   3.291   3.322   7.822
12645WAT      O38176   2.105   1.078   2.915
12645WAT     H138177   2.194   1.116   2.942
12645WAT     H238178   2.041   1.088   2.990
12646WAT      O38179   1.115   5.081   0.271
12646WAT     H138180   1.079   5.035   0.353
12646WAT     H238181   1.137   5.176   0.294
12647WAT      O38182   0.194   6.590   9.496
12647WAT     H138183   0.190   6.516   9.429
12647WAT     H238184   0.252   6.563   9.572
12648WAT      O38185   9.571   4.380   6.733
12648WAT     H138186   9.633   4.382   6.811
12648WAT     H238187   9.523   4.468   6.727
12649WAT      O38188   4.150   7.785   4.354
12649WAT     H138189   4.198   7.832   4.280
12649WAT     H238190   4.051   7.791   4.338
12650WAT      O38191   8.138   3.311   5.162
12650WAT     H138192   8.183   3.289   5.075
12650WAT     H238193   8.047   3.268   5.164
12651WAT      O38194   3.409   1.265   5.832
12651WAT     H138195   3.454   1.192   5.781
12651WAT     H238196   3.414   1.350   5.779
12652WAT      O38197   3.036   9.476   9.370
12652WAT     H138198   3.041   9.427   9.457
12652WAT     H238199   3.085   9.425   9.300
12653WAT      O38200   4.955   1.766   0.920
12653WAT     H138201   4.967   1.686   0.860
12653WAT     H238202   4.985   1.848   0.872
12654WAT      O38203   3.168   4.982   5.927
12654WAT     H138204   3.144   5.048   5.997
12654WAT     H238205   3.266   4.988   5.908
12655WAT      O38206   0.364   6.602   3.114
12655WAT     H138207   0.310   6.681   3.144
12655WAT     H238208   0.331   6.520   3.162
12656WAT      O38209   7.790   8.249   6.095
12656WAT     H138210   7.851   8.173   6.072
12656WAT     H238211   7.838   8.335   6.081
12657WAT      O38212   8.495   4.125   9.693
12657WAT     H138213   8.533   4.073   9.616
12657WAT     H238214   8.395   4.115   9.693
12658WAT      O38215   2.596   0.862   5.517
12658WAT     H138216   2.669   0.880   5.582
12658WAT     H238217   2.592   0.764   5.498
12659WAT      O38218   1.478   1.720   6.474
12659WAT     H138219   1.436   1.671   6.397
12659WAT     H238220   1.445   1.814   6.475
12660WAT      O38221   6.862   6.865   4.500
12660WAT     H138222   6.829   6.908   4.415
12660WAT     H238223   6.927   6.792   4.477
12661WAT      O38224   9.302   9.773   8.311
12661WAT     H138225   9.382   9.714   8.305
12661WAT     H238226   9.265   9.789   8.220
12662WAT      O38227   1.462   1.564   8.367
12662WAT     H138228   1.419   1.654   8.369
12662WAT     H238229   1.515   1.554   8.282
12663WAT      O38230   5.937   0.606   8.516
12663WAT     H138231   5.995   0.613   8.597
12663WAT     H238232   5.887   0.519   8.518
12664WAT      O38233   0.815   0.847   1.527
12664WAT     H138234   0.794   0.887   1.438
12664WAT     H238235   0.913   0.824   1.532
12665WAT      O38236   3.557   7.886   9.572
12665WAT     H138237   3.503   7.968   9.554
12665WAT     H238238   3.497   7.814   9.606
12666WAT      O38239   0.736   2.655   0.622
12666WAT     H138240   0.834   2.674   0.620
12666WAT     H238241   0.708   2.626   0.714
12667WAT      O38242   9.154   4.853   9.786
12667WAT     H138243   9.235   4.819   9.836
12667WAT     H238244   9.159   4.953   9.779
12668WAT      O38245   6.772   7.190   0.305
12668WAT     H138246   6.729   7.276   0.275
12668WAT     H238247   6.782   7.129   0.227
12669WAT      O38248   7.834   5.523   8.919
12669WAT     H138249   7.776   5.522   9.001
12669WAT     H238250   7.806   5.598   8.859
12670WAT      O38251   6.236   6.051   0.222
12670WAT     H138252   6.250   6.143   0.185
12670WAT     H238253   6.325   6.009   0.240
12671WAT      O38254   0.494   2.634   3.125
12671WAT     H138255   0.568   2.589   3.176
12671WAT     H238256   0.501   2.609   3.029
12672WAT      O38257   8.092   1.575   2.979
12672WAT     H138258   8.099   1.514   3.059
12672WAT     H238259   8.179   1.575   2.930
12673WAT      O38260   7.948   8.257   2.315
12673WAT     H138261   7.895   8.342   2.305
12673WAT     H238262   7.895   8.181   2.278
12674WAT      O38263   6.457   9.204   1.631
12674WAT     H138264   6.487   9.112   1.607
12674WAT     H238265   6.537   9.263   1.642
12675WAT      O38266   4.606   5.800   0.363
12675WAT     H138267   4.705   5.810   0.375
12675WAT     H238268   4.566   5.890   0.344
12676WAT      O38269   0.572   0.764   2.126
12676WAT     H138270   0.572   0.856   2.165
12676WAT     H238271   0.662   0.744   2.088
12677WAT      O38272   6.122   7.660   8.767
12677WAT     H138273   6.089   7.713   8.845
12677WAT     H238274   6.104   7.711   8.682
12678WAT      O38275   4.489   7.452   5.400
12678WAT     H138276   4.439   7.398   5.468
12678WAT     H238277   4.423   7.494   5.337
12679WAT      O38278   9.828   5.566   4.456
12679WAT     H138279   9.809   5.664   4.445
12679WAT     H238280   9.742   5.515   4.448
12680WAT      O38281   9.838   6.673   6.605
12680WAT     H138282   9.931   6.637   6.615
12680WAT     H238283   9.822   6.743   6.675
12681WAT      O38284   0.477   1.491   0.652
12681WAT     H138285   0.402   1.549   0.682
12681WAT     H238286   0.470   1.401   0.696
12682WAT      O38287   5.942   7.606   9.209
12682WAT     H138288   5.938   7.524   9.152
12682WAT     H238289   5.984   7.681   9.158
12683WAT      O38290   4.942   0.347   4.016
12683WAT     H138291   4.844   0.328   4.018
12683WAT     H238292   4.961   0.423   4.078
12684WAT      O38293   4.455   6.277   9.460
12684WAT     H138294   4.409   6.360   9.431
12684WAT     H238295   4.552   6.283   9.437
12685WAT      O38296   0.167   9.271   2.796
12685WAT     H138297   0.088   9.315   2.839
12685WAT     H238298   0.136   9.211   2.723
12686WAT      O38299   6.513   8.470   2.265
12686WAT     H138300   6.474   8.454   2.175
12686WAT     H238301   6.491   8.394   2.326
12687WAT      O38302   7.678   1.637   5.432
12687WAT     H138303   7.627   1.722   5.428
12687WAT     H238304   7.706   1.619   5.527
12688WAT      O38305   1.429   3.163   3.101
12688WAT     H138306   1.425   3.071   3.138
12688WAT     H238307   1.519   3.202   3.116
12689WAT      O38308   2.814   1.283   4.042
12689WAT     H138309   2.747   1.322   3.978
12689WAT     H238310   2.894   1.342   4.046
12690WAT      O38311   4.084   1.318   7.571
12690WAT     H138312   4.157   1.362   7.623
12690WAT     H238313   4.120   1.237   7.524
12691WAT      O38314   8.959   9.289   4.285
12691WAT     H138315   8.934   9.369   4.340
12691WAT     H238316   9.001   9.319   4.200
12692WAT      O38317   9.421   0.576   6.427
12692WAT     H138318   9.367   0.570   6.511
12692WAT     H238319   9.370   0.627   6.358
12693WAT      O38320   1.341   3.231   2.228
12693WAT     H138321   1.299   3.247   2.318
12693WAT     H238322   1.429   3.279   2.224
12694WAT      O38323   9.175   5.657   4.356
12694WAT     H138324   9.212   5.566   4.335
12694WAT     H238325   9.241   5.707   4.413
12695WAT      O38326   2.824   6.172   6.770
12695WAT     H138327   2.863   6.260   6.798
12695WAT     H238328   2.796   6.177   6.674
12696WAT      O38329   3.953   3.202   0.032
12696WAT     H138330   3.889   3.178  -0.040
12696WAT     H238331   3.945   3.300   0.054
12697WAT      O38332   2.186   5.834   0.483
12697WAT     H138333   2.227   5.860   0.395
12697WAT     H238334   2.132   5.751   0.472
12698WAT      O38335   7.190   0.071   5.775
12698WAT     H138336   7.117   0.101   5.713
12698WAT     H238337   7.279   0.089   5.733
12699WAT      O38338   1.782   0.168   6.642
12699WAT     H138339   1.750   0.255   6.679
12699WAT     H238340   1.751   0.093   6.701
12700WAT      O38341   0.514   3.654   3.320
12700WAT     H138342   0.548   3.573   3.368
12700WAT     H238343   0.488   3.724   3.386
12701WAT      O38344   9.309   0.364   7.951
12701WAT     H138345   9.212   0.341   7.963
12701WAT     H238346   9.321   0.463   7.954
12702WAT      O38347   4.945   0.079   3.022
12702WAT     H138348   4.859   0.129   3.030
12702WAT     H238349   4.931  -0.002   2.965
12703WAT      O38350   1.373   4.373   0.020
12703WAT     H138351   1.389   4.335  -0.071
12703WAT     H238352   1.451   4.353   0.079
12704WAT      O38353   1.891   5.672   3.355
12704WAT     H138354   1.885   5.607   3.279
12704WAT     H238355   1.983   5.713   3.356
12705WAT      O38356   2.850   4.054   7.376
12705WAT     H138357   2.766   4.004   7.358
12705WAT     H238358   2.896   4.014   7.456
12706WAT      O38359   9.131   3.393   0.033
12706WAT     H138360   9.212   3.336   0.046
12706WAT     H238361   9.139   3.474   0.090
12707WAT      O38362   8.562   9.436   8.186
12707WAT     H138363   8.613   9.467   8.267
12707WAT     H238364   8.621   9.379   8.129
12708WAT      O38365   5.454   1.788   8.073
12708WAT     H138366   5.548   1.754   8.073
12708WAT     H238367   5.437   1.843   8.155
12709WAT      O38368   3.683   2.970   1.959
12709WAT     H138369   3.774   2.931   1.944
12709WAT     H238370   3.653   3.017   1.876
12710WAT      O38371   2.152   0.556   5.236
12710WAT     H138372   2.145   0.633   5.172
12710WAT     H238373   2.067   0.504   5.235
12711WAT      O38374   1.641   2.879   1.803
12711WAT     H138375   1.654   2.792   1.755
12711WAT     H238376   1.727   2.931   1.803
12712WAT      O38377   8.129   5.595   4.807
12712WAT     H138378   8.055   5.636   4.754
12712WAT     H238379   8.092   5.558   4.892
12713WAT      O38380   2.628   0.732   3.701
12713WAT     H138381   2.689   0.811   3.710
12713WAT     H238382   2.640   0.692   3.610
12714WAT      O38383   5.158   1.129   4.288
12714WAT     H138384   5.216   1.058   4.248
12714WAT     H238385   5.087   1.156   4.223
12715WAT      O38386   5.484   3.642   5.366
12715WAT     H138387   5.394   3.682   5.386
12715WAT     H238388   5.473   3.568   5.300
12716WAT      O38389   1.564   7.106   3.545
12716WAT     H138390   1.619   7.162   3.607
12716WAT     H238391   1.483   7.157   3.516
12717WAT      O38392   6.877   5.797   7.048
12717WAT     H138393   6.906   5.892   7.059
12717WAT     H238394   6.779   5.790   7.067
12718WAT      O38395   0.239   8.822   5.834
12718WAT     H138396   0.293   8.738   5.847
12718WAT     H238397   0.171   8.830   5.907
12719WAT      O38398   8.600   2.325   8.569
12719WAT     H138399   8.517   2.368   8.603
12719WAT     H238400   8.678   2.358   8.622
12720WAT      O38401   9.723   2.782   1.721
12720WAT     H138402   9.814   2.740   1.719
12720WAT     H238403   9.689   2.792   1.627
12721WAT      O38404   6.791   1.341   2.031
12721WAT     H138405   6.786   1.356   1.932
12721WAT     H238406   6.830   1.251   2.050
12722WAT      O38407   3.037   5.453   1.831
12722WAT     H138408   2.979   5.480   1.908
12722WAT     H238409   3.004   5.495   1.747
12723WAT      O38410   2.243   7.258   1.028
12723WAT     H138411   2.249   7.331   0.959
12723WAT     H238412   2.333   7.220   1.046
12724WAT      O38413   6.559   2.057   3.199
12724WAT     H138414   6.518   2.148   3.190
12724WAT     H238415   6.526   2.015   3.284
12725WAT      O38416   9.706   3.024   1.838
12725WAT     H138417   9.734   2.938   1.797
12725WAT     H238418   9.634   3.008   1.905
12726WAT      O38419   8.423   5.375   9.871
12726WAT     H138420   8.471   5.329   9.946
12726WAT     H238421   8.345   5.426   9.908
12727WAT      O38422   8.845   7.170   8.905
12727WAT     H138423   8.850   7.086   8.851
12727WAT     H238424   8.872   7.248   8.848
12728WAT      O38425   3.206   2.755   1.887
12728WAT     H138426   3.303   2.751   1.863
12728WAT     H238427   3.195   2.809   1.970
12729WAT      O38428   1.218   7.608   4.264
12729WAT     H138429   1.277   7.685   4.241
12729WAT     H238430   1.124   7.630   4.242
12730WAT      O38431   0.724   3.895   4.926
12730WAT     H138432   0.684   3.946   5.002
12730WAT     H238433   0.708   3.945   4.841
12731WAT      O38434   9.129   0.309   2.589
12731WAT     H138435   9.058   0.349   2.532
12731WAT     H238436   9.198   0.379   2.609
12732WAT      O38437   9.214   1.435   5.088
12732WAT     H138438   9.183   1.350   5.129
12732WAT     H238439   9.306   1.422   5.049
12733WAT      O38440   7.894   1.959   3.334
12733WAT     H138441   7.975   1.908   3.307
12733WAT     H238442   7.828   1.897   3.377
12734WAT      O38443   0.446   2.045   4.612
12734WAT     H138444   0.377   2.107   4.650
12734WAT     H238445   0.438   1.955   4.656
12735WAT      O38446   3.764   1.066   5.479
12735WAT     H138447   3.735   0.975   5.450
12735WAT     H238448   3.832   1.059   5.552
12736WAT      O38449   0.336   2.835   6.084
12736WAT     H138450   0.414   2.798   6.033
12736WAT     H238451   0.368   2.869   6.173
12737WAT      O38452   8.530   9.074   1.165
12737WAT     H138453   8.560   9.104   1.074
12737WAT     H238454   8.454   9.011   1.157
12738WAT      O38455   4.427   9.451   0.644
12738WAT     H138456   4.339   9.415   0.614
12738WAT     H238457   4.436   9.438   0.743
12739WAT      O38458   1.502   3.022   8.041
12739WAT     H138459   1.427   2.959   8.060
12739WAT     H238460   1.501   3.096   8.108
12740WAT      O38461   8.511   4.452   5.805
12740WAT     H138462   8.580   4.523   5.816
12740WAT     H238463   8.556   4.363   5.799
12741WAT      O38464   5.535   6.882   4.120
12741WAT     H138465   5.554   6.980   4.128
12741WAT     H238466   5.510   6.847   4.210
12742WAT      O38467   4.855   4.558   1.603
12742WAT     H138468   4.805   4.577   1.687
12742WAT     H238469   4.912   4.636   1.579
12743WAT      O38470   9.843   1.055   4.568
12743WAT     H138471   9.924   1.105   4.598
12743WAT     H238472   9.779   1.118   4.524
12744WAT      O38473   7.838   8.333   8.618
12744WAT     H138474   7.823   8.372   8.709
12744WAT     H238475   7.751   8.300   8.581
12745WAT      O38476   1.223   0.651   3.879
12745WAT     H138477   1.184   0.599   3.955
12745WAT     H238478   1.322   0.660   3.892
12746WAT      O38479   5.793   0.808   3.645
12746WAT     H138480   5.859   0.814   3.570
12746WAT     H238481   5.762   0.713   3.654
12747WAT      O38482   3.782   9.701   0.862
12747WAT     H138483   3.845   9.742   0.928
12747WAT     H238484   3.688   9.724   0.888
12748WAT      O38485   8.403   8.548   5.331
12748WAT     H138486   8.377   8.541   5.427
12748WAT     H238487   8.430   8.643   5.310
12749WAT      O38488   0.181   4.267   0.443
12749WAT     H138489   0.252   4.213   0.489
12749WAT     H238490   0.128   4.317   0.511
12750WAT      O38491   3.475   8.345   9.871
12750WAT     H138492   3.455   8.419   9.808
12750WAT     H238493   3.454   8.257   9.827
12751WAT      O38494   9.684   1.302   7.943
12751WAT     H138495   9.603   1.361   7.941
12751WAT     H238496   9.737   1.321   8.026
12752WAT      O38497   9.397   6.157   7.666
12752WAT     H138498   9.483   6.201   7.642
12752WAT     H238499   9.367   6.100   7.589
12753WAT      O38500   5.423   4.992   3.491
12753WAT     H138501   5.436   5.039   3.578
12753WAT     H238502   5.380   4.903   3.507
12754WAT      O38503   2.705   8.448   6.374
12754WAT     H138504   2.643   8.406   6.308
12754WAT     H238505   2.748   8.528   6.333
12755WAT      O38506   8.170   9.197   1.262
12755WAT     H138507   8.235   9.229   1.193
12755WAT     H238508   8.113   9.124   1.224
12756WAT      O38509   7.055   3.593   3.677
12756WAT     H138510   6.977   3.567   3.619
12756WAT     H238511   7.128   3.630   3.619
12757WAT      O38512   8.650   0.694   9.453
12757WAT     H138513   8.706   0.613   9.437
12757WAT     H238514   8.709   0.774   9.467
12758WAT      O38515   1.487   7.206   8.748
12758WAT     H138516   1.584   7.216   8.769
12758WAT     H238517   1.476   7.175   8.653
12759WAT      O38518   0.891   7.738   8.299
12759WAT     H138519   0.963   7.724   8.367
12759WAT     H238520   0.807   7.766   8.345
12760WAT      O38521   8.176   3.319   0.122
12760WAT     H138522   8.203   3.411   0.151
12760WAT     H238523   8.077   3.314   0.114
12761WAT      O38524   5.317   4.230   1.747
12761WAT     H138525   5.274   4.152   1.793
12761WAT     H238526   5.248   4.297   1.720
12762WAT      O38527   3.467   8.118   6.782
12762WAT     H138528   3.400   8.108   6.855
12762WAT     H238529   3.555   8.146   6.821
12763WAT      O38530   0.768   7.239   9.081
12763WAT     H138531   0.741   7.148   9.113
12763WAT     H238532   0.822   7.231   8.997
12764WAT      O38533   2.763   1.891   7.198
12764WAT     H138534   2.707   1.887   7.115
12764WAT     H238535   2.785   1.986   7.219
12765WAT      O38536   3.889   5.471   4.865
12765WAT     H138537   3.947   5.547   4.836
12765WAT     H238538   3.796   5.485   4.832
12766WAT      O38539   2.195   3.706   1.054
12766WAT     H138540   2.108   3.664   1.077
12766WAT     H238541   2.270   3.653   1.094
12767WAT      O38542   5.846   6.946   5.252
12767WAT     H138543   5.875   7.033   5.211
12767WAT     H238544   5.750   6.930   5.229
12768WAT      O38545   3.175   6.094   1.272
12768WAT     H138546   3.225   6.173   1.307
12768WAT     H238547   3.128   6.048   1.348
12769WAT      O38548   3.002   0.105   1.189
12769WAT     H138549   2.905   0.084   1.172
12769WAT     H238550   3.051   0.106   1.102
12770WAT      O38551   3.848   7.686   2.854
12770WAT     H138552   3.794   7.634   2.921
12770WAT     H238553   3.788   7.747   2.803
12771WAT      O38554   0.592   2.627   4.061
12771WAT     H138555   0.519   2.663   4.003
12771WAT     H238556   0.592   2.676   4.148
12772WAT      O38557   0.534   4.343   5.340
12772WAT     H138558   0.623   4.341   5.385
12772WAT     H238559   0.502   4.437   5.334
12773WAT      O38560   0.911   8.570   5.207
12773WAT     H138561   0.999   8.541   5.244
12773WAT     H238562   0.921   8.596   5.111
12774WAT      O38563   0.092   2.619   4.596
12774WAT     H138564   0.001   2.660   4.601
12774WAT     H238565   0.156   2.685   4.557
12775WAT      O38566   0.006   6.397   3.406
12775WAT     H138567  -0.043   6.452   3.473
12775WAT     H238568  -0.027   6.302   3.409
12776WAT      O38569   3.012   2.162   7.281
12776WAT     H138570   3.002   2.139   7.377
12776WAT     H238571   3.063   2.090   7.234
12777WAT      O38572   8.091   8.147   3.176
12777WAT     H138573   8.024   8.217   3.199
12777WAT     H238574   8.087   8.128   3.078
12778WAT      O38575   7.053   0.781   5.495
12778WAT     H138576   6.979   0.718   5.471
12778WAT     H238577   7.060   0.852   5.425
12779WAT      O38578   7.376   7.975   3.076
12779WAT     H138579   7.367   7.899   3.140
12779WAT     H238580   7.470   7.981   3.044
12780WAT      O38581   2.202   7.001   0.887
12780WAT     H138582   2.205   6.923   0.949
12780WAT     H238583   2.231   7.084   0.936
12781WAT      O38584   3.211   8.466   7.649
12781WAT     H138585   3.224   8.558   7.689
12781WAT     H238586   3.140   8.470   7.579
12782WAT      O38587   0.943   0.933   8.670
12782WAT     H138588   1.023   0.874   8.680
12782WAT     H238589   0.942   1.001   8.743
12783WAT      O38590   7.315   2.910   3.868
12783WAT     H138591   7.225   2.943   3.896
12783WAT     H238592   7.370   2.986   3.834
12784WAT      O38593   1.621   5.788   9.622
12784WAT     H138594   1.594   5.853   9.693
12784WAT     H238595   1.544   5.727   9.603
12785WAT      O38596   5.799   9.819   7.203
12785WAT     H138597   5.749   9.899   7.170
12785WAT     H238598   5.828   9.764   7.125
12786WAT      O38599   3.598   1.141   6.413
12786WAT     H138600   3.626   1.107   6.503
12786WAT     H238601   3.560   1.233   6.422
12787WAT      O38602   2.430   7.877   3.048
12787WAT     H138603   2.341   7.916   3.023
12787WAT     H238604   2.448   7.895   3.144
12788WAT      O38605   5.941   8.594   0.226
12788WAT     H138606   5.967   8.677   0.177
12788WAT     H238607   5.855   8.559   0.189
12789WAT      O38608   6.313   1.323   1.652
12789WAT     H138609   6.327   1.382   1.731
12789WAT     H238610   6.224   1.278   1.659
12790WAT      O38611   7.076   3.303   0.011
12790WAT     H138612   6.988   3.333  -0.027
12790WAT     H238613   7.126   3.250  -0.057
12791WAT      O38614   2.198   1.520   0.269
12791WAT     H138615   2.197   1.439   0.210
12791WAT     H238616   2.185   1.602   0.213
12792WAT      O38617   9.310   6.474   1.361
12792WAT     H138618   9.408   6.464   1.346
12792WAT     H238619   9.280   6.414   1.435
12793WAT      O38620   4.903   3.864   8.030
12793WAT     H138621   4.873   3.769   8.023
12793WAT     H238622   4.902   3.906   7.939
12794WAT      O38623   6.093   3.136   1.158
12794WAT     H138624   6.184   3.175   1.174
12794WAT     H238625   6.092   3.087   1.071
12795WAT      O38626   2.458   5.694   3.110
12795WAT     H138627   2.502   5.765   3.166
12795WAT     H238628   2.507   5.608   3.122
12796WAT      O38629   1.682   3.096   9.248
12796WAT     H138630   1.633   3.169   9.296
12796WAT     H238631   1.772   3.130   9.218
12797WAT      O38632   6.892   7.465   7.818
12797WAT     H138633   6.920   7.403   7.744
12797WAT     H238634   6.798   7.494   7.803
12798WAT      O38635   1.703   7.463   2.395
12798WAT     H138636   1.692   7.560   2.413
12798WAT     H238637   1.784   7.429   2.442
12799WAT      O38638   9.296   5.075   4.495
12799WAT     H138639   9.261   5.076   4.589
12799WAT     H238640   9.258   4.996   4.446
12800WAT      O38641   5.833   8.464   2.808
12800WAT     H138642   5.910   8.438   2.866
12800WAT     H238643   5.846   8.426   2.716
12801WAT      O38644   7.326   6.323   7.771
12801WAT     H138645   7.367   6.243   7.727
12801WAT     H238646   7.235   6.339   7.732
12802WAT      O38647   9.057   1.824   0.282
12802WAT     H138648   9.115   1.889   0.331
12802WAT     H238649   9.106   1.789   0.203
12803WAT      O38650   8.061   0.388   1.732
12803WAT     H138651   8.152   0.370   1.767
12803WAT     H238652   8.001   0.417   1.806
12804WAT      O38653   8.305   6.169   9.547
12804WAT     H138654   8.378   6.220   9.592
12804WAT     H238655   8.326   6.071   9.552
12805WAT      O38656   6.569   3.095   9.035
12805WAT     H138657   6.645   3.095   8.971
12805WAT     H238658   6.536   3.189   9.047
12806WAT      O38659   2.602   0.291   8.666
12806WAT     H138660   2.634   0.375   8.622
12806WAT     H238661   2.678   0.225   8.671
12807WAT      O38662   0.986   7.797   3.758
12807WAT     H138663   1.029   7.821   3.845
12807WAT     H238664   0.891   7.827   3.758
12808WAT      O38665   8.089   8.278   8.163
12808WAT     H138666   8.025   8.250   8.092
12808WAT     H238667   8.045   8.341   8.226
12809WAT      O38668   3.228   3.388   1.496
12809WAT     H138669   3.279   3.301   1.495
12809WAT     H238670   3.196   3.407   1.589
12810WAT      O38671   1.363   9.276   6.835
12810WAT     H138672   1.384   9.218   6.756
12810WAT     H238673   1.343   9.219   6.914
12811WAT      O38674   7.913   7.272   2.841
12811WAT     H138675   7.845   7.309   2.905
12811WAT     H238676   7.930   7.176   2.864
12812WAT      O38677   5.278   1.304   8.411
12812WAT     H138678   5.294   1.374   8.342
12812WAT     H238679   5.247   1.220   8.367
12813WAT      O38680   8.009   6.089   7.173
12813WAT     H138681   7.957   6.013   7.212
12813WAT     H238682   8.104   6.084   7.204
12814WAT      O38683   2.332   0.159   5.378
12814WAT     H138684   2.326   0.227   5.450
12814WAT     H238685   2.259   0.172   5.312
12815WAT      O38686   2.185   4.320   0.350
12815WAT     H138687   2.237   4.244   0.314
12815WAT     H238688   2.100   4.331   0.298
12816WAT      O38689   0.391   1.764   4.617
12816WAT     H138690   0.418   1.699   4.546
12816WAT     H238691   0.422   1.731   4.706
12817WAT      O38692   7.562   7.292   5.926
12817WAT     H138693   7.646   7.340   5.950
12817WAT     H238694   7.537   7.230   6.000
12818WAT      O38695   2.040   5.883   4.244
12818WAT     H138696   1.969   5.871   4.314
12818WAT     H238697   2.012   5.835   4.161
12819WAT      O38698   1.750   8.392   1.375
12819WAT     H138699   1.797   8.365   1.291
12819WAT     H238700   1.787   8.479   1.408
12820WAT      O38701   4.652   7.841   7.869
12820WAT     H138702   4.739   7.885   7.849
12820WAT     H238703   4.629   7.777   7.795
12821WAT      O38704   7.435   8.194   3.289
12821WAT     H138705   7.423   8.109   3.341
12821WAT     H238706   7.508   8.248   3.331
12822WAT      O38707   9.833   0.556   6.563
12822WAT     H138708   9.930   0.580   6.556
12822WAT     H238709   9.792   0.553   6.472
12823WAT      O38710   3.652   5.585   2.729
12823WAT     H138711   3.713   5.634   2.667
12823WAT     H238712   3.557   5.597   2.699
12824WAT      O38713   2.714   6.498   1.791
12824WAT     H138714   2.812   6.494   1.773
12824WAT     H238715   2.667   6.433   1.731
12825WAT      O38716   5.946   8.479   9.403
12825WAT     H138717   5.851   8.510   9.412
12825WAT     H238718   5.965   8.454   9.308
12826WAT      O38719   3.229   1.874   9.860
12826WAT     H138720   3.323   1.882   9.826
12826WAT     H238721   3.169   1.935   9.808
12827WAT      O38722   1.824   3.013   0.691
12827WAT     H138723   1.810   2.929   0.742
12827WAT     H238724   1.893   3.069   0.736
12828WAT      O38725   5.455   3.925   5.907
12828WAT     H138726   5.512   3.891   5.832
12828WAT     H238727   5.497   3.901   5.994
12829WAT      O38728   2.328   0.866   3.710
12829WAT     H138729   2.396   0.905   3.649
12829WAT     H238730   2.337   0.907   3.801
12830WAT      O38731   6.653   0.094   3.186
12830WAT     H138732   6.751   0.091   3.205
12830WAT     H238733   6.626   0.011   3.138
12831WAT      O38734   6.867   7.015   4.711
12831WAT     H138735   6.865   6.952   4.634
12831WAT     H238736   6.778   7.016   4.756
12832WAT      O38737   5.774   0.870   5.407
12832WAT     H138738   5.759   0.857   5.309
12832WAT     H238739   5.710   0.938   5.443
12833WAT      O38740   6.225   3.446   9.375
12833WAT     H138741   6.276   3.521   9.332
12833WAT     H238742   6.127   3.459   9.358
12834WAT      O38743   2.754   9.581   4.469
12834WAT     H138744   2.781   9.571   4.373
12834WAT     H238745   2.832   9.561   4.528
12835WAT      O38746   5.825   7.306   6.053
12835WAT     H138747   5.878   7.254   6.120
12835WAT     H238748   5.813   7.251   5.970
12836WAT      O38749   5.514   7.439   5.316
12836WAT     H138750   5.520   7.426   5.415
12836WAT     H238751   5.606   7.435   5.277
12837WAT      O38752   5.669   8.838   2.059
12837WAT     H138753   5.747   8.899   2.043
12837WAT     H238754   5.695   8.767   2.125
12838WAT      O38755   5.425   7.767   1.575
12838WAT     H138756   5.522   7.768   1.598
12838WAT     H238757   5.374   7.819   1.643
12839WAT      O38758   5.717   0.300   0.146
12839WAT     H138759   5.780   0.254   0.084
12839WAT     H238760   5.768   0.333   0.226
12840WAT      O38761   3.371   8.997   4.164
12840WAT     H138762   3.331   8.909   4.190
12840WAT     H238763   3.303   9.069   4.175
12841WAT      O38764   9.490   3.379   9.764
12841WAT     H138765   9.516   3.467   9.802
12841WAT     H238766   9.553   3.308   9.796
12842WAT      O38767   5.287   1.786   0.815
12842WAT     H138768   5.227   1.865   0.799
12842WAT     H238769   5.376   1.802   0.772
12843WAT      O38770   8.485   5.071   1.747
12843WAT     H138771   8.437   5.074   1.835
12843WAT     H238772   8.580   5.045   1.761
12844WAT      O38773   1.243   5.698   4.255
12844WAT     H138774   1.153   5.662   4.282
12844WAT     H238775   1.232   5.788   4.214
12845WAT      O38776   5.678   8.758   8.806
12845WAT     H138777   5.766   8.783   8.766
12845WAT     H238778   5.623   8.708   8.739
12846WAT      O38779   5.047   5.264   8.103
12846WAT     H138780   5.050   5.324   8.023
12846WAT     H238781   5.133   5.269   8.153
12847WAT      O38782   3.156   0.433   2.598
12847WAT     H138783   3.182   0.445   2.694
12847WAT     H238784   3.238   0.419   2.543
12848WAT      O38785   9.554   1.900   1.522
12848WAT     H138786   9.471   1.846   1.518
12848WAT     H238787   9.601   1.885   1.609
12849WAT      O38788   6.729   6.584   4.513
12849WAT     H138789   6.686   6.599   4.425
12849WAT     H238790   6.800   6.653   4.528
12850WAT      O38791   0.781   2.491   7.021
12850WAT     H138792   0.881   2.494   7.019
12850WAT     H238793   0.750   2.398   7.002
12851WAT      O38794   5.154   6.991   1.951
12851WAT     H138795   5.090   7.056   1.912
12851WAT     H238796   5.125   6.898   1.928
12852WAT      O38797   6.972   3.233   1.441
12852WAT     H138798   6.926   3.208   1.356
12852WAT     H238799   7.061   3.188   1.446
12853WAT      O38800   6.032   8.753   5.931
12853WAT     H138801   5.999   8.754   6.025
12853WAT     H238802   6.130   8.771   5.930
12854WAT      O38803   5.529   3.463   5.163
12854WAT     H138804   5.482   3.381   5.194
12854WAT     H238805   5.608   3.438   5.107
12855WAT      O38806   0.757   2.269   2.924
12855WAT     H138807   0.831   2.286   2.988
12855WAT     H238808   0.753   2.171   2.903
12856WAT      O38809   3.914   0.108   0.418
12856WAT     H138810   3.970   0.115   0.501
12856WAT     H238811   3.937   0.183   0.356
12857WAT      O38812   3.677   2.047   7.950
12857WAT     H138813   3.767   2.042   7.992
12857WAT     H238814   3.673   1.983   7.873
12858WAT      O38815   4.911   5.768   7.682
12858WAT     H138816   4.950   5.698   7.741
12858WAT     H238817   4.951   5.857   7.704
12859WAT      O38818   5.078   2.854   3.219
12859WAT     H138819   5.069   2.797   3.300
12859WAT     H238820   5.044   2.805   3.139
12860WAT      O38821   6.008   6.848   4.224
12860WAT     H138822   5.947   6.870   4.149
12860WAT     H238823   5.971   6.772   4.277
12861WAT      O38824   1.880   1.289   7.198
12861WAT     H138825   1.838   1.201   7.217
12861WAT     H238826   1.966   1.275   7.148
12862WAT      O38827   8.166   8.961   1.603
12862WAT     H138828   8.229   9.022   1.651
12862WAT     H238829   8.164   8.872   1.648
12863WAT      O38830   3.678   6.212   6.688
12863WAT     H138831   3.605   6.279   6.672
12863WAT     H238832   3.643   6.136   6.742
12864WAT      O38833   1.065   1.524   5.005
12864WAT     H138834   1.123   1.530   5.085
12864WAT     H238835   1.001   1.602   5.004
12865WAT      O38836   9.390   1.085   0.419
12865WAT     H138837   9.406   1.172   0.371
12865WAT     H238838   9.361   1.016   0.353
12866WAT      O38839   3.580   2.250   7.280
12866WAT     H138840   3.491   2.249   7.326
12866WAT     H238841   3.647   2.203   7.337
12867WAT      O38842   7.023   1.640   4.756
12867WAT     H138843   7.063   1.551   4.778
12867WAT     H238844   6.989   1.639   4.662
12868WAT      O38845   9.848   4.599   6.652
12868WAT     H138846   9.839   4.565   6.559
12868WAT     H238847   9.890   4.529   6.710
12869WAT      O38848   3.315   2.578   1.531
12869WAT     H138849   3.368   2.494   1.545
12869WAT     H238850   3.330   2.611   1.438
12870WAT      O38851   1.503   7.750   0.102
12870WAT     H138852   1.452   7.715   0.024
12870WAT     H238853   1.459   7.834   0.136
12871WAT      O38854   3.186   0.189   6.201
12871WAT     H138855   3.133   0.193   6.117
12871WAT     H238856   3.190   0.094   6.233
12872WAT      O38857   5.709   3.426   0.758
12872WAT     H138858   5.738   3.386   0.671
12872WAT     H238859   5.775   3.402   0.829
12873WAT      O38860   5.908   8.978   5.307
12873WAT     H138861   5.945   8.904   5.252
12873WAT     H238862   5.861   9.044   5.247
12874WAT      O38863   7.551   0.604   5.241
12874WAT     H138864   7.547   0.559   5.330
12874WAT     H238865   7.605   0.688   5.249
12875WAT      O38866   2.066   3.539   2.946
12875WAT     H138867   1.976   3.573   2.919
12875WAT     H238868   2.135   3.576   2.884
12876WAT      O38869   3.733   9.598   7.333
12876WAT     H138870   3.736   9.688   7.288
12876WAT     H238871   3.686   9.533   7.273
12877WAT      O38872   4.468   5.561   5.142
12877WAT     H138873   4.438   5.469   5.115
12877WAT     H238874   4.568   5.565   5.141
12878WAT      O38875   4.049   1.608   2.641
12878WAT     H138876   4.020   1.661   2.561
12878WAT     H238877   3.986   1.625   2.717
12879WAT      O38878   9.813   5.435   0.182
12879WAT     H138879   9.861   5.508   0.135
12879WAT     H238880   9.745   5.473   0.244
12880WAT      O38881   4.449   8.046   2.313
12880WAT     H138882   4.446   7.983   2.235
12880WAT     H238883   4.400   8.130   2.289
12881WAT      O38884   3.168   3.211   5.718
12881WAT     H138885   3.075   3.196   5.685
12881WAT     H238886   3.164   3.244   5.812
12882WAT      O38887   9.602   5.125   6.158
12882WAT     H138888   9.580   5.116   6.061
12882WAT     H238889   9.643   5.215   6.175
12883WAT      O38890   8.762   7.977   6.245
12883WAT     H138891   8.824   8.043   6.287
12883WAT     H238892   8.762   7.990   6.146
12884WAT      O38893   5.823   9.310   1.570
12884WAT     H138894   5.866   9.303   1.661
12884WAT     H238895   5.730   9.272   1.575
12885WAT      O38896   5.466   9.313   7.336
12885WAT     H138897   5.391   9.348   7.393
12885WAT     H238898   5.553   9.335   7.380
12886WAT      O38899   8.511   7.923   1.209
12886WAT     H138900   8.552   7.961   1.126
12886WAT     H238901   8.462   7.839   1.187
12887WAT      O38902   1.969   7.477   0.406
12887WAT     H138903   1.959   7.576   0.397
12887WAT     H238904   1.881   7.433   0.388
12888WAT      O38905   5.725   2.009   0.206
12888WAT     H138906   5.698   2.046   0.118
12888WAT     H238907   5.810   1.957   0.196
12889WAT      O38908   7.573   6.659   7.779
12889WAT     H138909   7.597   6.630   7.872
12889WAT     H238910   7.610   6.594   7.713
12890WAT      O38911   0.648   7.585   3.618
12890WAT     H138912   0.708   7.645   3.565
12890WAT     H238913   0.563   7.571   3.567
12891WAT      O38914   8.459   5.336   8.757
12891WAT     H138915   8.487   5.245   8.785
12891WAT     H238916   8.506   5.404   8.813
12892WAT      O38917   7.506   9.240   1.892
12892WAT     H138918   7.557   9.319   1.926
12892WAT     H238919   7.468   9.261   1.801
12893WAT      O38920   2.550   0.042   7.163
12893WAT     H138921   2.507  -0.044   7.192
12893WAT     H238922   2.649   0.030   7.159
12894WAT      O38923   3.504   0.684   1.494
12894WAT     H138924   3.450   0.710   1.414
12894WAT     H238925   3.468   0.730   1.575
12895WAT      O38926   0.311   6.155   6.804
12895WAT     H138927   0.343   6.077   6.751
12895WAT     H238928   0.367   6.235   6.782
12896WAT      O38929   0.001   0.283   5.093
12896WAT     H138930  -0.052   0.205   5.060
12896WAT     H238931   0.047   0.328   5.016
12897WAT      O38932   0.975   7.520   1.893
12897WAT     H138933   0.941   7.613   1.887
12897WAT     H238934   1.044   7.505   1.822
12898WAT      O38935   6.261   0.240   8.591
12898WAT     H138936   6.313   0.164   8.630
12898WAT     H238937   6.227   0.215   8.501
12899WAT      O38938   2.802   7.191   7.594
12899WAT     H138939   2.890   7.148   7.617
12899WAT     H238940   2.818   7.271   7.536
12900WAT      O38941   0.388   7.645   7.315
12900WAT     H138942   0.370   7.592   7.232
12900WAT     H238943   0.485   7.669   7.318
12901WAT      O38944   2.196   5.099   9.373
12901WAT     H138945   2.125   5.167   9.354
12901WAT     H238946   2.243   5.077   9.288
12902WAT      O38947   8.539   1.121   8.785
12902WAT     H138948   8.513   1.217   8.792
12902WAT     H238949   8.518   1.087   8.693
12903WAT      O38950   9.727   7.867   5.992
12903WAT     H138951   9.761   7.846   6.083
12903WAT     H238952   9.789   7.931   5.947
12904WAT      O38953   3.012   4.066   3.615
12904WAT     H138954   3.088   4.128   3.634
12904WAT     H238955   3.043   3.992   3.556
12905WAT      O38956   7.186   6.867   3.029
12905WAT     H138957   7.108   6.917   3.066
12905WAT     H238958   7.261   6.930   3.012
12906WAT      O38959   2.323   2.016   0.852
12906WAT     H138960   2.389   2.090   0.841
12906WAT     H238961   2.349   1.939   0.793
12907WAT      O38962   6.167   3.948   2.602
12907WAT     H138963   6.217   3.988   2.679
12907WAT     H238964   6.169   3.849   2.610
12908WAT      O38965   4.859   2.433   8.622
12908WAT     H138966   4.877   2.348   8.572
12908WAT     H238967   4.763   2.458   8.611
12909WAT      O38968   1.620   4.446   3.114
12909WAT     H138969   1.700   4.493   3.152
12909WAT     H238970   1.538   4.474   3.165
12910WAT      O38971   0.776   5.977   6.585
12910WAT     H138972   0.716   5.966   6.506
12910WAT     H238973   0.830   6.061   6.573
12911WAT      O38974   5.561   4.774   8.713
12911WAT     H138975   5.520   4.686   8.690
12911WAT     H238976   5.658   4.762   8.733
12912WAT      O38977   7.364   7.308   0.685
12912WAT     H138978   7.409   7.319   0.596
12912WAT     H238979   7.265   7.312   0.673
12913WAT      O38980   1.973   1.651   8.611
12913WAT     H138981   1.911   1.575   8.590
12913WAT     H238982   2.056   1.644   8.556
12914WAT      O38983   0.007   8.321   1.666
12914WAT     H138984  -0.076   8.349   1.617
12914WAT     H238985   0.033   8.229   1.638
12915WAT      O38986   5.265   6.457   6.604
12915WAT     H138987   5.365   6.455   6.603
12915WAT     H238988   5.233   6.539   6.555
12916WAT      O38989   8.562   4.210   6.091
12916WAT     H138990   8.471   4.251   6.080
12916WAT     H238991   8.611   4.258   6.164
12917WAT      O38992   3.604   7.994   0.579
12917WAT     H138993   3.677   8.008   0.645
12917WAT     H238994   3.568   7.901   0.589
12918WAT      O38995   0.603   4.233   0.619
12918WAT     H138996   0.527   4.169   0.616
12918WAT     H238997   0.568   4.327   0.621
12919WAT      O38998   6.092   7.185   1.800
12919WAT     H138999   6.041   7.187   1.713
12919WAT     H239000   6.190   7.190   1.781
12920WAT      O39001   5.170   1.050   0.187
12920WAT     H139002   5.175   0.953   0.162
12920WAT     H239003   5.094   1.063   0.251
12921WAT      O39004   6.993   7.908   1.743
12921WAT     H139005   7.040   7.991   1.774
12921WAT     H239006   7.008   7.835   1.810
12922WAT      O39007   6.210   8.490   1.274
12922WAT     H139008   6.218   8.485   1.175
12922WAT     H239009   6.147   8.563   1.299
12923WAT      O39010   8.188   7.622   9.755
12923WAT     H139011   8.216   7.542   9.701
12923WAT     H239012   8.218   7.705   9.708
12924WAT      O39013   5.496   2.051   6.655
12924WAT     H139014   5.522   1.973   6.598
12924WAT     H239015   5.472   2.129   6.597
12925WAT      O39016   7.693   3.583   2.537
12925WAT     H139017   7.677   3.659   2.601
12925WAT     H239018   7.606   3.537   2.518
12926WAT      O39019   2.541   0.342   7.821
12926WAT     H139020   2.637   0.368   7.830
12926WAT     H239021   2.525   0.256   7.870
12927WAT      O39022   3.428   2.866   5.934
12927WAT     H139023   3.408   2.954   5.891
12927WAT     H239024   3.474   2.806   5.868
12928WAT      O39025   2.003   4.949   9.027
12928WAT     H139026   2.049   4.935   8.939
12928WAT     H239027   1.973   4.860   9.063
12929WAT      O39028   6.318   6.290   1.096
12929WAT     H139029   6.330   6.197   1.131
12929WAT     H239030   6.263   6.288   1.013
12930WAT      O39031   6.782   5.905   3.249
12930WAT     H139032   6.711   5.917   3.179
12930WAT     H239033   6.864   5.956   3.223
12931WAT      O39034   8.236   1.358   5.112
12931WAT     H139035   8.207   1.329   5.021
12931WAT     H239036   8.336   1.369   5.112
12932WAT      O39037   4.200   1.793   6.283
12932WAT     H139038   4.152   1.825   6.201
12932WAT     H239039   4.244   1.871   6.328
12933WAT      O39040   4.654   3.524   2.020
12933WAT     H139041   4.614   3.596   2.077
12933WAT     H239042   4.626   3.434   2.054
12934WAT      O39043   6.577   1.936   9.225
12934WAT     H139044   6.590   1.868   9.297
12934WAT     H239045   6.481   1.965   9.223
12935WAT      O39046   8.303   2.405   4.996
12935WAT     H139047   8.301   2.459   4.912
12935WAT     H239048   8.395   2.408   5.036
12936WAT      O39049   6.784   4.554   5.899
12936WAT     H139050   6.776   4.457   5.877
12936WAT     H239051   6.866   4.591   5.855
12937WAT      O39052   7.833   5.437   9.647
12937WAT     H139053   7.763   5.382   9.601
12937WAT     H239054   7.851   5.398   9.738
12938WAT      O39055   5.684   5.073   4.933
12938WAT     H139056   5.593   5.089   4.893
12938WAT     H239057   5.675   5.019   5.016
12939WAT      O39058   4.587   7.903   0.389
12939WAT     H139059   4.587   7.832   0.460
12939WAT     H239060   4.663   7.966   0.405
12940WAT      O39061   0.540   4.094   4.196
12940WAT     H139062   0.495   4.180   4.220
12940WAT     H239063   0.638   4.110   4.183
12941WAT      O39064   6.145   5.151   1.494
12941WAT     H139065   6.050   5.117   1.496
12941WAT     H239066   6.144   5.251   1.492
12942WAT      O39067   1.881   5.539   8.524
12942WAT     H139068   1.853   5.585   8.440
12942WAT     H239069   1.948   5.468   8.503
12943WAT      O39070   8.616   6.231   2.491
12943WAT     H139071   8.661   6.156   2.540
12943WAT     H239072   8.624   6.215   2.392
12944WAT      O39073   1.809   7.223   7.903
12944WAT     H139074   1.738   7.269   7.849
12944WAT     H239075   1.765   7.164   7.971
12945WAT      O39076   9.656   9.239   6.145
12945WAT     H139077   9.752   9.266   6.130
12945WAT     H239078   9.619   9.203   6.059
12946WAT      O39079   3.907   4.371   1.515
12946WAT     H139080   3.877   4.407   1.603
12946WAT     H239081   3.830   4.369   1.451
12947WAT      O39082   7.371   3.634   8.445
12947WAT     H139083   7.461   3.641   8.401
12947WAT     H239084   7.366   3.701   8.520
12948WAT      O39085   9.201   1.244   9.199
12948WAT     H139086   9.155   1.309   9.138
12948WAT     H239087   9.138   1.171   9.224
12949WAT      O39088   2.238   3.142   4.512
12949WAT     H139089   2.269   3.064   4.566
12949WAT     H239090   2.179   3.110   4.439
12950WAT      O39091   0.516   4.388   8.195
12950WAT     H139092   0.453   4.323   8.154
12950WAT     H239093   0.551   4.450   8.124
12951WAT      O39094   7.225   0.786   7.767
12951WAT     H139095   7.157   0.847   7.808
12951WAT     H239096   7.200   0.691   7.785
12952WAT      O39097   9.217   4.099   6.099
12952WAT     H139098   9.242   4.003   6.094
12952WAT     H239099   9.236   4.134   6.191
12953WAT      O39100   1.280   7.156   3.904
12953WAT     H139101   1.212   7.153   3.977
12953WAT     H239102   1.254   7.226   3.838
12954WAT      O39103   3.362   1.404   2.092
12954WAT     H139104   3.299   1.457   2.149
12954WAT     H239105   3.320   1.317   2.068
12955WAT      O39106   7.932   6.203   9.028
12955WAT     H139107   7.921   6.266   8.952
12955WAT     H239108   7.928   6.253   9.114
12956WAT      O39109   8.852   2.342   2.567
12956WAT     H139110   8.881   2.423   2.619
12956WAT     H239111   8.820   2.272   2.631
12957WAT      O39112   2.152   4.740   7.047
12957WAT     H139113   2.086   4.760   7.119
12957WAT     H239114   2.243   4.731   7.086
12958WAT      O39115   4.863   2.131   1.840
12958WAT     H139116   4.773   2.106   1.805
12958WAT     H239117   4.910   2.188   1.773
12959WAT      O39118   4.594   9.072   6.485
12959WAT     H139119   4.497   9.049   6.492
12959WAT     H239120   4.610   9.160   6.531
12960WAT      O39121   5.407   3.366   8.199
12960WAT     H139122   5.354   3.442   8.160
12960WAT     H239123   5.358   3.329   8.277
12961WAT      O39124   0.450   8.392   4.231
12961WAT     H139125   0.517   8.428   4.295
12961WAT     H239126   0.413   8.466   4.175
12962WAT      O39127   8.028   6.029   6.887
12962WAT     H139128   8.099   6.096   6.865
12962WAT     H239129   8.008   6.033   6.985
12963WAT      O39130   4.906   8.586   0.272
12963WAT     H139131   4.833   8.554   0.333
12963WAT     H239132   4.953   8.507   0.232
12964WAT      O39133   9.152   2.375   1.663
12964WAT     H139134   9.203   2.293   1.689
12964WAT     H239135   9.109   2.360   1.574
12965WAT      O39136   6.818   0.570   8.562
12965WAT     H139137   6.750   0.503   8.532
12965WAT     H239138   6.810   0.584   8.661
12966WAT      O39139   6.212   7.100   0.822
12966WAT     H139140   6.140   7.169   0.813
12966WAT     H239141   6.268   7.098   0.739
12967WAT      O39142   9.720   5.762   2.090
12967WAT     H139143   9.757   5.692   2.028
12967WAT     H239144   9.767   5.849   2.073
12968WAT      O39145   2.162   7.971   2.605
12968WAT     H139146   2.179   8.003   2.698
12968WAT     H239147   2.160   8.050   2.543
12969WAT      O39148   7.346   0.731   4.188
12969WAT     H139149   7.366   0.685   4.101
12969WAT     H239150   7.247   0.741   4.199
12970WAT      O39151   5.111   3.246   3.316
12970WAT     H139152   5.117   3.314   3.243
12970WAT     H239153   5.104   3.293   3.404
12971WAT      O39154   9.385   9.660   2.026
12971WAT     H139155   9.462   9.706   1.980
12971WAT     H239156   9.416   9.624   2.114
12972WAT      O39157   1.227   8.049   3.576
12972WAT     H139158   1.322   8.020   3.578
12972WAT     H239159   1.181   8.009   3.496
12973WAT      O39160   5.637   9.217   3.829
12973WAT     H139161   5.620   9.119   3.822
12973WAT     H239162   5.566   9.267   3.779
12974WAT      O39163   0.841   2.545   0.048
12974WAT     H139164   0.876   2.479   0.113
12974WAT     H239165   0.875   2.523  -0.044
12975WAT      O39166   4.214   0.603   7.646
12975WAT     H139167   4.295   0.627   7.699
12975WAT     H239168   4.159   0.686   7.630
12976WAT      O39169   1.373   0.662   7.573
12976WAT     H139170   1.415   0.744   7.612
12976WAT     H239171   1.282   0.650   7.612
12977WAT      O39172   6.240   7.599   3.700
12977WAT     H139173   6.250   7.679   3.641
12977WAT     H239174   6.330   7.566   3.728
12978WAT      O39175   2.507   6.869   2.593
12978WAT     H139176   2.454   6.953   2.578
12978WAT     H239177   2.546   6.870   2.685
12979WAT      O39178   8.677   1.925   7.996
12979WAT     H139179   8.697   1.935   8.093
12979WAT     H239180   8.651   2.014   7.958
12980WAT      O39181   2.832   7.013   4.586
12980WAT     H139182   2.909   7.076   4.585
12980WAT     H239183   2.757   7.053   4.639
12981WAT      O39184   3.881   0.838   2.982
12981WAT     H139185   3.894   0.762   2.918
12981WAT     H239186   3.818   0.904   2.942
12982WAT      O39187   9.713   1.545   1.258
12982WAT     H139188   9.794   1.588   1.298
12982WAT     H239189   9.640   1.543   1.325
12983WAT      O39190   6.466   3.316   5.052
12983WAT     H139191   6.524   3.343   4.976
12983WAT     H239192   6.510   3.243   5.104
12984WAT      O39193   8.561   2.852   7.779
12984WAT     H139194   8.608   2.839   7.867
12984WAT     H239195   8.625   2.888   7.712
12985WAT      O39196   6.651   0.296   2.164
12985WAT     H139197   6.662   0.258   2.073
12985WAT     H239198   6.610   0.387   2.158
12986WAT      O39199   7.973   4.111   2.715
12986WAT     H139200   8.013   4.161   2.638
12986WAT     H239201   8.004   4.016   2.714
12987WAT      O39202   2.408   2.533   7.383
12987WAT     H139203   2.316   2.574   7.380
12987WAT     H239204   2.476   2.606   7.372
12988WAT      O39205   3.742   2.803   7.642
12988WAT     H139206   3.753   2.875   7.573
12988WAT     H239207   3.767   2.839   7.732
12989WAT      O39208   3.109   1.493   2.328
12989WAT     H139209   3.084   1.423   2.260
12989WAT     H239210   3.028   1.517   2.382
12990WAT      O39211   4.216   0.638   7.997
12990WAT     H139212   4.252   0.682   7.915
12990WAT     H239213   4.289   0.587   8.043
12991WAT      O39214   7.145   9.077   3.888
12991WAT     H139215   7.242   9.057   3.900
12991WAT     H239216   7.099   9.079   3.977
12992WAT      O39217   1.518   1.058   0.677
12992WAT     H139218   1.551   0.999   0.751
12992WAT     H239219   1.537   1.014   0.589
12993WAT      O39220   8.853   0.948   4.199
12993WAT     H139221   8.878   1.043   4.179
12993WAT     H239222   8.823   0.941   4.294
12994WAT      O39223   3.698   4.847   1.289
12994WAT     H139224   3.722   4.944   1.283
12994WAT     H239225   3.744   4.806   1.368
12995WAT      O39226   4.171   7.100   3.037
12995WAT     H139227   4.230   7.057   2.969
12995WAT     H239228   4.227   7.146   3.105
12996WAT      O39229   9.500   3.687   3.165
12996WAT     H139230   9.536   3.757   3.227
12996WAT     H239231   9.436   3.730   3.101
12997WAT      O39232   7.279   9.206   1.436
12997WAT     H139233   7.354   9.249   1.385
12997WAT     H239234   7.278   9.242   1.530
12998WAT      O39235   5.717   6.312   1.970
12998WAT     H139236   5.663   6.375   2.026
12998WAT     H239237   5.713   6.220   2.009
12999WAT      O39238   6.544   6.876   2.558
12999WAT     H139239   6.525   6.851   2.653
12999WAT     H239240   6.574   6.795   2.508
13000WAT      O39241   8.796   8.411   2.128
13000WAT     H139242   8.736   8.389   2.205
13000WAT     H239243   8.788   8.508   2.106
13001WAT      O39244   9.277   4.175   4.348
13001WAT     H139245   9.263   4.253   4.287
13001WAT     H239246   9.364   4.131   4.327
13002WAT      O39247   8.478   8.161   7.112
13002WAT     H139248   8.434   8.146   7.023
13002WAT     H239249   8.431   8.234   7.161
13003WAT      O39250   8.931   9.249   8.124
13003WAT     H139251   8.972   9.316   8.187
13003WAT     H239252   8.997   9.176   8.105
13004WAT      O39253   9.015   4.226   9.870
13004WAT     H139254   8.940   4.182   9.820
13004WAT     H239255   9.007   4.205   9.967
13005WAT      O39256   1.409   7.596   8.857
13005WAT     H139257   1.342   7.525   8.879
13005WAT     H239258   1.499   7.554   8.848
13006WAT      O39259   6.999   6.318   4.880
13006WAT     H139260   7.084   6.282   4.842
13006WAT     H239261   6.926   6.308   4.812
13007WAT      O39262   7.921   8.566   0.535
13007WAT     H139263   7.931   8.530   0.442
13007WAT     H239264   7.996   8.628   0.555
13008WAT      O39265   1.783   2.955   3.161
13008WAT     H139266   1.820   2.944   3.254
13008WAT     H239267   1.748   3.048   3.151
13009WAT      O39268   7.708   5.643   6.128
13009WAT     H139269   7.674   5.607   6.215
13009WAT     H239270   7.639   5.705   6.090
13010WAT      O39271   1.269   1.851   4.355
13010WAT     H139272   1.219   1.765   4.361
13010WAT     H239273   1.270   1.896   4.445
13011WAT      O39274   3.432   1.698   4.069
13011WAT     H139275   3.525   1.689   4.035
13011WAT     H239276   3.368   1.684   3.993
13012WAT      O39277   3.626   6.517   8.045
13012WAT     H139278   3.618   6.607   8.002
13012WAT     H239279   3.647   6.529   8.142
13013WAT      O39280   1.143   1.665   5.581
13013WAT     H139281   1.051   1.635   5.555
13013WAT     H239282   1.211   1.614   5.528
13014WAT      O39283   5.308   9.402   2.433
13014WAT     H139284   5.239   9.445   2.376
13014WAT     H239285   5.369   9.472   2.470
13015WAT      O39286   5.088   8.084   8.661
13015WAT     H139287   5.103   8.166   8.716
13015WAT     H239288   5.113   8.003   8.714
13016WAT      O39289   6.543   8.119   3.973
13016WAT     H139290   6.520   8.093   4.066
13016WAT     H239291   6.494   8.203   3.949
13017WAT      O39292   3.511   1.310   6.775
13017WAT     H139293   3.435   1.246   6.765
13017WAT     H239294   3.501   1.385   6.709
13018WAT      O39295   1.551   1.985   9.370
13018WAT     H139296   1.467   2.037   9.354
13018WAT     H239297   1.529   1.901   9.421
13019WAT      O39298   9.717   9.634   4.575
13019WAT     H139299   9.731   9.535   4.570
13019WAT     H239300   9.788   9.680   4.521
13020WAT      O39301   3.290   7.035   0.179
13020WAT     H139302   3.248   6.944   0.169
13020WAT     H239303   3.312   7.051   0.275
13021WAT      O39304   7.872   3.795   6.629
13021WAT     H139305   7.893   3.741   6.548
13021WAT     H239306   7.805   3.866   6.606
13022WAT      O39307   2.181   2.153   0.255
13022WAT     H139308   2.249   2.100   0.306
13022WAT     H239309   2.226   2.232   0.213
13023WAT      O39310   3.264   4.233   9.463
13023WAT     H139311   3.302   4.142   9.449
13023WAT     H239312   3.328   4.301   9.427
13024WAT      O39313   2.284   1.887   4.942
13024WAT     H139314   2.346   1.832   4.887
13024WAT     H239315   2.336   1.937   5.011
13025WAT      O39316   0.758   1.348   8.429
13025WAT     H139317   0.727   1.306   8.514
13025WAT     H239318   0.682   1.355   8.365
13026WAT      O39319   2.740   3.848   4.988
13026WAT     H139320   2.821   3.828   4.933
13026WAT     H239321   2.767   3.879   5.079
13027WAT      O39322   7.377   3.953   8.143
13027WAT     H139323   7.349   3.858   8.157
13027WAT     H239324   7.299   4.007   8.112
13028WAT      O39325   4.368   9.497   4.103
13028WAT     H139326   4.286   9.440   4.092
13028WAT     H239327   4.422   9.462   4.179
13029WAT      O39328   8.145   7.963   2.464
13029WAT     H139329   8.115   7.910   2.385
13029WAT     H239330   8.074   7.961   2.534
13030WAT      O39331   2.014   1.499   8.167
13030WAT     H139332   2.103   1.538   8.142
13030WAT     H239333   2.029   1.422   8.229
13031WAT      O39334   8.839   8.545   3.852
13031WAT     H139335   8.909   8.593   3.800
13031WAT     H239336   8.840   8.448   3.828
13032WAT      O39337   2.016   8.307   7.814
13032WAT     H139338   2.071   8.225   7.834
13032WAT     H239339   1.993   8.309   7.717
13033WAT      O39340   8.882   6.770   3.225
13033WAT     H139341   8.873   6.679   3.264
13033WAT     H239342   8.931   6.829   3.289
13034WAT      O39343   1.505   5.601   3.087
13034WAT     H139344   1.407   5.585   3.097
13034WAT     H239345   1.531   5.594   2.991
13035WAT      O39346   0.935   1.807   7.555
13035WAT     H139347   1.010   1.758   7.598
13035WAT     H239348   0.968   1.855   7.474
13036WAT      O39349   5.363   5.912   7.244
13036WAT     H139350   5.354   5.944   7.149
13036WAT     H239351   5.272   5.897   7.283
13037WAT      O39352   4.147   4.981   4.416
13037WAT     H139353   4.203   4.944   4.341
13037WAT     H239354   4.203   5.041   4.472
13038WAT      O39355   5.984   0.465   3.267
13038WAT     H139356   5.991   0.556   3.226
13038WAT     H239357   6.068   0.414   3.251
13039WAT      O39358   6.401   1.984   1.379
13039WAT     H139359   6.414   1.942   1.469
13039WAT     H239360   6.386   1.913   1.311
13040WAT      O39361   2.395   4.886   4.287
13040WAT     H139362   2.456   4.965   4.277
13040WAT     H239363   2.350   4.890   4.376
13041WAT      O39364   2.475   1.720   4.804
13041WAT     H139365   2.510   1.652   4.868
13041WAT     H239366   2.479   1.683   4.711
13042WAT      O39367   0.963   7.013   6.474
13042WAT     H139368   0.981   7.084   6.542
13042WAT     H239369   0.883   7.039   6.420
13043WAT      O39370   6.436   7.723   9.308
13043WAT     H139371   6.389   7.660   9.369
13043WAT     H239372   6.524   7.683   9.280
13044WAT      O39373   0.435   3.388   7.742
13044WAT     H139374   0.437   3.399   7.841
13044WAT     H239375   0.352   3.339   7.715
13045WAT      O39376   7.213   0.980   1.080
13045WAT     H139377   7.173   0.931   1.157
13045WAT     H239378   7.311   0.959   1.074
13046WAT      O39379   2.583   9.208   4.149
13046WAT     H139380   2.542   9.291   4.186
13046WAT     H239381   2.632   9.160   4.222
13047WAT      O39382   9.350   2.287   2.618
13047WAT     H139383   9.298   2.215   2.663
13047WAT     H239384   9.333   2.285   2.520
13048WAT      O39385   3.335   1.038   2.405
13048WAT     H139386   3.340   1.017   2.308
13048WAT     H239387   3.424   1.069   2.438
13049WAT      O39388   1.699   9.144   5.254
13049WAT     H139389   1.759   9.112   5.180
13049WAT     H239390   1.653   9.066   5.296
13050WAT      O39391   9.574   5.981   9.088
13050WAT     H139392   9.601   5.889   9.059
13050WAT     H239393   9.569   6.041   9.008
13051WAT      O39394   4.759   7.401   2.233
13051WAT     H139395   4.826   7.419   2.162
13051WAT     H239396   4.720   7.487   2.266
13052WAT      O39397   5.007   5.074   1.856
13052WAT     H139398   4.944   5.150   1.840
13052WAT     H239399   5.048   5.046   1.769
13053WAT      O39400   1.873   8.711   6.368
13053WAT     H139401   1.847   8.773   6.294
13053WAT     H239402   1.791   8.678   6.415
13054WAT      O39403   6.922   7.821   8.364
13054WAT     H139404   6.847   7.755   8.368
13054WAT     H239405   7.001   7.784   8.414
13055WAT      O39406   4.117   4.242   5.866
13055WAT     H139407   4.069   4.220   5.951
13055WAT     H239408   4.077   4.190   5.791
13056WAT      O39409   5.316   9.215   4.058
13056WAT     H139410   5.248   9.203   4.131
13056WAT     H239411   5.402   9.173   4.086
13057WAT      O39412   0.760   4.741   4.013
13057WAT     H139413   0.845   4.780   4.049
13057WAT     H239414   0.705   4.705   4.088
13058WAT      O39415   7.348   0.483   4.647
13058WAT     H139416   7.435   0.439   4.670
13058WAT     H239417   7.350   0.512   4.551
13059WAT      O39418   1.158   5.471   1.591
13059WAT     H139419   1.123   5.405   1.657
13059WAT     H239420   1.235   5.521   1.632
13060WAT      O39421   6.782   2.798   6.454
13060WAT     H139422   6.821   2.845   6.375
13060WAT     H239423   6.852   2.741   6.497
13061WAT      O39424   0.125   1.525   8.089
13061WAT     H139425   0.225   1.516   8.086
13061WAT     H239426   0.090   1.539   7.996
13062WAT      O39427   4.965   3.773   2.209
13062WAT     H139428   5.033   3.840   2.181
13062WAT     H239429   4.955   3.704   2.137
13063WAT      O39430   2.220   1.127   3.344
13063WAT     H139431   2.123   1.136   3.366
13063WAT     H239432   2.268   1.210   3.372
13064WAT      O39433   6.190   6.831   0.100
13064WAT     H139434   6.235   6.916   0.129
13064WAT     H239435   6.258   6.769   0.061
13065WAT      O39436   4.928   8.255   3.054
13065WAT     H139437   4.908   8.170   3.005
13065WAT     H239438   4.940   8.237   3.151
13066WAT      O39439   2.821   4.730   5.428
13066WAT     H139440   2.755   4.670   5.381
13066WAT     H239441   2.903   4.740   5.371
13067WAT      O39442   7.753   9.723   6.759
13067WAT     H139443   7.848   9.701   6.739
13067WAT     H239444   7.720   9.792   6.695
13068WAT      O39445   9.196   8.923   4.381
13068WAT     H139446   9.275   8.879   4.339
13068WAT     H239447   9.224   8.970   4.465
13069WAT      O39448   7.043   0.358   4.572
13069WAT     H139449   7.058   0.339   4.669
13069WAT     H239450   7.082   0.284   4.517
13070WAT      O39451   2.904   7.009   0.212
13070WAT     H139452   2.901   6.921   0.166
13070WAT     H239453   2.946   6.998   0.302
13071WAT      O39454   5.080   8.972   8.023
13071WAT     H139455   5.077   9.067   8.053
13071WAT     H239456   5.043   8.965   7.930
13072WAT      O39457   8.786   3.694   2.965
13072WAT     H139458   8.703   3.637   2.970
13072WAT     H239459   8.760   3.791   2.961
13073WAT      O39460   8.537   5.472   6.327
13073WAT     H139461   8.499   5.490   6.236
13073WAT     H239462   8.629   5.434   6.318
13074WAT      O39463   5.908   8.706   7.293
13074WAT     H139464   5.834   8.772   7.311
13074WAT     H239465   5.945   8.722   7.201
13075WAT      O39466   4.284   5.880   7.860
13075WAT     H139467   4.243   5.962   7.821
13075WAT     H239468   4.266   5.878   7.959
13076WAT      O39469   1.104   6.626   2.158
13076WAT     H139470   1.160   6.544   2.168
13076WAT     H239471   1.148   6.689   2.095
13077WAT      O39472   6.643   2.006   5.839
13077WAT     H139473   6.645   1.940   5.764
13077WAT     H239474   6.574   1.978   5.906
13078WAT      O39475   9.541   2.891   0.068
13078WAT     H139476   9.472   2.819   0.062
13078WAT     H239477   9.562   2.925  -0.024
13079WAT      O39478   1.933   3.376   7.291
13079WAT     H139479   2.007   3.420   7.242
13079WAT     H239480   1.958   3.366   7.388
13080WAT      O39481   5.175   0.517   8.736
13080WAT     H139482   5.263   0.559   8.759
13080WAT     H239483   5.175   0.488   8.641
13081WAT      O39484   1.981   4.913   2.339
13081WAT     H139485   1.922   4.927   2.419
13081WAT     H239486   1.980   4.996   2.282
13082WAT      O39487   0.537   5.226   5.495
13082WAT     H139488   0.452   5.178   5.520
13082WAT     H239489   0.547   5.228   5.396
13083WAT      O39490   1.209   1.683   0.213
13083WAT     H139491   1.228   1.650   0.305
13083WAT     H239492   1.280   1.747   0.185
13084WAT      O39493   3.940   8.352   8.331
13084WAT     H139494   3.881   8.386   8.404
13084WAT     H239495   3.898   8.271   8.289
13085WAT      O39496   7.019   6.607   0.166
13085WAT     H139497   7.114   6.636   0.154
13085WAT     H239498   7.016   6.524   0.222
13086WAT      O39499   3.018   4.734   5.239
13086WAT     H139500   2.958   4.673   5.187
13086WAT     H239501   3.113   4.714   5.215
13087WAT      O39502   3.912   1.486   1.879
13087WAT     H139503   3.856   1.499   1.960
13087WAT     H239504   3.995   1.436   1.903
13088WAT      O39505   7.593   3.672   3.124
13088WAT     H139506   7.550   3.600   3.178
13088WAT     H239507   7.692   3.658   3.122
13089WAT      O39508   2.105   4.241   8.842
13089WAT     H139509   2.047   4.322   8.827
13089WAT     H239510   2.054   4.173   8.895
13090WAT      O39511   1.880   9.073   9.716
13090WAT     H139512   1.791   9.031   9.700
13090WAT     H239513   1.867   9.168   9.747
13091WAT      O39514   7.940   6.961   6.390
13091WAT     H139515   7.993   6.887   6.431
13091WAT     H239516   7.855   6.974   6.442
13092WAT      O39517   7.538   9.290   4.664
13092WAT     H139518   7.543   9.370   4.604
13092WAT     H239519   7.460   9.233   4.637
13093WAT      O39520   9.784   9.009   1.382
13093WAT     H139521   9.800   8.919   1.341
13093WAT     H239522   9.688   9.016   1.410
13094WAT      O39523   5.755   2.579   7.682
13094WAT     H139524   5.668   2.534   7.703
13094WAT     H239525   5.764   2.589   7.583
13095WAT      O39526   2.212   4.586   7.528
13095WAT     H139527   2.186   4.616   7.619
13095WAT     H239528   2.190   4.489   7.516
13096WAT      O39529   0.023   6.571   3.735
13096WAT     H139530  -0.026   6.496   3.780
13096WAT     H239531   0.092   6.608   3.798
13097WAT      O39532   7.354   8.252   9.404
13097WAT     H139533   7.315   8.161   9.388
13097WAT     H239534   7.452   8.249   9.385
13098WAT      O39535   4.050   9.018   8.903
13098WAT     H139536   4.061   9.002   9.001
13098WAT     H239537   4.061   9.116   8.884
13099WAT      O39538   9.540   5.542   9.151
13099WAT     H139539   9.484   5.479   9.206
13099WAT     H239540   9.574   5.494   9.070
13100WAT      O39541   4.418   8.708   3.048
13100WAT     H139542   4.492   8.647   3.078
13100WAT     H239543   4.457   8.798   3.027
13101WAT      O39544   9.201   9.196   4.782
13101WAT     H139545   9.153   9.279   4.753
13101WAT     H239546   9.133   9.128   4.810
13102WAT      O39547   7.451   1.855   6.987
13102WAT     H139548   7.454   1.770   7.039
13102WAT     H239549   7.509   1.848   6.906
13103WAT      O39550   3.988   9.663   7.756
13103WAT     H139551   3.895   9.668   7.793
13103WAT     H239552   3.986   9.616   7.668
13104WAT      O39553   2.805   8.412   3.416
13104WAT     H139554   2.751   8.474   3.471
13104WAT     H239555   2.838   8.459   3.334
13105WAT      O39556   2.261   8.554   1.875
13105WAT     H139557   2.167   8.588   1.879
13105WAT     H239558   2.303   8.564   1.965
13106WAT      O39559   3.894   0.594   0.620
13106WAT     H139560   3.813   0.629   0.572
13106WAT     H239561   3.937   0.523   0.564
13107WAT      O39562   3.120   6.573   2.781
13107WAT     H139563   3.192   6.547   2.717
13107WAT     H239564   3.038   6.519   2.763
13108WAT      O39565   4.801   7.191   7.711
13108WAT     H139566   4.882   7.245   7.687
13108WAT     H239567   4.734   7.196   7.637
13109WAT      O39568   7.516   9.839   6.259
13109WAT     H139569   7.426   9.824   6.300
13109WAT     H239570   7.530   9.774   6.185
13110WAT      O39571   0.187   7.784   9.151
13110WAT     H139572   0.097   7.786   9.196
13110WAT     H239573   0.257   7.757   9.217
13111WAT      O39574   8.990   4.400   8.471
13111WAT     H139575   8.892   4.420   8.473
13111WAT     H239576   9.006   4.312   8.427
13112WAT      O39577   8.936   9.165   5.554
13112WAT     H139578   9.000   9.226   5.599
13112WAT     H239579   8.962   9.154   5.458
13113WAT      O39580   6.687   5.646   1.292
13113WAT     H139581   6.690   5.597   1.379
13113WAT     H239582   6.614   5.607   1.235
13114WAT      O39583   2.682   9.806   7.855
13114WAT     H139584   2.699   9.731   7.918
13114WAT     H239585   2.635   9.880   7.903
13115WAT      O39586   8.680   1.468   5.554
13115WAT     H139587   8.733   1.451   5.470
13115WAT     H239588   8.730   1.532   5.613
13116WAT      O39589   0.818   7.719   2.878
13116WAT     H139590   0.839   7.622   2.866
13116WAT     H239591   0.795   7.737   2.974
13117WAT      O39592   9.516   7.745   8.123
13117WAT     H139593   9.538   7.826   8.069
13117WAT     H239594   9.534   7.764   8.220
13118WAT      O39595   2.223   2.829   8.130
13118WAT     H139596   2.188   2.900   8.069
13118WAT     H239597   2.227   2.742   8.081
13119WAT      O39598   1.426   6.309   1.451
13119WAT     H139599   1.354   6.245   1.421
13119WAT     H239600   1.443   6.376   1.379
13120WAT      O39601   0.552   0.193   6.410
13120WAT     H139602   0.631   0.193   6.349
13120WAT     H239603   0.574   0.244   6.493
13121WAT      O39604   1.762   3.586   7.707
13121WAT     H139605   1.828   3.603   7.634
13121WAT     H239606   1.782   3.498   7.750
13122WAT      O39607   0.413   2.629   4.866
13122WAT     H139608   0.486   2.674   4.917
13122WAT     H239609   0.452   2.585   4.785
13123WAT      O39610   4.147   8.684   0.439
13123WAT     H139611   4.135   8.643   0.348
13123WAT     H239612   4.062   8.675   0.491
13124WAT      O39613   4.768   6.894   6.982
13124WAT     H139614   4.676   6.932   6.987
13124WAT     H239615   4.824   6.930   7.056
13125WAT      O39616   3.287   1.506   0.166
13125WAT     H139617   3.316   1.450   0.088
13125WAT     H239618   3.242   1.449   0.234
13126WAT      O39619   9.280   3.025   1.682
13126WAT     H139620   9.351   2.987   1.622
13126WAT     H239621   9.305   3.007   1.778
13127WAT      O39622   3.372   6.349   8.962
13127WAT     H139623   3.274   6.363   8.948
13127WAT     H239624   3.419   6.352   8.874
13128WAT      O39625   3.847   3.949   8.282
13128WAT     H139626   3.773   3.898   8.238
13128WAT     H239627   3.812   3.996   8.363
13129WAT      O39628   0.775   4.006   8.243
13129WAT     H139629   0.688   3.958   8.248
13129WAT     H239630   0.776   4.080   8.310
13130WAT      O39631   7.716   0.832   5.969
13130WAT     H139632   7.750   0.744   6.001
13130WAT     H239633   7.751   0.905   6.028
13131WAT      O39634   2.072   0.117   4.359
13131WAT     H139635   2.127   0.188   4.403
13131WAT     H239636   1.984   0.156   4.331
13132WAT      O39637   9.274   4.115   1.465
13132WAT     H139638   9.220   4.162   1.395
13132WAT     H239639   9.370   4.141   1.456
13133WAT      O39640   8.928   9.091   9.599
13133WAT     H139641   8.870   9.067   9.677
13133WAT     H239642   8.901   9.037   9.520
13134WAT      O39643   7.746   3.467   5.106
13134WAT     H139644   7.791   3.513   5.182
13134WAT     H239645   7.789   3.378   5.091
13135WAT      O39646   2.581   1.247   1.562
13135WAT     H139647   2.542   1.166   1.605
13135WAT     H239648   2.635   1.219   1.482
13136WAT      O39649   1.408   1.042   1.903
13136WAT     H139650   1.488   1.084   1.947
13136WAT     H239651   1.330   1.046   1.965
13137WAT      O39652   8.127   9.780   3.128
13137WAT     H139653   8.045   9.836   3.138
13137WAT     H239654   8.101   9.684   3.126
13138WAT      O39655   0.427   6.507   2.018
13138WAT     H139656   0.452   6.412   2.034
13138WAT     H239657   0.467   6.539   1.932
13139WAT      O39658   9.836   8.782   3.296
13139WAT     H139659   9.736   8.788   3.306
13139WAT     H239660   9.879   8.856   3.348
13140WAT      O39661   0.850   0.300   9.378
13140WAT     H139662   0.818   0.344   9.295
13140WAT     H239663   0.938   0.256   9.362
13141WAT      O39664   2.058   2.093   9.877
13141WAT     H139665   2.042   2.075   9.780
13141WAT     H239666   2.137   2.039   9.909
13142WAT      O39667   6.876   6.738   4.876
13142WAT     H139668   6.862   6.817   4.936
13142WAT     H239669   6.810   6.667   4.898
13143WAT      O39670   4.594   3.314   6.869
13143WAT     H139671   4.514   3.358   6.827
13143WAT     H239672   4.673   3.326   6.810
13144WAT      O39673   9.764   6.739   5.117
13144WAT     H139674   9.854   6.751   5.158
13144WAT     H239675   9.748   6.642   5.098
13145WAT      O39676   3.716   6.891   8.847
13145WAT     H139677   3.627   6.861   8.879
13145WAT     H239678   3.777   6.812   8.838
13146WAT      O39679   5.461   6.417   4.592
13146WAT     H139680   5.514   6.415   4.507
13146WAT     H239681   5.461   6.325   4.633
13147WAT      O39682   4.451   9.649   2.648
13147WAT     H139683   4.451   9.746   2.671
13147WAT     H239684   4.505   9.598   2.715
13148WAT      O39685   8.810   3.766   0.915
13148WAT     H139686   8.842   3.783   1.008
13148WAT     H239687   8.842   3.839   0.854
13149WAT      O39688   7.323   3.436   2.924
13149WAT     H139689   7.254   3.503   2.950
13149WAT     H239690   7.315   3.355   2.981
13150WAT      O39691   2.478   2.886   0.244
13150WAT     H139692   2.446   2.927   0.329
13150WAT     H239693   2.511   2.958   0.183
13151WAT      O39694   3.922   9.093   4.459
13151WAT     H139695   4.007   9.057   4.419
13151WAT     H239696   3.868   9.018   4.496
13152WAT      O39697   9.586   2.921   5.103
13152WAT     H139698   9.581   3.020   5.120
13152WAT     H239699   9.663   2.902   5.042
13153WAT      O39700   9.754   7.866   0.440
13153WAT     H139701   9.704   7.844   0.524
13153WAT     H239702   9.850   7.844   0.451
13154WAT      O39703  -0.004   0.597   7.673
13154WAT     H139704   0.023   0.654   7.596
13154WAT     H239705   0.048   0.512   7.672
13155WAT      O39706   0.983   7.724   6.435
13155WAT     H139707   0.944   7.677   6.356
13155WAT     H239708   0.919   7.721   6.512
13156WAT      O39709   0.758   5.251   0.569
13156WAT     H139710   0.661   5.253   0.595
13156WAT     H239711   0.766   5.256   0.470
13157WAT      O39712   2.982   2.511   4.221
13157WAT     H139713   3.003   2.568   4.142
13157WAT     H239714   2.939   2.567   4.292
13158WAT      O39715   7.193   6.015   4.258
13158WAT     H139716   7.215   5.981   4.349
13158WAT     H239717   7.147   5.943   4.205
13159WAT      O39718   4.109   7.657   9.067
13159WAT     H139719   4.009   7.666   9.062
13159WAT     H239720   4.142   7.700   9.151
13160WAT      O39721   9.597   2.201   0.837
13160WAT     H139722   9.658   2.170   0.765
13160WAT     H239723   9.542   2.278   0.804
13161WAT      O39724   5.534   6.606   5.508
13161WAT     H139725   5.602   6.550   5.460
13161WAT     H239726   5.475   6.547   5.563
13162WAT      O39727   6.132   6.503   6.084
13162WAT     H139728   6.165   6.587   6.042
13162WAT     H239729   6.145   6.427   6.020
13163WAT      O39730   6.829   2.902   9.509
13163WAT     H139731   6.798   2.807   9.517
13163WAT     H239732   6.812   2.950   9.596
13164WAT      O39733   2.581   3.348   5.663
13164WAT     H139734   2.499   3.399   5.635
13164WAT     H239735   2.591   3.267   5.605
13165WAT      O39736   0.376   4.417   3.145
13165WAT     H139737   0.445   4.370   3.089
13165WAT     H239738   0.329   4.486   3.090
13166WAT      O39739   4.848   4.309   3.969
13166WAT     H139740   4.916   4.370   4.009
13166WAT     H239741   4.887   4.218   3.957
13167WAT      O39742   7.229   8.759   3.957
13167WAT     H139743   7.155   8.768   3.890
13167WAT     H239744   7.189   8.746   4.048
13168WAT      O39745   3.910   3.961   8.757
13168WAT     H139746   3.891   3.987   8.852
13168WAT     H239747   3.999   3.997   8.730
13169WAT      O39748   2.242   8.284   1.791
13169WAT     H139749   2.334   8.284   1.752
13169WAT     H239750   2.222   8.374   1.830
13170WAT      O39751   9.191   5.561   8.695
13170WAT     H139752   9.229   5.502   8.766
13170WAT     H239753   9.164   5.649   8.736
13171WAT      O39754   1.394   0.042   4.464
13171WAT     H139755   1.373   0.133   4.501
13171WAT     H239756   1.310  -0.012   4.460
13172WAT      O39757   5.474   4.094   4.998
13172WAT     H139758   5.463   4.192   4.981
13172WAT     H239759   5.562   4.064   4.963
13173WAT      O39760   9.512   6.301   9.133
13173WAT     H139761   9.431   6.244   9.115
13173WAT     H239762   9.484   6.396   9.142
13174WAT      O39763   9.819   8.235   4.660
13174WAT     H139764   9.894   8.288   4.620
13174WAT     H239765   9.737   8.293   4.665
13175WAT      O39766   3.493   8.323   3.379
13175WAT     H139767   3.520   8.307   3.284
13175WAT     H239768   3.537   8.405   3.413
13176WAT      O39769   4.466   9.427   3.850
13176WAT     H139770   4.409   9.445   3.931
13176WAT     H239771   4.479   9.329   3.839
13177WAT      O39772   4.406   8.373   2.737
13177WAT     H139773   4.405   8.469   2.710
13177WAT     H239774   4.400   8.367   2.837
13178WAT      O39775   2.671   5.858   9.265
13178WAT     H139776   2.667   5.915   9.183
13178WAT     H239777   2.591   5.877   9.323
13179WAT      O39778   1.235   1.825   8.810
13179WAT     H139779   1.173   1.763   8.763
13179WAT     H239780   1.240   1.800   8.907
13180WAT      O39781   5.184   2.307   2.322
13180WAT     H139782   5.253   2.375   2.348
13180WAT     H239783   5.211   2.217   2.358
13181WAT      O39784   6.327   2.033   9.198
13181WAT     H139785   6.371   2.085   9.125
13181WAT     H239786   6.231   2.017   9.174
13182WAT      O39787   2.760   8.534   9.744
13182WAT     H139788   2.747   8.597   9.668
13182WAT     H239789   2.753   8.440   9.712
13183WAT      O39790   7.918   1.545   5.353
13183WAT     H139791   7.831   1.582   5.385
13183WAT     H239792   7.989   1.567   5.420
13184WAT      O39793   7.042   4.479   2.573
13184WAT     H139794   7.109   4.553   2.580
13184WAT     H239795   6.950   4.518   2.574
13185WAT      O39796   0.695   1.386   4.508
13185WAT     H139797   0.775   1.440   4.482
13185WAT     H239798   0.613   1.442   4.495
13186WAT      O39799   8.840   0.571   1.188
13186WAT     H139800   8.809   0.618   1.271
13186WAT     H239801   8.806   0.620   1.108
13187WAT      O39802   6.581   0.130   7.862
13187WAT     H139803   6.486   0.128   7.891
13187WAT     H239804   6.586   0.149   7.764
13188WAT      O39805   4.555   5.788   8.790
13188WAT     H139806   4.553   5.701   8.741
13188WAT     H239807   4.649   5.818   8.802
13189WAT      O39808   1.238   5.728   6.707
13189WAT     H139809   1.309   5.674   6.661
13189WAT     H239810   1.279   5.812   6.742
13190WAT      O39811   8.107   1.026   5.103
13190WAT     H139812   8.012   0.998   5.087
13190WAT     H239813   8.141   1.076   5.023
13191WAT      O39814   5.526   0.873   5.729
13191WAT     H139815   5.569   0.807   5.790
13191WAT     H239816   5.518   0.833   5.638
13192WAT      O39817   3.896   0.079   8.591
13192WAT     H139818   3.905   0.074   8.691
13192WAT     H239819   3.973   0.032   8.548
13193WAT      O39820   2.754   9.013   1.366
13193WAT     H139821   2.767   9.103   1.407
13193WAT     H239822   2.842   8.979   1.332
13194WAT      O39823   3.901   6.583   2.126
13194WAT     H139824   3.917   6.681   2.125
13194WAT     H239825   3.860   6.556   2.213
13195WAT      O39826   8.967   4.254   5.608
13195WAT     H139827   8.997   4.253   5.704
13195WAT     H239828   8.877   4.296   5.601
13196WAT      O39829   4.561   1.574   4.423
13196WAT     H139830   4.520   1.487   4.450
13196WAT     H239831   4.501   1.649   4.449
13197WAT      O39832   9.108   8.912   5.136
13197WAT     H139833   9.092   8.953   5.046
13197WAT     H239834   9.054   8.828   5.145
13198WAT      O39835   9.460   6.392   0.369
13198WAT     H139836   9.429   6.411   0.276
13198WAT     H239837   9.381   6.390   0.430
13199WAT      O39838   6.432   4.923   9.839
13199WAT     H139839   6.461   5.018   9.833
13199WAT     H239840   6.461   4.873   9.757
13200WAT      O39841   6.608   7.343   0.890
13200WAT     H139842   6.631   7.246   0.878
13200WAT     H239843   6.511   7.357   0.871
13201WAT      O39844   3.202   6.217   3.254
13201WAT     H139845   3.116   6.177   3.221
13201WAT     H239846   3.200   6.316   3.241
13202WAT      O39847   8.069   3.806   4.169
13202WAT     H139848   8.148   3.805   4.108
13202WAT     H239849   7.990   3.843   4.121
13203WAT      O39850   8.996   6.612   9.049
13203WAT     H139851   8.914   6.564   9.078
13203WAT     H239852   9.064   6.611   9.122
13204WAT      O39853   0.898   2.534   2.032
13204WAT     H139854   0.987   2.516   1.990
13204WAT     H239855   0.828   2.542   1.961
13205WAT      O39856   5.086   5.795   7.236
13205WAT     H139857   5.005   5.854   7.231
13205WAT     H239858   5.065   5.714   7.290
13206WAT      O39859   8.024   9.519   3.200
13206WAT     H139860   7.988   9.578   3.273
13206WAT     H239861   7.958   9.448   3.178
13207WAT      O39862   1.834   9.014   1.439
13207WAT     H139863   1.832   9.053   1.532
13207WAT     H239864   1.826   9.088   1.372
13208WAT      O39865   4.853   4.495   6.249
13208WAT     H139866   4.874   4.486   6.152
13208WAT     H239867   4.815   4.409   6.283
13209WAT      O39868   7.663   8.921   9.564
13209WAT     H139869   7.582   8.885   9.611
13209WAT     H239870   7.679   9.015   9.593
13210WAT      O39871   6.920   5.346   6.183
13210WAT     H139872   6.884   5.340   6.276
13210WAT     H239873   6.996   5.411   6.181
13211WAT      O39874   0.568   8.337   0.690
13211WAT     H139875   0.655   8.385   0.704
13211WAT     H239876   0.561   8.262   0.756
13212WAT      O39877   2.923   9.754   5.055
13212WAT     H139878   2.965   9.840   5.084
13212WAT     H239879   2.927   9.747   4.955
13213WAT      O39880   2.556   8.791   7.251
13213WAT     H139881   2.556   8.890   7.266
13213WAT     H239882   2.541   8.744   7.339
13214WAT      O39883   8.488   1.632   0.744
13214WAT     H139884   8.475   1.730   0.736
13214WAT     H239885   8.511   1.609   0.839
13215WAT      O39886   3.703   7.831   2.650
13215WAT     H139887   3.617   7.849   2.698
13215WAT     H239888   3.690   7.758   2.584
13216WAT      O39889   5.329   2.610   9.270
13216WAT     H139890   5.250   2.620   9.209
13216WAT     H239891   5.315   2.664   9.352
13217WAT      O39892   0.120   8.801   7.250
13217WAT     H139893   0.153   8.870   7.314
13217WAT     H239894   0.047   8.839   7.193
13218WAT      O39895   5.334   7.269   4.356
13218WAT     H139896   5.378   7.346   4.402
13218WAT     H239897   5.403   7.198   4.338
13219WAT      O39898   7.497   2.833   1.900
13219WAT     H139899   7.401   2.807   1.903
13219WAT     H239900   7.510   2.920   1.948
13220WAT      O39901   4.904   1.439   8.410
13220WAT     H139902   4.833   1.509   8.415
13220WAT     H239903   4.931   1.413   8.503
13221WAT      O39904   3.870   4.765   2.174
13221WAT     H139905   3.827   4.687   2.220
13221WAT     H239906   3.803   4.808   2.113
13222WAT      O39907   5.059   4.442   8.353
13222WAT     H139908   5.055   4.366   8.418
13222WAT     H239909   5.107   4.519   8.395
13223WAT      O39910   6.768   7.972   9.729
13223WAT     H139911   6.677   8.012   9.738
13223WAT     H239912   6.767   7.899   9.661
13224WAT      O39913   3.862   7.449   8.867
13224WAT     H139914   3.896   7.357   8.885
13224WAT     H239915   3.763   7.446   8.855
13225WAT      O39916   1.669   1.735   0.201
13225WAT     H139917   1.704   1.819   0.161
13225WAT     H239918   1.742   1.666   0.203
13226WAT      O39919   2.136   8.693   5.663
13226WAT     H139920   2.188   8.768   5.624
13226WAT     H239921   2.186   8.607   5.651
13227WAT      O39922   6.401   8.276   9.561
13227WAT     H139923   6.422   8.237   9.651
13227WAT     H239924   6.353   8.208   9.505
13228WAT      O39925   9.307   5.024   0.147
13228WAT     H139926   9.298   5.048   0.243
13228WAT     H239927   9.356   5.096   0.098
13229WAT      O39928   2.553   7.456   5.459
13229WAT     H139929   2.580   7.424   5.551
13229WAT     H239930   2.527   7.552   5.464
13230WAT      O39931   6.997   3.692   0.095
13230WAT     H139932   6.992   3.603   0.140
13230WAT     H239933   6.905   3.728   0.081
13231WAT      O39934   5.222   9.336   1.970
13231WAT     H139935   5.299   9.386   2.009
13231WAT     H239936   5.166   9.398   1.915
13232WAT      O39937   2.125   8.453   7.057
13232WAT     H139938   2.118   8.371   7.001
13232WAT     H239939   2.033   8.492   7.070
13233WAT      O39940   4.584   8.266   6.299
13233WAT     H139941   4.511   8.302   6.242
13233WAT     H239942   4.552   8.187   6.350
13234WAT      O39943   1.770   8.864   6.175
13234WAT     H139944   1.790   8.820   6.087
13234WAT     H239945   1.806   8.957   6.173
13235WAT      O39946   8.832   6.259   3.777
13235WAT     H139947   8.774   6.336   3.803
13235WAT     H239948   8.783   6.173   3.794
13236WAT      O39949   4.408   8.322   1.972
13236WAT     H139950   4.321   8.351   1.932
13236WAT     H239951   4.409   8.346   2.069
13237WAT      O39952   0.138   2.141   3.385
13237WAT     H139953   0.139   2.099   3.476
13237WAT     H239954   0.231   2.140   3.347
13238WAT      O39955   0.336   4.512   6.110
13238WAT     H139956   0.325   4.452   6.031
13238WAT     H239957   0.421   4.489   6.158
13239WAT      O39958   5.915   0.746   7.152
13239WAT     H139959   5.864   0.803   7.088
13239WAT     H239960   5.903   0.780   7.245
13240WAT      O39961   1.683   9.545   8.494
13240WAT     H139962   1.680   9.569   8.397
13240WAT     H239963   1.601   9.494   8.519
13241WAT      O39964   7.580   6.234   6.782
13241WAT     H139965   7.480   6.225   6.777
13241WAT     H239966   7.623   6.149   6.752
13242WAT      O39967   4.826   4.610   4.737
13242WAT     H139968   4.921   4.614   4.705
13242WAT     H239969   4.820   4.549   4.816
13243WAT      O39970   0.798   9.352   9.675
13243WAT     H139971   0.722   9.404   9.636
13243WAT     H239972   0.766   9.260   9.698
13244WAT      O39973   2.343   2.378   2.936
13244WAT     H139974   2.365   2.281   2.948
13244WAT     H239975   2.402   2.433   2.994
13245WAT      O39976   3.311   2.727   6.149
13245WAT     H139977   3.324   2.776   6.063
13245WAT     H239978   3.399   2.717   6.196
13246WAT      O39979   0.876   3.839   2.497
13246WAT     H139980   0.963   3.860   2.452
13246WAT     H239981   0.894   3.792   2.583
13247WAT      O39982   0.056   0.500   6.022
13247WAT     H139983   0.128   0.431   6.016
13247WAT     H239984  -0.030   0.462   5.988
13248WAT      O39985   3.212   5.099   3.541
13248WAT     H139986   3.199   5.083   3.639
13248WAT     H239987   3.291   5.047   3.510
13249WAT      O39988   6.687   3.557   0.169
13249WAT     H139989   6.599   3.510   0.177
13249WAT     H239990   6.673   3.645   0.124
13250WAT      O39991   8.634   7.982   8.901
13250WAT     H139992   8.692   7.901   8.888
13250WAT     H239993   8.681   8.062   8.865
13251WAT      O39994   5.340   9.274   8.612
13251WAT     H139995   5.343   9.352   8.549
13251WAT     H239996   5.290   9.198   8.569
13252WAT      O39997   0.436   9.307   6.320
13252WAT     H139998   0.354   9.282   6.370
13252WAT     H239999   0.412   9.331   6.226
13253WAT      O40000   3.335   9.784   0.129
13253WAT     H140001   3.322   9.882   0.146
13253WAT     H240002   3.420   9.770   0.078
13254WAT      O40003   6.556   4.235   9.806
13254WAT     H140004   6.524   4.164   9.744
13254WAT     H240005   6.645   4.209   9.843
13255WAT      O40006   9.877   2.764   7.400
13255WAT     H140007   9.927   2.765   7.313
13255WAT     H240008   9.853   2.857   7.426
13256WAT      O40009   2.869   1.511   2.467
13256WAT     H140010   2.809   1.573   2.518
13256WAT     H240011   2.818   1.431   2.438
13257WAT      O40012   3.429   4.078   8.415
13257WAT     H140013   3.392   4.055   8.505
13257WAT     H240014   3.373   4.035   8.344
13258WAT      O40015   7.805   0.803   2.484
13258WAT     H140016   7.885   0.743   2.482
13258WAT     H240017   7.835   0.898   2.492
13259WAT      O40018   0.341   8.610   6.807
13259WAT     H140019   0.369   8.685   6.868
13259WAT     H240020   0.309   8.533   6.862
13260WAT      O40021   5.582   4.168   8.114
13260WAT     H140022   5.545   4.252   8.072
13260WAT     H240023   5.681   4.169   8.109
13261WAT      O40024   8.972   1.717   8.937
13261WAT     H140025   9.004   1.686   9.026
13261WAT     H240026   8.872   1.724   8.939
13262WAT      O40027   0.787   3.086   9.507
13262WAT     H140028   0.691   3.085   9.537
13262WAT     H240029   0.847   3.068   9.585
13263WAT      O40030   3.899   4.079   9.007
13263WAT     H140031   3.820   4.140   9.003
13263WAT     H240032   3.903   4.035   9.096
13264WAT      O40033   6.054   0.237   8.094
13264WAT     H140034   5.974   0.178   8.104
13264WAT     H240035   6.082   0.238   7.998
13265WAT      O40036   0.157   2.941   5.910
13265WAT     H140037   0.167   2.900   5.819
13265WAT     H240038   0.237   2.921   5.965
13266WAT      O40039   8.082   8.563   9.358
13266WAT     H140040   8.006   8.616   9.396
13266WAT     H240041   8.111   8.495   9.425
13267WAT      O40042   8.879   5.170   4.292
13267WAT     H140043   8.837   5.080   4.283
13267WAT     H240044   8.809   5.241   4.286
13268WAT      O40045   4.071   8.745   0.879
13268WAT     H140046   4.055   8.660   0.928
13268WAT     H240047   3.984   8.788   0.856
13269WAT      O40048   4.819   7.052   8.545
13269WAT     H140049   4.908   7.035   8.588
13269WAT     H240050   4.827   7.126   8.479
13270WAT      O40051   0.379   2.606   7.936
13270WAT     H140052   0.331   2.681   7.980
13270WAT     H240053   0.372   2.616   7.836
13271WAT      O40054   3.450   9.335   5.431
13271WAT     H140055   3.479   9.393   5.354
13271WAT     H240056   3.391   9.262   5.398
13272WAT      O40057   6.495   8.313   5.987
13272WAT     H140058   6.432   8.387   5.963
13272WAT     H240059   6.449   8.246   6.044
13273WAT      O40060   4.137   2.934   6.506
13273WAT     H140061   4.163   2.875   6.430
13273WAT     H240062   4.174   3.026   6.490
13274WAT      O40063   8.354   3.530   7.506
13274WAT     H140064   8.453   3.544   7.517
13274WAT     H240065   8.337   3.489   7.416
13275WAT      O40066   5.263   4.217   5.296
13275WAT     H140067   5.172   4.257   5.301
13275WAT     H240068   5.259   4.120   5.319
13276WAT      O40069   9.581   1.621   3.396
13276WAT     H140070   9.680   1.616   3.386
13276WAT     H240071   9.540   1.537   3.359
13277WAT      O40072   2.623   8.275   4.330
13277WAT     H140073   2.524   8.283   4.342
13277WAT     H240074   2.670   8.313   4.409
13278WAT      O40075   0.010   8.014   4.376
13278WAT     H140076   0.056   8.077   4.313
13278WAT     H240077  -0.067   8.060   4.419
13279WAT      O40078   4.628   9.836   6.095
13279WAT     H140079   4.672   9.776   6.161
13279WAT     H240080   4.689   9.850   6.016
13280WAT      O40081   9.415   8.369   4.856
13280WAT     H140082   9.362   8.430   4.914
13280WAT     H240083   9.450   8.293   4.911
13281WAT      O40084   9.637   6.020   4.184
13281WAT     H140085   9.578   6.011   4.103
13281WAT     H240086   9.731   5.994   4.160
13282WAT      O40087   0.292   2.607   2.441
13282WAT     H140088   0.245   2.539   2.498
13282WAT     H240089   0.245   2.615   2.353
13283WAT      O40090   7.472   9.742   8.309
13283WAT     H140091   7.387   9.779   8.271
13283WAT     H240092   7.486   9.779   8.400
13284WAT      O40093   7.737   0.053   0.723
13284WAT     H140094   7.720  -0.019   0.790
13284WAT     H240095   7.832   0.047   0.691
13285WAT      O40096   0.133   4.222   8.745
13285WAT     H140097   0.226   4.254   8.763
13285WAT     H240098   0.070   4.268   8.809
13286WAT      O40099   0.302   6.220   7.932
13286WAT     H140100   0.329   6.313   7.955
13286WAT     H240101   0.383   6.161   7.930
13287WAT      O40102   9.164   9.496   3.103
13287WAT     H140103   9.216   9.471   3.021
13287WAT     H240104   9.097   9.567   3.080
13288WAT      O40105   7.487   7.438   4.195
13288WAT     H140106   7.424   7.514   4.212
13288WAT     H240107   7.436   7.352   4.198
13289WAT      O40108   6.438   0.816   2.141
13289WAT     H140109   6.339   0.829   2.135
13289WAT     H240110   6.473   0.863   2.222
13290WAT      O40111   5.140   1.706   6.912
13290WAT     H140112   5.108   1.787   6.960
13290WAT     H240113   5.073   1.632   6.923
13291WAT      O40114   4.109   6.624   4.843
13291WAT     H140115   4.187   6.618   4.780
13291WAT     H240116   4.061   6.536   4.845
13292WAT      O40117   0.239   3.821   5.129
13292WAT     H140118   0.325   3.772   5.143
13292WAT     H240119   0.208   3.806   5.035
13293WAT      O40120   4.527   9.571   0.146
13293WAT     H140121   4.558   9.513   0.221
13293WAT     H240122   4.460   9.522   0.091
13294WAT      O40123   0.546   4.974   9.378
13294WAT     H140124   0.495   4.891   9.399
13294WAT     H240125   0.533   5.041   9.451
13295WAT      O40126   5.279   6.326   1.101
13295WAT     H140127   5.321   6.398   1.157
13295WAT     H240128   5.331   6.241   1.111
13296WAT      O40129   4.370   3.270   4.929
13296WAT     H140130   4.430   3.204   4.884
13296WAT     H240131   4.426   3.340   4.974
13297WAT      O40132   9.589   7.899   2.400
13297WAT     H140133   9.662   7.851   2.353
13297WAT     H240134   9.586   7.869   2.496
13298WAT      O40135   0.767   3.837   4.120
13298WAT     H140136   0.706   3.894   4.066
13298WAT     H240137   0.859   3.876   4.119
13299WAT      O40138   3.679   4.780   1.037
13299WAT     H140139   3.706   4.778   1.134
13299WAT     H240140   3.670   4.687   1.003
13300WAT      O40141   8.389   5.684   9.877
13300WAT     H140142   8.331   5.660   9.800
13300WAT     H240143   8.348   5.649   9.962
13301WAT      O40144   9.136   9.057   4.116
13301WAT     H140145   9.205   8.992   4.147
13301WAT     H240146   9.119   9.125   4.188
13302WAT      O40147   5.468   2.003   0.956
13302WAT     H140148   5.435   1.943   0.883
13302WAT     H240149   5.512   2.083   0.917
13303WAT      O40150   7.333   3.499   0.057
13303WAT     H140151   7.242   3.462   0.039
13303WAT     H240152   7.394   3.475  -0.018
13304WAT      O40153   3.342   9.013   6.904
13304WAT     H140154   3.267   8.985   6.844
13304WAT     H240155   3.354   9.112   6.896
13305WAT      O40156   0.829   4.879   8.473
13305WAT     H140157   0.830   4.779   8.463
13305WAT     H240158   0.766   4.918   8.406
13306WAT      O40159   2.385   4.295   6.215
13306WAT     H140160   2.287   4.312   6.205
13306WAT     H240161   2.436   4.368   6.170
13307WAT      O40162   7.030   1.725   1.472
13307WAT     H140163   6.980   1.649   1.514
13307WAT     H240164   7.120   1.694   1.442
13308WAT      O40165   9.740   2.157   7.519
13308WAT     H140166   9.711   2.092   7.449
13308WAT     H240167   9.839   2.151   7.532
13309WAT      O40168   8.940   0.374   2.407
13309WAT     H140169   8.851   0.396   2.446
13309WAT     H240170   8.953   0.426   2.322
13310WAT      O40171   3.924   2.389   4.932
13310WAT     H140172   3.849   2.445   4.969
13310WAT     H240173   3.944   2.315   4.997
13311WAT      O40174   2.731   5.137   5.490
13311WAT     H140175   2.784   5.106   5.568
13311WAT     H240176   2.727   5.237   5.489
13312WAT      O40177   0.570   5.892   5.318
13312WAT     H140178   0.652   5.864   5.269
13312WAT     H240179   0.552   5.828   5.393
13313WAT      O40180   5.958   5.784   0.043
13313WAT     H140181   5.959   5.853   0.115
13313WAT     H240182   5.919   5.823  -0.040
13314WAT      O40183   0.172   6.779   3.201
13314WAT     H140184   0.121   6.693   3.199
13314WAT     H240185   0.187   6.806   3.296
13315WAT      O40186   2.746   6.510   9.146
13315WAT     H140187   2.716   6.525   9.051
13315WAT     H240188   2.724   6.416   9.172
13316WAT      O40189   1.050   5.293   9.297
13316WAT     H140190   1.017   5.363   9.361
13316WAT     H240191   1.150   5.295   9.294
13317WAT      O40192   7.284   2.186   5.914
13317WAT     H140193   7.227   2.253   5.868
13317WAT     H240194   7.304   2.110   5.852
13318WAT      O40195   3.833   6.797   6.741
13318WAT     H140196   3.907   6.858   6.712
13318WAT     H240197   3.869   6.728   6.803
13319WAT      O40198   9.361   8.483   6.267
13319WAT     H140199   9.454   8.510   6.291
13319WAT     H240200   9.364   8.410   6.198
13320WAT      O40201   2.872   8.133   1.150
13320WAT     H140202   2.798   8.126   1.084
13320WAT     H240203   2.856   8.066   1.224
13321WAT      O40204   4.792   7.971   4.153
13321WAT     H140205   4.843   7.885   4.146
13321WAT     H240206   4.765   7.986   4.248
13322WAT      O40207   6.117   1.367   4.384
13322WAT     H140208   6.148   1.406   4.471
13322WAT     H240209   6.092   1.271   4.397
13323WAT      O40210   8.200   5.819   1.806
13323WAT     H140211   8.250   5.781   1.884
13323WAT     H240212   8.122   5.871   1.839
13324WAT      O40213   7.866   0.277   6.209
13324WAT     H140214   7.877   0.297   6.306
13324WAT     H240215   7.901   0.354   6.155
13325WAT      O40216   5.081   5.741   6.336
13325WAT     H140217   5.068   5.789   6.423
13325WAT     H240218   5.140   5.662   6.351
13326WAT      O40219   5.795   0.835   6.919
13326WAT     H140220   5.785   0.919   6.866
13326WAT     H240221   5.865   0.777   6.877
13327WAT      O40222   2.586   1.202   3.234
13327WAT     H140223   2.577   1.123   3.294
13327WAT     H240224   2.683   1.221   3.218
13328WAT      O40225   6.945   1.803   8.170
13328WAT     H140226   6.942   1.758   8.081
13328WAT     H240227   6.882   1.880   8.171
13329WAT      O40228   2.635   9.448   1.657
13329WAT     H140229   2.696   9.517   1.695
13329WAT     H240230   2.561   9.492   1.608
13330WAT      O40231   9.342   9.238   4.995
13330WAT     H140232   9.288   9.233   4.911
13330WAT     H240233   9.430   9.193   4.981
13331WAT      O40234   3.292   1.975   0.388
13331WAT     H140235   3.362   2.046   0.395
13331WAT     H240236   3.220   2.005   0.326
13332WAT      O40237   6.305   2.113   8.717
13332WAT     H140238   6.271   2.200   8.751
13332WAT     H240239   6.262   2.093   8.629
13333WAT      O40240   1.042   5.278   7.749
13333WAT     H140241   1.007   5.187   7.773
13333WAT     H240242   1.138   5.270   7.723
13334WAT      O40243   4.277   7.564   4.973
13334WAT     H140244   4.353   7.543   4.912
13334WAT     H240245   4.191   7.538   4.930
13335WAT      O40246   7.554   8.549   3.232
13335WAT     H140247   7.624   8.615   3.206
13335WAT     H240248   7.590   8.487   3.301
13336WAT      O40249   8.780   7.502   9.827
13336WAT     H140250   8.818   7.488   9.919
13336WAT     H240251   8.692   7.548   9.834
13337WAT      O40252   7.178   2.505   1.161
13337WAT     H140253   7.132   2.564   1.228
13337WAT     H240254   7.113   2.477   1.091
13338WAT      O40255   6.417   8.640   9.741
13338WAT     H140256   6.446   8.612   9.649
13338WAT     H240257   6.448   8.572   9.808
13339WAT      O40258   8.422   2.263   6.829
13339WAT     H140259   8.396   2.170   6.853
13339WAT     H240260   8.349   2.305   6.774
13340WAT      O40261   1.206   3.270   1.230
13340WAT     H140262   1.163   3.198   1.175
13340WAT     H240263   1.157   3.279   1.317
13341WAT      O40264   4.126   2.495   5.881
13341WAT     H140265   4.046   2.436   5.869
13341WAT     H240266   4.209   2.439   5.885
13342WAT      O40267   6.480   5.500   1.786
13342WAT     H140268   6.462   5.437   1.711
13342WAT     H240269   6.505   5.448   1.868
13343WAT      O40270   8.887   5.206   8.882
13343WAT     H140271   8.831   5.123   8.886
13343WAT     H240272   8.861   5.259   8.801
13344WAT      O40273   3.818   0.953   2.195
13344WAT     H140274   3.875   0.950   2.113
13344WAT     H240275   3.735   0.900   2.180
13345WAT      O40276   8.579   4.808   1.840
13345WAT     H140277   8.619   4.720   1.816
13345WAT     H240278   8.619   4.841   1.925
13346WAT      O40279   3.338   4.700   6.249
13346WAT     H140280   3.290   4.640   6.313
13346WAT     H240281   3.290   4.700   6.161
13347WAT      O40282   7.768   4.227   0.817
13347WAT     H140283   7.826   4.220   0.736
13347WAT     H240284   7.821   4.203   0.898
13348WAT      O40285   7.505   8.952   0.744
13348WAT     H140286   7.545   8.992   0.661
13348WAT     H240287   7.522   9.013   0.821
13349WAT      O40288   5.677   8.545   9.314
13349WAT     H140289   5.683   8.632   9.365
13349WAT     H240290   5.662   8.565   9.217
13350WAT      O40291   0.562   3.831   3.012
13350WAT     H140292   0.607   3.747   3.040
13350WAT     H240293   0.630   3.905   3.006
13351WAT      O40294   6.565   0.585   2.399
13351WAT     H140295   6.597   0.585   2.305
13351WAT     H240296   6.637   0.551   2.459
13352WAT      O40297   7.839   3.846   2.023
13352WAT     H140298   7.784   3.929   2.037
13352WAT     H240299   7.845   3.796   2.110
13353WAT      O40300   3.369   0.743   6.308
13353WAT     H140301   3.386   0.827   6.360
13353WAT     H240302   3.449   0.723   6.250
13354WAT      O40303   4.777   5.531   1.581
13354WAT     H140304   4.778   5.467   1.505
13354WAT     H240305   4.828   5.614   1.557
13355WAT      O40306   5.689   7.347   6.411
13355WAT     H140307   5.649   7.301   6.332
13355WAT     H240308   5.782   7.315   6.425
13356WAT      O40309   7.190   9.185   8.486
13356WAT     H140310   7.288   9.197   8.504
13356WAT     H240311   7.172   9.200   8.389
13357WAT      O40312   9.826   1.546   3.293
13357WAT     H140313   9.862   1.468   3.344
13357WAT     H240314   9.801   1.517   3.200
13358WAT      O40315   9.513   6.598   1.034
13358WAT     H140316   9.451   6.626   1.107
13358WAT     H240317   9.513   6.668   0.962
13359WAT      O40318   9.628   6.444   2.031
13359WAT     H140319   9.639   6.493   1.944
13359WAT     H240320   9.654   6.504   2.106
13360WAT      O40321   8.218   0.778   9.211
13360WAT     H140322   8.162   0.732   9.281
13360WAT     H240323   8.177   0.765   9.121
13361WAT      O40324   2.485   0.610   2.274
13361WAT     H140325   2.400   0.637   2.320
13361WAT     H240326   2.551   0.578   2.342
13362WAT      O40327   9.608   5.703   3.888
13362WAT     H140328   9.564   5.697   3.798
13362WAT     H240329   9.538   5.702   3.959
13363WAT      O40330   7.049   7.534   2.917
13363WAT     H140331   7.066   7.536   2.819
13363WAT     H240332   7.135   7.533   2.967
13364WAT      O40333   9.857   9.188   2.369
13364WAT     H140334   9.793   9.113   2.385
13364WAT     H240335   9.875   9.196   2.271
13365WAT      O40336   5.813   7.215   9.319
13365WAT     H140337   5.762   7.130   9.316
13365WAT     H240338   5.754   7.291   9.293
13366WAT      O40339   7.415   8.562   1.134
13366WAT     H140340   7.513   8.562   1.113
13366WAT     H240341   7.363   8.540   1.052
13367WAT      O40342   9.823   1.280   9.830
13367WAT     H140343   9.817   1.200   9.891
13367WAT     H240344   9.809   1.250   9.735
13368WAT      O40345   1.893   0.644   0.370
13368WAT     H140346   1.827   0.710   0.334
13368WAT     H240347   1.985   0.671   0.340
13369WAT      O40348   2.303   2.645   2.878
13369WAT     H140349   2.238   2.694   2.936
13369WAT     H240350   2.300   2.547   2.900
13370WAT      O40351   6.933   4.755   5.767
13370WAT     H140352   6.995   4.758   5.689
13370WAT     H240353   6.909   4.848   5.794
13371WAT      O40354   3.384   5.429   2.461
13371WAT     H140355   3.383   5.427   2.361
13371WAT     H240356   3.389   5.524   2.492
13372WAT      O40357   6.248   9.684   5.994
13372WAT     H140358   6.275   9.688   5.898
13372WAT     H240359   6.216   9.775   6.023
13373WAT      O40360   3.059   8.483   6.366
13373WAT     H140361   3.104   8.571   6.382
13373WAT     H240362   3.075   8.423   6.444
13374WAT      O40363   0.286   8.995   5.327
13374WAT     H140364   0.243   8.972   5.414
13374WAT     H240365   0.240   8.947   5.252
13375WAT      O40366   2.766   6.930   5.092
13375WAT     H140367   2.697   6.866   5.126
13375WAT     H240368   2.824   6.883   5.026
13376WAT      O40369   6.951   2.976   9.856
13376WAT     H140370   6.870   3.032   9.870
13376WAT     H240371   7.010   3.019   9.788
13377WAT      O40372   0.807   6.738   8.469
13377WAT     H140373   0.784   6.715   8.374
13377WAT     H240374   0.740   6.803   8.504
13378WAT      O40375   7.099   0.216   2.097
13378WAT     H140376   7.061   0.216   2.190
13378WAT     H240377   7.184   0.269   2.096
13379WAT      O40378   5.125   9.115   7.071
13379WAT     H140379   5.091   9.056   6.998
13379WAT     H240380   5.222   9.097   7.087
13380WAT      O40381   7.617   6.952   6.774
13380WAT     H140382   7.648   6.864   6.810
13380WAT     H240383   7.543   6.987   6.831
13381WAT      O40384   3.443   6.641   0.938
13381WAT     H140385   3.424   6.663   1.033
13381WAT     H240386   3.419   6.545   0.920
13382WAT      O40387   4.596   6.831   8.697
13382WAT     H140388   4.503   6.806   8.672
13382WAT     H240389   4.643   6.871   8.618
13383WAT      O40390   9.737   6.952   6.501
13383WAT     H140391   9.764   6.856   6.496
13383WAT     H240392   9.718   6.986   6.409
13384WAT      O40393   9.269   0.180   1.311
13384WAT     H140394   9.314   0.092   1.295
13384WAT     H240395   9.170   0.167   1.308
13385WAT      O40396   7.019   7.099   7.050
13385WAT     H140397   7.016   7.025   7.117
13385WAT     H240398   7.096   7.159   7.071
13386WAT      O40399   9.386   9.627   7.517
13386WAT     H140400   9.351   9.717   7.492
13386WAT     H240401   9.310   9.566   7.537
13387WAT      O40402   7.071   0.562   7.588
13387WAT     H140403   7.074   0.641   7.527
13387WAT     H240404   6.985   0.513   7.575
13388WAT      O40405   4.659   1.823   2.538
13388WAT     H140406   4.726   1.808   2.466
13388WAT     H240407   4.706   1.834   2.626
13389WAT      O40408   7.452   2.398   6.325
13389WAT     H140409   7.445   2.495   6.347
13389WAT     H240410   7.438   2.384   6.227
13390WAT      O40411   1.211   8.795   1.583
13390WAT     H140412   1.178   8.773   1.491
13390WAT     H240413   1.226   8.710   1.634
13391WAT      O40414   1.422   0.424   5.712
13391WAT     H140415   1.516   0.393   5.726
13391WAT     H240416   1.374   0.425   5.800
13392WAT      O40417   6.740   0.213   4.294
13392WAT     H140418   6.730   0.116   4.319
13392WAT     H240419   6.787   0.220   4.206
13393WAT      O40420   2.801   9.085   4.316
13393WAT     H140421   2.848   9.100   4.228
13393WAT     H240422   2.828   8.995   4.352
13394WAT      O40423   7.391   1.913   2.246
13394WAT     H140424   7.413   1.857   2.325
13394WAT     H240425   7.310   1.876   2.201
13395WAT      O40426   9.375   3.885   9.632
13395WAT     H140427   9.278   3.909   9.625
13395WAT     H240428   9.405   3.896   9.727
13396WAT      O40429   1.886   3.805   7.972
13396WAT     H140430   1.964   3.764   7.923
13396WAT     H240431   1.880   3.902   7.950
13397WAT      O40432   1.170   2.602   5.468
13397WAT     H140433   1.241   2.663   5.432
13397WAT     H240434   1.090   2.656   5.493
13398WAT      O40435   1.027   5.081   7.393
13398WAT     H140436   0.942   5.134   7.387
13398WAT     H240437   1.017   5.010   7.462
13399WAT      O40438   2.248   3.883   3.759
13399WAT     H140439   2.269   3.855   3.665
13399WAT     H240440   2.291   3.819   3.823
13400WAT      O40441   6.187   5.338   4.681
13400WAT     H140442   6.129   5.373   4.754
13400WAT     H240443   6.281   5.331   4.713
13401WAT      O40444   7.456   1.489   3.768
13401WAT     H140445   7.426   1.397   3.743
13401WAT     H240446   7.471   1.494   3.867
13402WAT      O40447   7.044   2.991   8.477
13402WAT     H140448   7.113   3.052   8.436
13402WAT     H240449   7.082   2.950   8.560
13403WAT      O40450   6.179   2.964   3.060
13403WAT     H140451   6.157   2.993   2.967
13403WAT     H240452   6.278   2.949   3.068
13404WAT      O40453   5.007   8.978   7.744
13404WAT     H140454   4.995   8.879   7.746
13404WAT     H240455   5.100   9.000   7.715
13405WAT      O40456   6.880   9.791   8.054
13405WAT     H140457   6.935   9.720   8.098
13405WAT     H240458   6.841   9.756   7.969
13406WAT      O40459   0.049   1.222   6.195
13406WAT     H140460   0.069   1.312   6.157
13406WAT     H240461   0.110   1.204   6.272
13407WAT      O40462   8.082   0.963   3.796
13407WAT     H140463   8.014   1.033   3.774
13407WAT     H240464   8.059   0.919   3.883
13408WAT      O40465   4.470   9.822   8.659
13408WAT     H140466   4.533   9.764   8.608
13408WAT     H240467   4.379   9.781   8.658
13409WAT      O40468   9.089   3.743   3.353
13409WAT     H140469   8.997   3.781   3.362
13409WAT     H240470   9.103   3.709   3.260
13410WAT      O40471   4.022   2.783   9.710
13410WAT     H140472   4.107   2.750   9.669
13410WAT     H240473   3.998   2.871   9.671
13411WAT      O40474   0.609   6.073   7.992
13411WAT     H140475   0.678   6.002   8.005
13411WAT     H240476   0.649   6.149   7.941
13412WAT      O40477   1.249   8.648   9.724
13412WAT     H140478   1.226   8.654   9.627
13412WAT     H240479   1.341   8.612   9.734
13413WAT      O40480   9.448   2.215   1.482
13413WAT     H140481   9.498   2.156   1.419
13413WAT     H240482   9.358   2.235   1.444
13414WAT      O40483   6.928   7.582   1.797
13414WAT     H140484   6.988   7.622   1.866
13414WAT     H240485   6.971   7.500   1.758
13415WAT      O40486   5.209   7.177   4.590
13415WAT     H140487   5.225   7.181   4.689
13415WAT     H240488   5.258   7.252   4.545
13416WAT      O40489   9.307   6.890   7.526
13416WAT     H140490   9.341   6.971   7.575
13416WAT     H240491   9.371   6.866   7.454
13417WAT      O40492   8.053   1.668   6.325
13417WAT     H140493   8.147   1.648   6.351
13417WAT     H240494   8.009   1.721   6.397
13418WAT      O40495   6.783   6.849   3.101
13418WAT     H140496   6.838   6.770   3.127
13418WAT     H240497   6.689   6.835   3.132
13419WAT      O40498   5.005   8.900   4.514
13419WAT     H140499   4.953   8.869   4.594
13419WAT     H240500   5.064   8.976   4.541
13420WAT      O40501   9.648   5.657   8.151
13420WAT     H140502   9.562   5.671   8.201
13420WAT     H240503   9.631   5.601   8.070
13421WAT      O40504   2.538   9.040   2.221
13421WAT     H140505   2.465   9.029   2.289
13421WAT     H240506   2.598   9.115   2.249
13422WAT      O40507   8.475   6.044   3.523
13422WAT     H140508   8.461   6.135   3.484
13422WAT     H240509   8.388   5.994   3.521
13423WAT      O40510   6.448   1.842   6.018
13423WAT     H140511   6.383   1.861   6.092
13423WAT     H240512   6.502   1.761   6.040
13424WAT      O40513   1.286   8.437   8.259
13424WAT     H140514   1.343   8.473   8.185
13424WAT     H240515   1.283   8.503   8.334
13425WAT      O40516   5.694   3.862   2.148
13425WAT     H140517   5.685   3.777   2.201
13425WAT     H240518   5.787   3.868   2.113
13426WAT      O40519   7.186   7.157   5.768
13426WAT     H140520   7.174   7.060   5.789
13426WAT     H240521   7.125   7.212   5.825
13427WAT      O40522   9.559   9.111   2.747
13427WAT     H140523   9.653   9.103   2.780
13427WAT     H240524   9.496   9.104   2.824
13428WAT      O40525   7.407   2.380   1.193
13428WAT     H140526   7.319   2.426   1.177
13428WAT     H240527   7.482   2.440   1.164
13429WAT      O40528   2.772   5.820   6.037
13429WAT     H140529   2.819   5.899   6.075
13429WAT     H240530   2.823   5.737   6.059
13430WAT      O40531   4.624   4.917   1.562
13430WAT     H140532   4.642   4.829   1.517
13430WAT     H240533   4.597   4.984   1.494
13431WAT      O40534   3.030   0.523   2.883
13431WAT     H140535   3.127   0.511   2.904
13431WAT     H240536   3.016   0.610   2.837
13432WAT      O40537   4.365   3.801   0.106
13432WAT     H140538   4.464   3.815   0.106
13432WAT     H240539   4.320   3.888   0.087
13433WAT      O40540   6.943   2.236   9.003
13433WAT     H140541   7.005   2.314   9.003
13433WAT     H240542   6.853   2.265   8.969
13434WAT      O40543   4.743   5.909   1.717
13434WAT     H140544   4.716   5.893   1.812
13434WAT     H240545   4.661   5.914   1.660
13435WAT      O40546   6.397   9.043   7.608
13435WAT     H140547   6.422   9.136   7.578
13435WAT     H240548   6.480   8.992   7.630
13436WAT      O40549   8.408   7.589   8.657
13436WAT     H140550   8.312   7.602   8.632
13436WAT     H240551   8.418   7.599   8.756
13437WAT      O40552   9.288   4.926   2.298
13437WAT     H140553   9.234   4.842   2.293
13437WAT     H240554   9.348   4.922   2.377
13438WAT      O40555   3.400   7.184   4.811
13438WAT     H140556   3.376   7.237   4.892
13438WAT     H240557   3.355   7.223   4.730
13439WAT      O40558   3.525   8.488   7.490
13439WAT     H140559   3.539   8.389   7.487
13439WAT     H240560   3.523   8.519   7.585
13440WAT      O40561   0.650   7.594   2.102
13440WAT     H140562   0.583   7.531   2.063
13440WAT     H240563   0.605   7.681   2.124
13441WAT      O40564   7.521   7.746   8.514
13441WAT     H140565   7.514   7.798   8.428
13441WAT     H240566   7.472   7.795   8.586
13442WAT      O40567   1.895   4.342   9.891
13442WAT     H140568   1.857   4.292   9.969
13442WAT     H240569   1.954   4.281   9.838
13443WAT      O40570   1.320   1.690   2.372
13443WAT     H140571   1.410   1.647   2.376
13443WAT     H240572   1.301   1.718   2.278
13444WAT      O40573   0.364   4.091   0.605
13444WAT     H140574   0.335   4.016   0.545
13444WAT     H240575   0.316   4.085   0.692
13445WAT      O40576   7.644   7.521   8.896
13445WAT     H140577   7.591   7.593   8.852
13445WAT     H240578   7.641   7.533   8.995
13446WAT      O40579   2.211   1.389   8.598
13446WAT     H140580   2.161   1.364   8.681
13446WAT     H240581   2.259   1.475   8.612
13447WAT      O40582   2.111   0.733   1.673
13447WAT     H140583   2.155   0.807   1.725
13447WAT     H240584   2.045   0.772   1.610
13448WAT      O40585   0.257   9.234   1.886
13448WAT     H140586   0.197   9.212   1.963
13448WAT     H240587   0.208   9.217   1.800
13449WAT      O40588   3.801   6.770   5.159
13449WAT     H140589   3.764   6.677   5.154
13449WAT     H240590   3.736   6.834   5.118
13450WAT      O40591   6.142   7.019   4.349
13450WAT     H140592   6.097   6.947   4.298
13450WAT     H240593   6.129   7.107   4.303
13451WAT      O40594   7.300   1.362   8.998
13451WAT     H140595   7.384   1.308   8.999
13451WAT     H240596   7.265   1.366   8.905
13452WAT      O40597   7.670   9.273   0.147
13452WAT     H140598   7.669   9.361   0.196
13452WAT     H240599   7.763   9.253   0.118
13453WAT      O40600   2.940   6.727   0.254
13453WAT     H140601   3.039   6.728   0.241
13453WAT     H240602   2.915   6.655   0.318
13454WAT      O40603   1.241   9.120   2.477
13454WAT     H140604   1.285   9.207   2.458
13454WAT     H240605   1.165   9.133   2.540
13455WAT      O40606   6.289   9.742   5.711
13455WAT     H140607   6.355   9.817   5.704
13455WAT     H240608   6.315   9.668   5.649
13456WAT      O40609   4.003   8.972   8.649
13456WAT     H140610   4.045   9.058   8.622
13456WAT     H240611   3.987   8.972   8.748
13457WAT      O40612   3.939   2.697   3.832
13457WAT     H140613   3.902   2.741   3.914
13457WAT     H240614   4.007   2.757   3.790
13458WAT      O40615   3.573   2.668   6.833
13458WAT     H140616   3.672   2.660   6.816
13458WAT     H240617   3.544   2.762   6.817
13459WAT      O40618   9.037   0.348   7.952
13459WAT     H140619   9.039   0.315   7.858
13459WAT     H240620   8.992   0.437   7.955
13460WAT      O40621   0.943   8.439   4.102
13460WAT     H140622   0.860   8.488   4.074
13460WAT     H240623   1.022   8.500   4.092
13461WAT      O40624   6.767   2.432   3.227
13461WAT     H140625   6.830   2.359   3.200
13461WAT     H240626   6.819   2.509   3.266
13462WAT      O40627   7.159   9.842   0.317
13462WAT     H140628   7.080   9.829   0.257
13462WAT     H240629   7.134   9.816   0.410
13463WAT      O40630   6.122   9.056   6.308
13463WAT     H140631   6.125   9.019   6.401
13463WAT     H240632   6.042   9.115   6.299
13464WAT      O40633   7.709   9.734   7.036
13464WAT     H140634   7.718   9.736   6.937
13464WAT     H240635   7.787   9.780   7.078
13465WAT      O40636   3.545   7.485   6.129
13465WAT     H140637   3.494   7.559   6.173
13465WAT     H240638   3.587   7.427   6.200
13466WAT      O40639   0.372   7.646   1.465
13466WAT     H140640   0.313   7.698   1.403
13466WAT     H240641   0.450   7.702   1.492
13467WAT      O40642   9.160   5.827   1.215
13467WAT     H140643   9.173   5.733   1.247
13467WAT     H240644   9.218   5.844   1.136
13468WAT      O40645   7.760   2.993   4.734
13468WAT     H140646   7.829   2.921   4.735
13468WAT     H240647   7.763   3.040   4.646
13469WAT      O40648   4.774   2.226   5.373
13469WAT     H140649   4.785   2.210   5.275
13469WAT     H240650   4.729   2.314   5.388
13470WAT      O40651   2.269   0.483   4.817
13470WAT     H140652   2.175   0.491   4.784
13470WAT     H240653   2.269   0.467   4.916
13471WAT      O40654   4.282   9.793   5.330
13471WAT     H140655   4.190   9.758   5.313
13471WAT     H240656   4.277   9.891   5.351
13472WAT      O40657   8.063   6.658   5.721
13472WAT     H140658   8.047   6.595   5.797
13472WAT     H240659   7.990   6.647   5.653
13473WAT      O40660   5.928   2.242   4.918
13473WAT     H140661   5.891   2.293   4.996
13473WAT     H240662   5.923   2.144   4.937
13474WAT      O40663   2.572   1.971   8.197
13474WAT     H140664   2.539   2.062   8.172
13474WAT     H240665   2.596   1.969   8.294
13475WAT      O40666   7.064   5.848   6.573
13475WAT     H140667   7.022   5.836   6.483
13475WAT     H240668   7.117   5.933   6.573
13476WAT      O40669   1.667   4.496   0.833
13476WAT     H140670   1.765   4.477   0.842
13476WAT     H240671   1.618   4.451   0.907
13477WAT      O40672   0.440   0.580   8.488
13477WAT     H140673   0.476   0.638   8.561
13477WAT     H240674   0.351   0.543   8.516
13478WAT      O40675   9.381   4.603   6.801
13478WAT     H140676   9.315   4.567   6.735
13478WAT     H240677   9.445   4.664   6.753
13479WAT      O40678   1.983   7.185   1.642
13479WAT     H140679   1.953   7.278   1.666
13479WAT     H240680   2.004   7.135   1.726
13480WAT      O40681   7.823   2.449   5.966
13480WAT     H140682   7.814   2.375   5.899
13480WAT     H240683   7.920   2.465   5.984
13481WAT      O40684   5.763   7.656   2.378
13481WAT     H140685   5.705   7.575   2.386
13481WAT     H240686   5.738   7.722   2.448
13482WAT      O40687   6.729   4.311   7.738
13482WAT     H140688   6.653   4.250   7.760
13482WAT     H240689   6.724   4.339   7.642
13483WAT      O40690   7.908   1.098   8.049
13483WAT     H140691   7.841   1.172   8.043
13483WAT     H240692   7.862   1.014   8.077
13484WAT      O40693   6.305   6.069   6.248
13484WAT     H140694   6.379   6.029   6.303
13484WAT     H240695   6.333   6.073   6.152
13485WAT      O40696   6.206   3.408   3.104
13485WAT     H140697   6.235   3.430   3.197
13485WAT     H240698   6.182   3.492   3.055
13486WAT      O40699   8.779   3.753   7.481
13486WAT     H140700   8.840   3.797   7.414
13486WAT     H240701   8.801   3.786   7.573
13487WAT      O40702   0.608   7.267   8.755
13487WAT     H140703   0.591   7.169   8.753
13487WAT     H240704   0.535   7.312   8.806
13488WAT      O40705   6.420   5.183   5.130
13488WAT     H140706   6.460   5.241   5.201
13488WAT     H240707   6.455   5.090   5.140
13489WAT      O40708   1.271   2.863   5.795
13489WAT     H140709   1.322   2.929   5.739
13489WAT     H240710   1.283   2.885   5.892
13490WAT      O40711   9.068   1.411   2.650
13490WAT     H140712   9.028   1.375   2.566
13490WAT     H240713   9.095   1.335   2.709
13491WAT      O40714   1.481   2.414   9.344
13491WAT     H140715   1.390   2.439   9.310
13491WAT     H240716   1.486   2.432   9.442
13492WAT      O40717   8.746   5.226   0.794
13492WAT     H140718   8.748   5.312   0.844
13492WAT     H240719   8.818   5.166   0.827
13493WAT      O40720   2.065   9.448   8.711
13493WAT     H140721   2.036   9.381   8.643
13493WAT     H240722   2.078   9.403   8.799
13494WAT      O40723   7.833   6.492   9.820
13494WAT     H140724   7.785   6.421   9.872
13494WAT     H240725   7.924   6.506   9.859
13495WAT      O40726   2.540   5.262   3.450
13495WAT     H140727   2.494   5.256   3.539
13495WAT     H240728   2.598   5.181   3.437
13496WAT      O40729   1.818   5.521   0.586
13496WAT     H140730   1.758   5.480   0.516
13496WAT     H240731   1.913   5.511   0.558
13497WAT      O40732   2.831   4.357   7.724
13497WAT     H140733   2.917   4.306   7.729
13497WAT     H240734   2.836   4.438   7.782
13498WAT      O40735   4.807   1.031   2.194
13498WAT     H140736   4.713   1.033   2.228
13498WAT     H240737   4.833   1.122   2.161
13499WAT      O40738   9.758   2.000   7.866
13499WAT     H140739   9.852   2.021   7.841
13499WAT     H240740   9.734   2.048   7.950
13500WAT      O40741   8.870   1.800   6.230
13500WAT     H140742   8.833   1.877   6.281
13500WAT     H240743   8.862   1.818   6.132
13501WAT      O40744   5.234   7.912   5.935
13501WAT     H140745   5.174   7.975   5.886
13501WAT     H240746   5.274   7.958   6.014
13502WAT      O40747   5.233   5.420   0.761
13502WAT     H140748   5.290   5.458   0.834
13502WAT     H240749   5.154   5.479   0.746
13503WAT      O40750   2.038   8.412   0.754
13503WAT     H140751   1.992   8.441   0.838
13503WAT     H240752   2.135   8.438   0.759
13504WAT      O40753   8.612   5.823   3.416
13504WAT     H140754   8.566   5.897   3.466
13504WAT     H240755   8.546   5.749   3.400
13505WAT      O40756   3.004   1.314   5.825
13505WAT     H140757   3.035   1.353   5.738
13505WAT     H240758   2.965   1.224   5.809
13506WAT      O40759   9.031   9.746   0.793
13506WAT     H140760   9.005   9.657   0.756
13506WAT     H240761   9.076   9.800   0.722
13507WAT      O40762   4.121   6.278   3.110
13507WAT     H140763   4.023   6.294   3.100
13507WAT     H240764   4.137   6.210   3.181
13508WAT      O40765   6.841   0.444   3.735
13508WAT     H140766   6.826   0.474   3.641
13508WAT     H240767   6.757   0.403   3.771
13509WAT      O40768   7.150   8.281   6.969
13509WAT     H140769   7.210   8.242   7.039
13509WAT     H240770   7.082   8.340   7.012
13510WAT      O40771   7.311   3.872   3.998
13510WAT     H140772   7.260   3.942   4.048
13510WAT     H240773   7.340   3.910   3.909
13511WAT      O40774   4.639   0.499   9.331
13511WAT     H140775   4.679   0.419   9.287
13511WAT     H240776   4.648   0.578   9.269
13512WAT      O40777   2.949   7.131   6.087
13512WAT     H140778   2.970   7.227   6.071
13512WAT     H240779   2.927   7.087   6.000
13513WAT      O40780   3.317   3.763   0.006
13513WAT     H140781   3.388   3.815   0.053
13513WAT     H240782   3.240   3.823  -0.014
13514WAT      O40783   6.482   8.944   9.356
13514WAT     H140784   6.548   8.870   9.352
13514WAT     H240785   6.390   8.906   9.366
13515WAT      O40786   3.678   6.892   2.423
13515WAT     H140787   3.610   6.848   2.365
13515WAT     H240788   3.749   6.826   2.447
13516WAT      O40789   9.575   1.522   2.491
13516WAT     H140790   9.537   1.613   2.474
13516WAT     H240791   9.639   1.526   2.567
13517WAT      O40792   1.524   7.814   8.089
13517WAT     H140793   1.589   7.738   8.086
13517WAT     H240794   1.568   7.895   8.049
13518WAT      O40795   8.100   0.679   8.979
13518WAT     H140796   8.156   0.598   8.998
13518WAT     H240797   8.003   0.653   8.983
13519WAT      O40798   2.604   5.743   8.480
13519WAT     H140799   2.585   5.754   8.577
13519WAT     H240800   2.590   5.648   8.453
13520WAT      O40801   4.985   3.714   7.246
13520WAT     H140802   4.952   3.660   7.168
13520WAT     H240803   5.045   3.658   7.303
13521WAT      O40804   9.647   7.581   6.406
13521WAT     H140805   9.651   7.578   6.306
13521WAT     H240806   9.588   7.507   6.439
13522WAT      O40807   8.221   6.290   0.890
13522WAT     H140808   8.248   6.384   0.910
13522WAT     H240809   8.298   6.241   0.848
13523WAT      O40810   6.842   8.196   3.209
13523WAT     H140811   6.918   8.172   3.269
13523WAT     H240812   6.772   8.124   3.214
13524WAT      O40813   7.097   6.176   2.009
13524WAT     H140814   7.164   6.240   1.971
13524WAT     H240815   7.092   6.188   2.108
13525WAT      O40816   5.480   4.199   5.813
13525WAT     H140817   5.432   4.264   5.871
13525WAT     H240818   5.446   4.107   5.831
13526WAT      O40819   9.474   9.735   6.251
13526WAT     H140820   9.497   9.676   6.174
13526WAT     H240821   9.424   9.815   6.218
13527WAT      O40822   6.888   6.422   5.108
13527WAT     H140823   6.922   6.375   5.027
13527WAT     H240824   6.863   6.355   5.178
13528WAT      O40825   5.874   2.575   3.115
13528WAT     H140826   5.935   2.498   3.136
13528WAT     H240827   5.878   2.595   3.017
13529WAT      O40828   5.433   1.400   9.074
13529WAT     H140829   5.339   1.416   9.046
13529WAT     H240830   5.435   1.353   9.162
13530WAT      O40831   9.734   3.102   2.268
13530WAT     H140832   9.721   3.200   2.282
13530WAT     H240833   9.753   3.059   2.356
13531WAT      O40834   0.009   0.124   7.284
13531WAT     H140835  -0.055   0.194   7.317
13531WAT     H240836  -0.041   0.056   7.230
13532WAT      O40837   5.655   8.841   2.411
13532WAT     H140838   5.596   8.780   2.358
13532WAT     H240839   5.617   8.934   2.410
13533WAT      O40840   8.096   0.429   4.466
13533WAT     H140841   8.160   0.473   4.529
13533WAT     H240842   8.120   0.332   4.456
13534WAT      O40843   3.610   9.139   2.989
13534WAT     H140844   3.676   9.082   3.038
13534WAT     H240845   3.532   9.158   3.049
13535WAT      O40846   0.700   8.512   6.491
13535WAT     H140847   0.702   8.424   6.443
13535WAT     H240848   0.658   8.581   6.432
13536WAT      O40849   0.586   7.083   6.513
13536WAT     H140850   0.528   7.057   6.591
13536WAT     H240851   0.649   7.155   6.541
13537WAT      O40852   6.769   2.045   4.187
13537WAT     H140853   6.830   2.078   4.259
13537WAT     H240854   6.823   2.004   4.114
13538WAT      O40855   7.260   9.397   0.212
13538WAT     H140856   7.271   9.470   0.144
13538WAT     H240857   7.184   9.338   0.185
13539WAT      O40858   8.757   8.279   4.581
13539WAT     H140859   8.772   8.311   4.675
13539WAT     H240860   8.797   8.189   4.569
13540WAT      O40861   4.298   6.429   6.630
13540WAT     H140862   4.214   6.482   6.643
13540WAT     H240863   4.364   6.484   6.579
13541WAT      O40864   9.307   2.114   0.635
13541WAT     H140865   9.242   2.189   0.630
13541WAT     H240866   9.394   2.147   0.671
13542WAT      O40867   8.382   0.021   5.902
13542WAT     H140868   8.364   0.005   5.999
13542WAT     H240869   8.415  -0.064   5.860
13543WAT      O40870   8.114   6.824   0.563
13543WAT     H140871   8.193   6.886   0.568
13543WAT     H240872   8.122   6.754   0.633
13544WAT      O40873   2.555   5.364   4.113
13544WAT     H140874   2.470   5.394   4.157
13544WAT     H240875   2.560   5.402   4.021
13545WAT      O40876   4.606   6.887   1.263
13545WAT     H140877   4.694   6.923   1.294
13545WAT     H240878   4.618   6.793   1.232
13546WAT      O40879   6.218   1.480   6.830
13546WAT     H140880   6.142   1.536   6.864
13546WAT     H240881   6.185   1.388   6.810
13547WAT      O40882   6.973   0.707   5.984
13547WAT     H140883   6.967   0.667   6.076
13547WAT     H240884   6.991   0.635   5.917
13548WAT      O40885   0.237   5.200   9.835
13548WAT     H140886   0.245   5.116   9.782
13548WAT     H240887   0.160   5.192   9.899
13549WAT      O40888   7.865   7.283   0.427
13549WAT     H140889   7.826   7.356   0.370
13549WAT     H240890   7.897   7.322   0.513
13550WAT      O40891   0.017   9.046   8.426
13550WAT     H140892   0.085   9.042   8.499
13550WAT     H240893  -0.062   8.990   8.452
13551WAT      O40894   5.905   6.532   2.759
13551WAT     H140895   5.873   6.437   2.766
13551WAT     H240896   5.967   6.552   2.835
13552WAT      O40897   5.085   4.782   1.219
13552WAT     H140898   5.062   4.877   1.197
13552WAT     H240899   5.056   4.723   1.144
13553WAT      O40900   8.351   2.877   2.101
13553WAT     H140901   8.355   2.943   2.026
13553WAT     H240902   8.295   2.913   2.175
13554WAT      O40903   3.489   3.793   1.785
13554WAT     H140904   3.414   3.813   1.847
13554WAT     H240905   3.513   3.697   1.790
13555WAT      O40906   0.268   1.274   8.554
13555WAT     H140907   0.304   1.344   8.616
13555WAT     H240908   0.344   1.230   8.506
13556WAT      O40909   4.536   4.400   7.468
13556WAT     H140910   4.473   4.475   7.451
13556WAT     H240911   4.611   4.431   7.526
13557WAT      O40912   3.098   3.742   7.584
13557WAT     H140913   3.075   3.752   7.488
13557WAT     H240914   3.175   3.803   7.606
13558WAT      O40915   3.573   3.711   7.497
13558WAT     H140916   3.577   3.688   7.400
13558WAT     H240917   3.542   3.631   7.549
13559WAT      O40918   4.156   8.635   2.005
13559WAT     H140919   4.226   8.635   1.934
13559WAT     H240920   4.069   8.603   1.968
13560WAT      O40921   7.255   8.531   0.914
13560WAT     H140922   7.254   8.625   0.881
13560WAT     H240923   7.245   8.469   0.836
13561WAT      O40924   2.237   0.484   1.812
13561WAT     H140925   2.204   0.557   1.751
13561WAT     H240926   2.165   0.460   1.876
13562WAT      O40927   7.685   0.814   4.191
13562WAT     H140928   7.626   0.735   4.176
13562WAT     H240929   7.757   0.816   4.121
13563WAT      O40930   1.730   6.702   9.360
13563WAT     H140931   1.704   6.612   9.395
13563WAT     H240932   1.667   6.771   9.396
13564WAT      O40933   4.162   4.217   8.968
13564WAT     H140934   4.198   4.170   9.049
13564WAT     H240935   4.065   4.192   8.955
13565WAT      O40936   0.641   4.659   8.734
13565WAT     H140937   0.729   4.634   8.691
13565WAT     H240938   0.570   4.662   8.664
13566WAT      O40939   8.205   7.106   0.053
13566WAT     H140940   8.140   7.155  -0.005
13566WAT     H240941   8.272   7.058  -0.003
13567WAT      O40942   9.048   0.851   9.799
13567WAT     H140943   9.059   0.812   9.707
13567WAT     H240944   9.138   0.876   9.835
13568WAT      O40945   9.093   4.390   8.987
13568WAT     H140946   9.018   4.329   8.962
13568WAT     H240947   9.096   4.467   8.924
13569WAT      O40948   8.128   2.915   2.265
13569WAT     H140949   8.092   3.008   2.271
13569WAT     H240950   8.056   2.854   2.231
13570WAT      O40951   8.962   2.825   5.787
13570WAT     H140952   9.022   2.756   5.828
13570WAT     H240953   8.964   2.908   5.842
13571WAT      O40954   5.104   6.773   0.271
13571WAT     H140955   5.110   6.674   0.284
13571WAT     H240956   5.159   6.820   0.340
13572WAT      O40957   6.621   5.382   8.657
13572WAT     H140958   6.616   5.288   8.688
13572WAT     H240959   6.531   5.412   8.624
13573WAT      O40960   3.913   2.859   1.147
13573WAT     H140961   3.985   2.842   1.214
13573WAT     H240962   3.883   2.954   1.155
13574WAT      O40963   7.312   9.311   2.240
13574WAT     H140964   7.254   9.349   2.312
13574WAT     H240965   7.260   9.307   2.154
13575WAT      O40966   4.375   3.039   4.693
13575WAT     H140967   4.372   2.966   4.625
13575WAT     H240968   4.312   3.018   4.768
13576WAT      O40969   8.686   9.753   3.685
13576WAT     H140970   8.740   9.668   3.686
13576WAT     H240971   8.729   9.819   3.623
13577WAT      O40972   5.567   2.269   3.082
13577WAT     H140973   5.607   2.326   3.155
13577WAT     H240974   5.469   2.284   3.079
13578WAT      O40975   5.757   5.980   1.565
13578WAT     H140976   5.782   5.986   1.661
13578WAT     H240977   5.741   6.072   1.529
13579WAT      O40978   8.231   8.296   4.613
13579WAT     H140979   8.237   8.305   4.713
13579WAT     H240980   8.321   8.272   4.577
13580WAT      O40981   4.067   0.924   0.398
13580WAT     H140982   4.101   0.986   0.469
13580WAT     H240983   4.145   0.881   0.352
13581WAT      O40984   2.353   8.699   8.360
13581WAT     H140985   2.398   8.689   8.449
13581WAT     H240986   2.379   8.786   8.318
13582WAT      O40987   2.945   3.587   3.159
13582WAT     H140988   2.904   3.512   3.108
13582WAT     H240989   2.874   3.653   3.185
13583WAT      O40990   5.664   8.653   9.056
13583WAT     H140991   5.695   8.705   8.976
13583WAT     H240992   5.569   8.626   9.043
13584WAT      O40993   1.603   1.967   9.657
13584WAT     H140994   1.516   1.995   9.699
13584WAT     H240995   1.598   1.983   9.558
13585WAT      O40996   1.847   4.564   1.976
13585WAT     H140997   1.866   4.603   2.066
13585WAT     H240998   1.931   4.566   1.921
13586WAT      O40999   1.312   9.584   3.780
13586WAT     H141000   1.317   9.555   3.876
13586WAT     H241001   1.324   9.683   3.774
13587WAT      O41002   3.964   2.365   2.150
13587WAT     H141003   3.913   2.281   2.137
13587WAT     H241004   4.054   2.357   2.107
13588WAT      O41005   1.492   9.208   3.398
13588WAT     H141006   1.555   9.218   3.475
13588WAT     H241007   1.525   9.136   3.337
13589WAT      O41008   8.907   3.585   3.983
13589WAT     H141009   8.858   3.615   4.065
13589WAT     H241010   9.005   3.583   4.003
13590WAT      O41011   0.359   5.673   2.106
13590WAT     H141012   0.338   5.722   2.191
13590WAT     H241013   0.416   5.594   2.128
13591WAT      O41014   3.135   0.049   9.318
13591WAT     H141015   3.149   0.080   9.224
13591WAT     H241016   3.056   0.097   9.356
13592WAT      O41017   3.798   5.122   9.316
13592WAT     H141018   3.873   5.186   9.299
13592WAT     H241019   3.715   5.173   9.341
13593WAT      O41020   6.751   7.863   0.081
13593WAT     H141021   6.681   7.920   0.124
13593WAT     H241022   6.786   7.909  -0.000
13594WAT      O41023   3.974   3.438   5.679
13594WAT     H141024   3.953   3.364   5.615
13594WAT     H241025   4.035   3.404   5.750
13595WAT      O41026   4.830   6.742   6.529
13595WAT     H141027   4.733   6.726   6.549
13595WAT     H241028   4.868   6.661   6.484
13596WAT      O41029   7.436   6.183   2.488
13596WAT     H141030   7.444   6.090   2.452
13596WAT     H241031   7.415   6.246   2.414
13597WAT      O41032   5.143   7.981   3.933
13597WAT     H141033   5.193   7.971   4.019
13597WAT     H241034   5.133   7.891   3.890
13598WAT      O41035   9.104   1.779   2.130
13598WAT     H141036   9.124   1.836   2.051
13598WAT     H241037   9.176   1.790   2.199
13599WAT      O41038   4.124   8.659   7.058
13599WAT     H141039   4.075   8.721   7.119
13599WAT     H241040   4.187   8.602   7.111
13600WAT      O41041   2.990   0.166   5.606
13600WAT     H141042   2.939   0.252   5.614
13600WAT     H241043   3.086   0.186   5.586
13601WAT      O41044   8.566   4.226   7.577
13601WAT     H141045   8.577   4.132   7.543
13601WAT     H241046   8.611   4.289   7.514
13602WAT      O41047   3.266   2.851   2.975
13602WAT     H141048   3.230   2.789   3.046
13602WAT     H241049   3.345   2.901   3.011
13603WAT      O41050   6.554   1.906   9.686
13603WAT     H141051   6.608   1.855   9.753
13603WAT     H241052   6.519   1.990   9.728
13604WAT      O41053   3.181   3.984   1.223
13604WAT     H141054   3.251   4.042   1.265
13604WAT     H241055   3.221   3.896   1.198
13605WAT      O41056   8.021   7.931   7.509
13605WAT     H141057   8.098   7.986   7.478
13605WAT     H241058   7.952   7.990   7.550
13606WAT      O41059   4.976   6.708   8.377
13606WAT     H141060   4.941   6.742   8.464
13606WAT     H241061   4.903   6.663   8.327
13607WAT      O41062   9.033   4.189   8.311
13607WAT     H141063   8.985   4.209   8.226
13607WAT     H241064   8.986   4.116   8.360
13608WAT      O41065   9.693   2.014   7.267
13608WAT     H141066   9.755   2.091   7.249
13608WAT     H241067   9.709   1.942   7.199
13609WAT      O41068   7.882   2.623   8.637
13609WAT     H141069   7.936   2.585   8.712
13609WAT     H241070   7.856   2.717   8.659
13610WAT      O41071   9.186   8.257   7.683
13610WAT     H141072   9.225   8.235   7.594
13610WAT     H241073   9.140   8.177   7.721
13611WAT      O41074   5.892   2.323   1.655
13611WAT     H141075   5.944   2.394   1.701
13611WAT     H241076   5.915   2.321   1.558
13612WAT      O41077   0.097   0.490   3.265
13612WAT     H141078   0.066   0.556   3.334
13612WAT     H241079   0.019   0.456   3.213
13613WAT      O41080   0.506   0.221   7.760
13613WAT     H141081   0.414   0.245   7.732
13613WAT     H241082   0.566   0.301   7.750
13614WAT      O41083   4.607   7.681   9.532
13614WAT     H141084   4.616   7.681   9.631
13614WAT     H241085   4.679   7.738   9.492
13615WAT      O41086   1.854   9.474   6.448
13615WAT     H141087   1.796   9.535   6.502
13615WAT     H241088   1.810   9.457   6.360
13616WAT      O41089   4.659   3.248   1.681
13616WAT     H141090   4.733   3.182   1.692
13616WAT     H241091   4.618   3.237   1.591
13617WAT      O41092   3.940   2.708   8.663
13617WAT     H141093   3.912   2.613   8.657
13617WAT     H241094   3.978   2.738   8.575
13618WAT      O41095   9.173   5.224   5.275
13618WAT     H141096   9.090   5.172   5.256
13618WAT     H241097   9.156   5.321   5.260
13619WAT      O41098   5.423   3.961   9.256
13619WAT     H141099   5.483   3.883   9.269
13619WAT     H241100   5.432   3.994   9.161
13620WAT      O41101   0.417   7.469   2.000
13620WAT     H141102   0.451   7.404   1.933
13620WAT     H241103   0.357   7.535   1.955
13621WAT      O41104   8.331   5.655   6.595
13621WAT     H141105   8.298   5.625   6.506
13621WAT     H241106   8.353   5.575   6.651
13622WAT      O41107   7.189   8.326   4.199
13622WAT     H141108   7.121   8.366   4.138
13622WAT     H241109   7.149   8.315   4.291
13623WAT      O41110   0.656   6.256   9.134
13623WAT     H141111   0.601   6.255   9.051
13623WAT     H241112   0.620   6.326   9.197
13624WAT      O41113   7.058   6.697   4.431
13624WAT     H141114   7.152   6.682   4.462
13624WAT     H241115   7.050   6.668   4.335
13625WAT      O41116   8.274   2.087   7.547
13625WAT     H141117   8.352   2.025   7.535
13625WAT     H241118   8.190   2.038   7.526
13626WAT      O41119   1.703   5.374   4.787
13626WAT     H141120   1.615   5.421   4.775
13626WAT     H241121   1.696   5.281   4.750
13627WAT      O41122   7.246   5.399   7.777
13627WAT     H141123   7.285   5.446   7.698
13627WAT     H241124   7.146   5.394   7.767
13628WAT      O41125   9.372   5.188   2.401
13628WAT     H141126   9.351   5.150   2.492
13628WAT     H241127   9.340   5.124   2.331
13629WAT      O41128   5.049   4.140   4.629
13629WAT     H141129   4.967   4.093   4.595
13629WAT     H241130   5.024   4.205   4.700
13630WAT      O41131   2.306   5.478   3.782
13630WAT     H141132   2.228   5.450   3.838
13630WAT     H241133   2.274   5.514   3.695
13631WAT      O41134   0.222   2.639   9.159
13631WAT     H141135   0.282   2.711   9.193
13631WAT     H241136   0.250   2.613   9.067
13632WAT      O41137   0.649   3.333   5.627
13632WAT     H141138   0.562   3.324   5.578
13632WAT     H241139   0.634   3.319   5.725
13633WAT      O41140   2.282   7.787   7.676
13633WAT     H141141   2.230   7.774   7.591
13633WAT     H241142   2.379   7.802   7.654
13634WAT      O41143   1.447   3.438   3.965
13634WAT     H141144   1.479   3.501   4.036
13634WAT     H241145   1.407   3.357   4.008
13635WAT      O41146   5.754   7.511   5.724
13635WAT     H141147   5.682   7.473   5.666
13635WAT     H241148   5.720   7.594   5.770
13636WAT      O41149   9.528   8.662   7.978
13636WAT     H141150   9.452   8.597   7.975
13636WAT     H241151   9.492   8.755   7.974
13637WAT      O41152   3.717   0.552   5.669
13637WAT     H141153   3.776   0.633   5.663
13637WAT     H241154   3.736   0.503   5.754
13638WAT      O41155   2.431   0.279   3.273
13638WAT     H141156   2.489   0.341   3.325
13638WAT     H241157   2.337   0.310   3.276
13639WAT      O41158   6.709   0.552   7.495
13639WAT     H141159   6.770   0.497   7.551
13639WAT     H241160   6.747   0.644   7.484
13640WAT      O41161   2.407   1.426   9.336
13640WAT     H141162   2.332   1.490   9.357
13640WAT     H241163   2.467   1.419   9.416
13641WAT      O41164   4.556   3.858   1.957
13641WAT     H141165   4.497   3.782   1.931
13641WAT     H241166   4.650   3.824   1.969
13642WAT      O41167   8.921   6.780   5.332
13642WAT     H141168   8.903   6.682   5.320
13642WAT     H241169   8.959   6.795   5.423
13643WAT      O41170   0.640   4.836   9.762
13643WAT     H141171   0.541   4.829   9.750
13643WAT     H241172   0.678   4.745   9.774
13644WAT      O41173   4.883   8.089   7.023
13644WAT     H141174   4.952   8.040   7.077
13644WAT     H241175   4.923   8.116   6.935
13645WAT      O41176   8.559   1.156   2.562
13645WAT     H141177   8.598   1.214   2.490
13645WAT     H241178   8.509   1.081   2.519
13646WAT      O41179   1.403   6.665   5.161
13646WAT     H141180   1.315   6.647   5.205
13646WAT     H241181   1.467   6.700   5.228
13647WAT      O41182   6.172   9.801   0.035
13647WAT     H141183   6.131   9.796   0.126
13647WAT     H241184   6.125   9.871  -0.019
13648WAT      O41185   2.715   6.171   3.058
13648WAT     H141186   2.730   6.260   3.014
13648WAT     H241187   2.618   6.147   3.052
13649WAT      O41188   5.699   8.286   9.253
13649WAT     H141189   5.694   8.386   9.255
13649WAT     H241190   5.791   8.258   9.226
13650WAT      O41191   4.596   4.780   6.372
13650WAT     H141192   4.539   4.767   6.454
13650WAT     H241193   4.625   4.876   6.368
13651WAT      O41194   8.914   6.787   4.814
13651WAT     H141195   8.946   6.881   4.824
13651WAT     H241196   8.953   6.746   4.731
13652WAT      O41197   3.394   1.739   3.216
13652WAT     H141198   3.366   1.654   3.260
13652WAT     H241199   3.444   1.796   3.282
13653WAT      O41200   1.899   4.850   5.850
13653WAT     H141201   1.820   4.902   5.884
13653WAT     H241202   1.869   4.757   5.827
13654WAT      O41203   3.782   5.582   7.438
13654WAT     H141204   3.750   5.487   7.437
13654WAT     H241205   3.771   5.622   7.346
13655WAT      O41206   5.163   2.128   7.024
13655WAT     H141207   5.222   2.197   7.064
13655WAT     H241208   5.130   2.160   6.935
13656WAT      O41209   4.543   4.988   7.274
13656WAT     H141210   4.486   4.960   7.196
13656WAT     H241211   4.547   4.914   7.341
13657WAT      O41212   3.031   8.490   7.453
13657WAT     H141213   3.003   8.585   7.442
13657WAT     H241214   2.989   8.434   7.382
13658WAT      O41215   6.364   7.050   2.053
13658WAT     H141216   6.431   7.049   2.127
13658WAT     H241217   6.412   7.050   1.965
13659WAT      O41218   6.414   1.008   3.894
13659WAT     H141219   6.505   0.969   3.906
13659WAT     H241220   6.413   1.103   3.924
13660WAT      O41221   2.487   2.540   3.127
13660WAT     H141222   2.521   2.630   3.102
13660WAT     H241223   2.404   2.549   3.181
13661WAT      O41224   7.193   9.451   3.212
13661WAT     H141225   7.235   9.382   3.271
13661WAT     H241226   7.180   9.535   3.264
13662WAT      O41227   9.227   6.033   1.375
13662WAT     H141228   9.197   5.950   1.328
13662WAT     H241229   9.176   6.111   1.342
13663WAT      O41230   1.363   8.442   4.418
13663WAT     H141231   1.440   8.379   4.433
13663WAT     H241232   1.374   8.486   4.329
13664WAT      O41233   3.580   4.647   6.372
13664WAT     H141234   3.498   4.668   6.318
13664WAT     H241235   3.635   4.730   6.382
13665WAT      O41236   7.823   1.465   6.569
13665WAT     H141237   7.890   1.524   6.614
13665WAT     H241238   7.761   1.427   6.637
13666WAT      O41239   1.585   7.021   6.617
13666WAT     H141240   1.568   6.942   6.676
13666WAT     H241241   1.498   7.067   6.598
13667WAT      O41242   4.038   0.025   1.283
13667WAT     H141243   4.117   0.073   1.321
13667WAT     H241244   3.965   0.020   1.351
13668WAT      O41245   9.427   9.741   3.273
13668WAT     H141246   9.425   9.685   3.355
13668WAT     H241247   9.510   9.721   3.220
13669WAT      O41248   8.894   6.412   1.347
13669WAT     H141249   8.955   6.372   1.278
13669WAT     H241250   8.862   6.341   1.409
13670WAT      O41251   2.952   4.386   4.626
13670WAT     H141252   2.981   4.481   4.633
13670WAT     H241253   2.925   4.366   4.532
13671WAT      O41254   2.518   9.308   7.733
13671WAT     H141255   2.515   9.386   7.670
13671WAT     H241256   2.443   9.246   7.713
13672WAT      O41257   4.560   2.285   0.506
13672WAT     H141258   4.592   2.316   0.417
13672WAT     H241259   4.561   2.361   0.571
13673WAT      O41260   7.302   3.851   2.635
13673WAT     H141261   7.291   3.869   2.537
13673WAT     H241262   7.289   3.754   2.653
13674WAT      O41263   4.355   5.135   4.520
13674WAT     H141264   4.389   5.147   4.427
13674WAT     H241265   4.431   5.105   4.579
13675WAT      O41266   5.359   5.526   9.545
13675WAT     H141267   5.446   5.478   9.534
13675WAT     H241268   5.291   5.463   9.582
13676WAT      O41269   0.189   4.483   5.559
13676WAT     H141270   0.244   4.400   5.565
13676WAT     H241271   0.155   4.495   5.466
13677WAT      O41272   8.317   0.488   5.755
13677WAT     H141273   8.394   0.441   5.799
13677WAT     H241274   8.254   0.522   5.824
13678WAT      O41275   9.469   0.729   8.184
13678WAT     H141276   9.553   0.680   8.162
13678WAT     H241277   9.492   0.818   8.224
13679WAT      O41278   1.354   9.186   9.272
13679WAT     H141279   1.369   9.117   9.342
13679WAT     H241280   1.273   9.240   9.296
13680WAT      O41281   2.086   3.815   4.182
13680WAT     H141282   2.027   3.794   4.104
13680WAT     H241283   2.058   3.903   4.222
13681WAT      O41284   2.938   9.746   8.799
13681WAT     H141285   2.904   9.683   8.868
13681WAT     H241286   3.015   9.705   8.750
13682WAT      O41287   5.582   4.136   0.907
13682WAT     H141288   5.575   4.231   0.938
13682WAT     H241289   5.560   4.074   0.982
13683WAT      O41290   0.083   7.378   3.076
13683WAT     H141291   0.018   7.363   3.150
13683WAT     H241292   0.082   7.300   3.013
13684WAT      O41293   3.225   0.930   4.501
13684WAT     H141294   3.208   0.951   4.597
13684WAT     H241295   3.280   0.846   4.493
13685WAT      O41296   9.078   8.906   6.945
13685WAT     H141297   9.167   8.892   6.989
13685WAT     H241298   9.091   8.956   6.859
13686WAT      O41299   1.103   9.371   8.999
13686WAT     H141300   1.053   9.394   9.082
13686WAT     H241301   1.041   9.372   8.921
13687WAT      O41302   8.949   9.660   4.008
13687WAT     H141303   8.871   9.672   4.070
13687WAT     H241304   8.973   9.563   4.003
13688WAT      O41305   2.607   7.849   2.858
13688WAT     H141306   2.702   7.826   2.876
13688WAT     H241307   2.560   7.869   2.944
13689WAT      O41308   7.002   8.058   4.942
13689WAT     H141309   6.919   8.099   4.982
13689WAT     H241310   7.072   8.048   5.013
13690WAT      O41311   9.237   1.944   8.050
13690WAT     H141312   9.174   1.976   8.121
13690WAT     H241313   9.331   1.946   8.086
13691WAT      O41314   3.572   7.505   9.606
13691WAT     H141315   3.668   7.479   9.616
13691WAT     H241316   3.556   7.540   9.513
13692WAT      O41317   6.875   7.946   2.188
13692WAT     H141318   6.937   7.907   2.120
13692WAT     H241319   6.916   7.939   2.278
13693WAT      O41320   3.416   2.513   2.148
13693WAT     H141321   3.484   2.484   2.080
13693WAT     H241322   3.345   2.443   2.156
13694WAT      O41323   8.619   1.571   8.029
13694WAT     H141324   8.561   1.646   8.062
13694WAT     H241325   8.570   1.520   7.959
13695WAT      O41326   9.561   3.025   2.068
13695WAT     H141327   9.626   3.048   2.140
13695WAT     H241328   9.487   2.969   2.105
13696WAT      O41329   4.776   7.254   9.686
13696WAT     H141330   4.742   7.279   9.777
13696WAT     H241331   4.832   7.328   9.650
13697WAT      O41332   4.728   6.433   2.869
13697WAT     H141333   4.820   6.395   2.884
13697WAT     H241334   4.662   6.382   2.924
13698WAT      O41335   4.443   0.284   2.106
13698WAT     H141336   4.495   0.231   2.039
13698WAT     H241337   4.345   0.275   2.087
13699WAT      O41338   2.519   4.457   3.017
13699WAT     H141339   2.490   4.549   3.043
13699WAT     H241340   2.610   4.439   3.055
13700WAT      O41341   1.399   3.525   5.189
13700WAT     H141342   1.461   3.519   5.111
13700WAT     H241343   1.342   3.606   5.181
13701WAT      O41344   9.073   5.475   0.849
13701WAT     H141345   9.100   5.568   0.874
13701WAT     H241346   8.985   5.453   0.892
13702WAT      O41347   9.339   0.835   3.816
13702WAT     H141348   9.294   0.885   3.742
13702WAT     H241349   9.373   0.747   3.781
13703WAT      O41350   4.402   0.374   0.192
13703WAT     H141351   4.406   0.466   0.232
13703WAT     H241352   4.494   0.343   0.171
13704WAT      O41353   5.810   8.908   8.450
13704WAT     H141354   5.868   8.867   8.520
13704WAT     H241355   5.721   8.932   8.491
13705WAT      O41356   4.029   4.840   0.614
13705WAT     H141357   3.981   4.853   0.701
13705WAT     H241358   3.968   4.797   0.548
13706WAT      O41359   5.365   5.730   1.660
13706WAT     H141360   5.336   5.636   1.677
13706WAT     H241361   5.372   5.779   1.747
13707WAT      O41362   2.364   2.708   3.534
13707WAT     H141363   2.367   2.610   3.553
13707WAT     H241364   2.437   2.754   3.583
13708WAT      O41365   6.741   8.016   0.946
13708WAT     H141366   6.812   8.008   1.016
13708WAT     H241367   6.724   8.113   0.926
13709WAT      O41368   1.071   9.791   3.431
13709WAT     H141369   1.035   9.769   3.522
13709WAT     H241370   1.004   9.847   3.382
13710WAT      O41371   9.143   2.674   5.944
13710WAT     H141372   9.081   2.598   5.926
13710WAT     H241373   9.158   2.682   6.042
13711WAT      O41374   8.918   4.728   0.875
13711WAT     H141375   8.875   4.713   0.786
13711WAT     H241376   8.966   4.646   0.904
13712WAT      O41377   3.546   8.591   2.354
13712WAT     H141378   3.526   8.647   2.434
13712WAT     H241379   3.461   8.568   2.306
13713WAT      O41380   7.700   3.896   8.688
13713WAT     H141381   7.636   3.881   8.763
13713WAT     H241382   7.653   3.878   8.601
13714WAT      O41383   9.032   8.169   8.370
13714WAT     H141384   9.046   8.113   8.288
13714WAT     H241385   9.113   8.226   8.385
13715WAT      O41386   0.133   6.011   1.846
13715WAT     H141387   0.118   5.912   1.854
13715WAT     H241388   0.141   6.051   1.936
13716WAT      O41389   2.759   2.035   6.001
13716WAT     H141390   2.663   2.063   6.007
13716WAT     H241391   2.770   1.971   5.924
13717WAT      O41392   3.139   5.713   5.466
13717WAT     H141393   3.142   5.777   5.543
13717WAT     H241394   3.107   5.760   5.384
13718WAT      O41395   6.439   9.076   2.846
13718WAT     H141396   6.476   9.102   2.935
13718WAT     H241397   6.392   9.154   2.805
13719WAT      O41398   9.202   6.597   0.075
13719WAT     H141399   9.131   6.605   0.005
13719WAT     H241400   9.274   6.664   0.057
13720WAT      O41401   1.418   5.471   1.844
13720WAT     H141402   1.449   5.380   1.816
13720WAT     H241403   1.353   5.463   1.919
13721WAT      O41404   3.317   8.723   5.604
13721WAT     H141405   3.385   8.656   5.576
13721WAT     H241406   3.309   8.794   5.533
13722WAT      O41407   4.688   1.486   5.285
13722WAT     H141408   4.721   1.573   5.248
13722WAT     H241409   4.763   1.419   5.285
13723WAT      O41410   7.225   9.527   6.074
13723WAT     H141411   7.135   9.571   6.084
13723WAT     H241412   7.213   9.427   6.074
13724WAT      O41413   8.722   3.573   5.510
13724WAT     H141414   8.629   3.544   5.489
13724WAT     H241415   8.782   3.494   5.512
13725WAT      O41416   2.589   6.752   5.214
13725WAT     H141417   2.619   6.670   5.263
13725WAT     H241418   2.492   6.743   5.191
13726WAT      O41419   6.468   5.776   2.924
13726WAT     H141420   6.564   5.787   2.950
13726WAT     H241421   6.458   5.792   2.826
13727WAT      O41422   6.000   5.315   0.806
13727WAT     H141423   6.090   5.294   0.845
13727WAT     H241424   5.954   5.230   0.781
13728WAT      O41425   1.078   7.739   8.498
13728WAT     H141426   1.101   7.667   8.563
13728WAT     H241427   1.034   7.815   8.547
13729WAT      O41428   4.230   6.892   8.423
13729WAT     H141429   4.220   6.922   8.517
13729WAT     H241430   4.318   6.922   8.387
13730WAT      O41431   4.553   3.662   2.887
13730WAT     H141432   4.509   3.740   2.842
13730WAT     H241433   4.634   3.635   2.834
13731WAT      O41434   3.031   2.660   1.399
13731WAT     H141435   3.023   2.752   1.360
13731WAT     H241436   3.128   2.636   1.407
13732WAT      O41437   2.699   9.214   5.688
13732WAT     H141438   2.699   9.120   5.722
13732WAT     H241439   2.792   9.249   5.688
13733WAT      O41440   4.895   3.021   1.065
13733WAT     H141441   4.989   2.991   1.081
13733WAT     H241442   4.834   2.978   1.132
13734WAT      O41443   2.237   2.294   4.024
13734WAT     H141444   2.327   2.305   4.065
13734WAT     H241445   2.172   2.356   4.069
13735WAT      O41446   4.644   0.521   6.632
13735WAT     H141447   4.649   0.549   6.728
13735WAT     H241448   4.721   0.461   6.610
13736WAT      O41449   5.081   2.897   7.969
13736WAT     H141450   5.142   2.976   7.969
13736WAT     H241451   5.045   2.882   8.061
13737WAT      O41452   9.394   2.725   5.454
13737WAT     H141453   9.373   2.789   5.527
13737WAT     H241454   9.319   2.659   5.445
13738WAT      O41455   0.926   4.413   9.667
13738WAT     H141456   1.016   4.447   9.693
13738WAT     H241457   0.915   4.319   9.699
13739WAT      O41458   1.789   4.237   1.107
13739WAT     H141459   1.798   4.200   1.199
13739WAT     H241460   1.727   4.315   1.108
13740WAT      O41461   2.494   2.207   2.193
13740WAT     H141462   2.585   2.182   2.161
13740WAT     H241463   2.477   2.304   2.173
13741WAT      O41464   2.836   5.545   2.440
13741WAT     H141465   2.931   5.557   2.413
13741WAT     H241466   2.798   5.465   2.394
13742WAT      O41467   0.851   0.955   4.344
13742WAT     H141468   0.918   0.999   4.284
13742WAT     H241469   0.804   1.024   4.398
13743WAT      O41470   9.705   1.580   8.147
13743WAT     H141471   9.740   1.486   8.150
13743WAT     H241472   9.774   1.642   8.185
13744WAT      O41473   3.884   5.201   4.681
13744WAT     H141474   3.864   5.105   4.662
13744WAT     H241475   3.880   5.217   4.780
13745WAT      O41476   9.336   8.167   4.040
13745WAT     H141477   9.267   8.158   4.111
13745WAT     H241478   9.358   8.264   4.027
13746WAT      O41479   9.421   5.334   9.283
13746WAT     H141480   9.501   5.298   9.331
13746WAT     H241481   9.354   5.262   9.271
13747WAT      O41482   4.938   8.226   2.661
13747WAT     H141483   5.015   8.255   2.604
13747WAT     H241484   4.882   8.306   2.683
13748WAT      O41485   0.680   5.854   5.911
13748WAT     H141486   0.748   5.786   5.883
13748WAT     H241487   0.639   5.896   5.830
13749WAT      O41488   0.171   9.517   5.516
13749WAT     H141489   0.081   9.560   5.528
13749WAT     H241490   0.184   9.448   5.588
13750WAT      O41491   6.920   8.603   0.559
13750WAT     H141492   6.865   8.647   0.630
13750WAT     H241493   6.858   8.559   0.493
13751WAT      O41494   8.876   9.228   2.690
13751WAT     H141495   8.956   9.242   2.749
13751WAT     H241496   8.907   9.216   2.596
13752WAT      O41497   0.844   7.977   6.415
13752WAT     H141498   0.900   7.909   6.462
13752WAT     H241499   0.752   7.940   6.400
13753WAT      O41500   5.290   1.690   5.675
13753WAT     H141501   5.304   1.676   5.577
13753WAT     H241502   5.298   1.603   5.723
13754WAT      O41503   7.598   0.429   5.021
13754WAT     H141504   7.587   0.488   5.100
13754WAT     H241505   7.667   0.468   4.960
13755WAT      O41506   9.250   3.549   6.383
13755WAT     H141507   9.191   3.593   6.315
13755WAT     H241508   9.334   3.517   6.339
13756WAT      O41509   3.494   2.986   9.228
13756WAT     H141510   3.437   3.051   9.178
13756WAT     H241511   3.589   3.015   9.225
13757WAT      O41512   0.790   7.762   4.706
13757WAT     H141513   0.876   7.716   4.729
13757WAT     H241514   0.715   7.719   4.755
13758WAT      O41515   6.903   2.423   2.782
13758WAT     H141516   6.920   2.521   2.796
13758WAT     H241517   6.953   2.391   2.701
13759WAT      O41518   5.413   9.200   4.444
13759WAT     H141519   5.380   9.263   4.514
13759WAT     H241520   5.494   9.238   4.400
13760WAT      O41521   8.933   0.536   9.705
13760WAT     H141522   8.928   0.444   9.667
13760WAT     H241523   8.858   0.550   9.769
13761WAT      O41524   6.732   3.412   1.201
13761WAT     H141525   6.749   3.466   1.283
13761WAT     H241526   6.798   3.337   1.196
13762WAT      O41527   9.174   4.465   0.564
13762WAT     H141528   9.262   4.468   0.611
13762WAT     H241529   9.150   4.557   0.532
13763WAT      O41530   4.068   4.373   2.110
13763WAT     H141531   4.067   4.413   2.018
13763WAT     H241532   4.163   4.353   2.136
13764WAT      O41533   8.732   5.113   2.379
13764WAT     H141534   8.667   5.061   2.323
13764WAT     H241535   8.825   5.083   2.358
13765WAT      O41536   8.316   4.865   5.081
13765WAT     H141537   8.276   4.774   5.074
13765WAT     H241538   8.275   4.926   5.013
13766WAT      O41539   5.101   2.909   6.057
13766WAT     H141540   5.119   2.931   6.153
13766WAT     H241541   5.184   2.923   6.004
13767WAT      O41542   3.232   5.154   4.678
13767WAT     H141543   3.167   5.121   4.746
13767WAT     H241544   3.195   5.236   4.634
13768WAT      O41545   8.305   7.508   7.755
13768WAT     H141546   8.354   7.478   7.673
13768WAT     H241547   8.257   7.594   7.736
13769WAT      O41548   3.634   5.372   0.907
13769WAT     H141549   3.550   5.322   0.884
13769WAT     H241550   3.639   5.455   0.852
13770WAT      O41551   1.226   4.655   7.513
13770WAT     H141552   1.273   4.627   7.430
13770WAT     H241553   1.258   4.746   7.541
13771WAT      O41554   2.371   2.001   2.052
13771WAT     H141555   2.395   2.076   2.114
13771WAT     H241556   2.440   1.994   1.980
13772WAT      O41557   5.811   3.869   5.520
13772WAT     H141558   5.855   3.784   5.549
13772WAT     H241559   5.850   3.899   5.432
13773WAT      O41560   3.009   5.588   4.973
13773WAT     H141561   3.074   5.663   4.963
13773WAT     H241562   2.944   5.590   4.897
13774WAT      O41563   3.737   1.712   5.636
13774WAT     H141564   3.656   1.746   5.588
13774WAT     H241565   3.719   1.619   5.668
13775WAT      O41566   0.115   0.551   4.642
13775WAT     H141567   0.103   0.480   4.572
13775WAT     H241568   0.048   0.623   4.627
13776WAT      O41569   2.626   5.517   6.087
13776WAT     H141570   2.620   5.436   6.028
13776WAT     H241571   2.722   5.536   6.108
13777WAT      O41572   3.469   7.729   6.227
13777WAT     H141573   3.542   7.767   6.284
13777WAT     H241574   3.462   7.782   6.142
13778WAT      O41575   3.972   8.390   9.096
13778WAT     H141576   3.901   8.363   9.031
13778WAT     H241577   4.061   8.392   9.050
13779WAT      O41578   5.291   3.342   2.801
13779WAT     H141579   5.311   3.292   2.885
13779WAT     H241580   5.374   3.386   2.767
13780WAT      O41581   0.566   4.882   2.533
13780WAT     H141582   0.490   4.947   2.539
13780WAT     H241583   0.544   4.800   2.587
13781WAT      O41584   8.292   4.869   5.564
13781WAT     H141585   8.357   4.943   5.547
13781WAT     H241586   8.311   4.829   5.654
13782WAT      O41587   0.622   2.011   6.152
13782WAT     H141588   0.645   1.933   6.210
13782WAT     H241589   0.641   2.096   6.201
13783WAT      O41590   8.239   7.701   5.880
13783WAT     H141591   8.337   7.690   5.894
13783WAT     H241592   8.195   7.610   5.880
13784WAT      O41593   0.826   4.068   4.456
13784WAT     H141594   0.833   4.072   4.356
13784WAT     H241595   0.797   4.157   4.491
13785WAT      O41596   2.774   0.966   9.197
13785WAT     H141597   2.868   0.943   9.222
13785WAT     H241598   2.713   0.892   9.228
13786WAT      O41599   7.155   5.371   5.840
13786WAT     H141600   7.178   5.276   5.865
13786WAT     H241601   7.239   5.422   5.824
13787WAT      O41602   5.463   8.848   6.193
13787WAT     H141603   5.515   8.769   6.161
13787WAT     H241604   5.512   8.932   6.170
13788WAT      O41605   6.006   0.480   3.836
13788WAT     H141606   5.921   0.490   3.784
13788WAT     H241607   5.985   0.445   3.928
13789WAT      O41608   6.368   7.579   1.199
13789WAT     H141609   6.384   7.678   1.200
13789WAT     H241610   6.455   7.531   1.217
13790WAT      O41611   3.664   3.469   0.695
13790WAT     H141612   3.688   3.561   0.666
13790WAT     H241613   3.723   3.402   0.649
13791WAT      O41614   2.334   8.799   7.073
13791WAT     H141615   2.433   8.811   7.073
13791WAT     H241616   2.305   8.757   7.159
13792WAT      O41617   7.064   9.395   9.085
13792WAT     H141618   6.968   9.401   9.111
13792WAT     H241619   7.098   9.303   9.105
13793WAT      O41620   6.607   8.289   7.691
13793WAT     H141621   6.572   8.291   7.784
13793WAT     H241622   6.654   8.202   7.675
13794WAT      O41623   2.093   4.310   1.611
13794WAT     H141624   2.032   4.292   1.534
13794WAT     H241625   2.137   4.399   1.600
13795WAT      O41626   2.951   0.418   2.257
13795WAT     H141627   2.951   0.380   2.349
13795WAT     H241628   2.859   0.409   2.217
13796WAT      O41629   0.233   3.391   5.802
13796WAT     H141630   0.195   3.426   5.887
13796WAT     H241631   0.232   3.463   5.732
13797WAT      O41632   5.714   3.673   4.957
13797WAT     H141633   5.651   3.598   4.975
13797WAT     H241634   5.756   3.661   4.868
13798WAT      O41635   1.080   0.641   4.490
13798WAT     H141636   1.077   0.738   4.512
13798WAT     H241637   0.987   0.606   4.479
13799WAT      O41638   8.559   7.698   1.892
13799WAT     H141639   8.490   7.760   1.930
13799WAT     H241640   8.564   7.711   1.793
13800WAT      O41641   2.002   9.092   3.410
13800WAT     H141642   1.967   9.096   3.316
13800WAT     H241643   2.102   9.094   3.408
13801WAT      O41644   4.327   0.262   5.073
13801WAT     H141645   4.382   0.216   5.003
13801WAT     H241646   4.310   0.356   5.045
13802WAT      O41647   4.819   2.936   3.809
13802WAT     H141648   4.813   2.950   3.710
13802WAT     H241649   4.895   2.989   3.846
13803WAT      O41650   1.156   2.367   8.961
13803WAT     H141651   1.189   2.278   8.930
13803WAT     H241652   1.199   2.439   8.906
13804WAT      O41653   4.449   9.141   3.815
13804WAT     H141654   4.464   9.104   3.724
13804WAT     H241655   4.392   9.078   3.868
13805WAT      O41656   1.107   0.662   5.791
13805WAT     H141657   1.086   0.698   5.700
13805WAT     H241658   1.066   0.571   5.801
13806WAT      O41659   4.891   5.291   0.864
13806WAT     H141660   4.915   5.302   0.961
13806WAT     H241661   4.966   5.247   0.815
13807WAT      O41662   4.665   4.209   1.713
13807WAT     H141663   4.761   4.222   1.738
13807WAT     H241664   4.654   4.224   1.615
13808WAT      O41665   7.681   0.994   9.366
13808WAT     H141666   7.636   1.078   9.338
13808WAT     H241667   7.779   1.000   9.347
13809WAT      O41668   2.371   1.688   0.484
13809WAT     H141669   2.323   1.601   0.486
13809WAT     H241670   2.331   1.750   0.553
13810WAT      O41671   8.960   0.357   7.525
13810WAT     H141672   8.889   0.423   7.550
13810WAT     H241673   9.009   0.390   7.444
13811WAT      O41674   1.214   9.061   5.068
13811WAT     H141675   1.124   9.034   5.103
13811WAT     H241676   1.284   9.035   5.134
13812WAT      O41677   8.461   3.008   3.580
13812WAT     H141678   8.558   3.016   3.602
13812WAT     H241679   8.443   3.053   3.492
13813WAT      O41680   9.494   6.327   0.922
13813WAT     H141681   9.570   6.281   0.876
13813WAT     H241682   9.529   6.380   0.999
13814WAT      O41683   9.366   3.287   7.097
13814WAT     H141684   9.280   3.249   7.131
13814WAT     H241685   9.348   3.378   7.058
13815WAT      O41686   0.572   1.392   2.970
13815WAT     H141687   0.579   1.307   2.919
13815WAT     H241688   0.639   1.457   2.935
13816WAT      O41689   5.999   5.795   8.338
13816WAT     H141690   5.932   5.858   8.377
13816WAT     H241691   6.083   5.843   8.317
13817WAT      O41692   8.131   1.686   2.037
13817WAT     H141693   8.159   1.632   2.116
13817WAT     H241694   8.087   1.770   2.068
13818WAT      O41695   0.117   9.430   2.435
13818WAT     H141696   0.065   9.511   2.407
13818WAT     H241697   0.061   9.349   2.425
13819WAT      O41698   4.627   7.673   2.265
13819WAT     H141699   4.617   7.690   2.363
13819WAT     H241700   4.650   7.759   2.219
13820WAT      O41701   7.660   4.903   6.010
13820WAT     H141702   7.720   4.824   6.000
13820WAT     H241703   7.577   4.891   5.956
13821WAT      O41704   7.629   2.617   2.122
13821WAT     H141705   7.556   2.559   2.084
13821WAT     H241706   7.687   2.562   2.182
13822WAT      O41707   7.502   4.938   2.153
13822WAT     H141708   7.587   4.889   2.138
13822WAT     H241709   7.434   4.910   2.085
13823WAT      O41710   7.237   6.727   9.079
13823WAT     H141711   7.222   6.771   8.991
13823WAT     H241712   7.314   6.770   9.126
13824WAT      O41713   4.488   9.199   4.499
13824WAT     H141714   4.585   9.219   4.486
13824WAT     H241715   4.475   9.100   4.507
13825WAT      O41716   4.602   8.797   6.936
13825WAT     H141717   4.649   8.709   6.929
13825WAT     H241718   4.504   8.781   6.951
13826WAT      O41719   7.512   2.121   2.860
13826WAT     H141720   7.551   2.029   2.867
13826WAT     H241721   7.475   2.150   2.948
13827WAT      O41722   2.079   9.337   6.495
13827WAT     H141723   2.080   9.255   6.439
13827WAT     H241724   1.994   9.388   6.479
13828WAT      O41725   9.305   4.460   7.377
13828WAT     H141726   9.313   4.373   7.425
13828WAT     H241727   9.343   4.533   7.433
13829WAT      O41728   9.607   4.217   7.350
13829WAT     H141729   9.628   4.313   7.369
13829WAT     H241730   9.586   4.170   7.436
13830WAT      O41731   1.654   0.520   8.712
13830WAT     H141732   1.563   0.480   8.720
13830WAT     H241733   1.660   0.601   8.770
13831WAT      O41734   7.116   6.100   1.046
13831WAT     H141735   7.064   6.059   1.120
13831WAT     H241736   7.194   6.041   1.022
13832WAT      O41737   8.757   6.698   1.136
13832WAT     H141738   8.827   6.728   1.199
13832WAT     H241739   8.798   6.677   1.047
13833WAT      O41740   5.451   5.486   8.130
13833WAT     H141741   5.424   5.539   8.050
13833WAT     H241742   5.371   5.435   8.164
13834WAT      O41743   1.835   9.193   1.221
13834WAT     H141744   1.848   9.181   1.123
13834WAT     H241745   1.891   9.270   1.254
13835WAT      O41746   9.767   8.957   6.744
13835WAT     H141747   9.825   9.014   6.801
13835WAT     H241748   9.811   8.868   6.730
13836WAT      O41749   3.673   8.077   2.973
13836WAT     H141750   3.619   8.024   2.908
13836WAT     H241751   3.661   8.040   3.065
13837WAT      O41752   0.415   1.789   3.240
13837WAT     H141753   0.449   1.806   3.148
13837WAT     H241754   0.358   1.707   3.240
13838WAT      O41755   1.467   4.304   8.156
13838WAT     H141756   1.474   4.205   8.167
13838WAT     H241757   1.529   4.333   8.082
13839WAT      O41758   5.837   7.914   8.701
13839WAT     H141759   5.874   8.005   8.685
13839WAT     H241760   5.844   7.891   8.798
13840WAT      O41761   1.494   3.377   7.236
13840WAT     H141762   1.552   3.442   7.186
13840WAT     H241763   1.409   3.422   7.263
13841WAT      O41764   2.909   8.232   1.557
13841WAT     H141765   2.875   8.310   1.608
13841WAT     H241766   2.933   8.158   1.621
13842WAT      O41767   8.774   4.521   8.819
13842WAT     H141768   8.717   4.555   8.894
13842WAT     H241769   8.755   4.573   8.736
13843WAT      O41770   6.261   0.022   8.952
13843WAT     H141771   6.301   0.073   9.027
13843WAT     H241772   6.250  -0.074   8.978
13844WAT      O41773   2.510   0.374   5.638
13844WAT     H141774   2.506   0.284   5.682
13844WAT     H241775   2.552   0.364   5.548
13845WAT      O41776   2.452   4.570   3.474
13845WAT     H141777   2.514   4.492   3.487
13845WAT     H241778   2.394   4.580   3.555
13846WAT      O41779   4.463   1.308   0.594
13846WAT     H141780   4.405   1.313   0.676
13846WAT     H241781   4.452   1.218   0.552
13847WAT      O41782   0.232   9.812   7.892
13847WAT     H141783   0.195   9.892   7.939
13847WAT     H241784   0.224   9.732   7.952
13848WAT      O41785   4.114   6.834   7.978
13848WAT     H141786   4.169   6.873   7.905
13848WAT     H241787   4.158   6.750   8.012
13849WAT      O41788   6.777   7.250   1.951
13849WAT     H141789   6.739   7.342   1.947
13849WAT     H241790   6.835   7.234   1.871
13850WAT      O41791   4.022   7.562   0.979
13850WAT     H141792   3.935   7.538   1.021
13850WAT     H241793   4.070   7.479   0.950
13851WAT      O41794   2.627   5.559   8.179
13851WAT     H141795   2.631   5.624   8.103
13851WAT     H241796   2.720   5.543   8.213
13852WAT      O41797   3.902   4.566   5.771
13852WAT     H141798   3.988   4.584   5.723
13852WAT     H241799   3.921   4.549   5.868
13853WAT      O41800   7.779   4.169   6.786
13853WAT     H141801   7.845   4.156   6.860
13853WAT     H241802   7.688   4.187   6.824
13854WAT      O41803   0.496   5.276   4.154
13854WAT     H141804   0.485   5.249   4.058
13854WAT     H241805   0.573   5.338   4.163
13855WAT      O41806   9.588   2.318   7.346
13855WAT     H141807   9.515   2.257   7.315
13855WAT     H241808   9.639   2.274   7.419
13856WAT      O41809   1.532   2.855   1.036
13856WAT     H141810   1.485   2.909   0.966
13856WAT     H241811   1.465   2.820   1.102
13857WAT      O41812   8.568   8.192   3.080
13857WAT     H141813   8.659   8.161   3.052
13857WAT     H241814   8.507   8.113   3.088
13858WAT      O41815   6.059   7.031   8.579
13858WAT     H141816   5.973   6.980   8.582
13858WAT     H241817   6.123   6.987   8.516
13859WAT      O41818   5.973   3.590   6.434
13859WAT     H141819   6.057   3.590   6.380
13859WAT     H241820   5.980   3.659   6.506
13860WAT      O41821   4.083   6.033   3.980
13860WAT     H141822   4.165   5.979   3.962
13860WAT     H241823   4.109   6.119   4.023
13861WAT      O41824   6.956   8.181   0.050
13861WAT     H141825   6.907   8.240  -0.015
13861WAT     H241826   6.903   8.173   0.134
13862WAT      O41827   4.892   4.976   1.076
13862WAT     H141828   4.809   5.007   1.029
13862WAT     H241829   4.887   5.000   1.173
13863WAT      O41830   2.742   0.855   8.007
13863WAT     H141831   2.660   0.895   7.967
13863WAT     H241832   2.718   0.775   8.062
13864WAT      O41833   2.105   1.664   2.950
13864WAT     H141834   2.108   1.664   2.850
13864WAT     H241835   2.021   1.708   2.981
13865WAT      O41836   3.423   3.493   4.122
13865WAT     H141837   3.503   3.483   4.183
13865WAT     H241838   3.342   3.512   4.177
13866WAT      O41839   7.136   0.866   3.803
13866WAT     H141840   7.051   0.824   3.834
13866WAT     H241841   7.212   0.801   3.812
13867WAT      O41842   7.063   3.655   8.544
13867WAT     H141843   7.089   3.750   8.528
13867WAT     H241844   7.128   3.613   8.608
13868WAT      O41845   1.369   4.882   3.132
13868WAT     H141846   1.288   4.899   3.076
13868WAT     H241847   1.355   4.919   3.224
13869WAT      O41848   4.514   6.572   8.408
13869WAT     H141849   4.442   6.504   8.397
13869WAT     H241850   4.474   6.658   8.440
13870WAT      O41851   7.916   0.420   3.350
13870WAT     H141852   7.903   0.324   3.371
13870WAT     H241853   7.920   0.433   3.251
13871WAT      O41854   8.797   0.652   6.836
13871WAT     H141855   8.732   0.719   6.871
13871WAT     H241856   8.887   0.669   6.876
13872WAT      O41857   8.840   8.951   0.495
13872WAT     H141858   8.824   9.046   0.521
13872WAT     H241859   8.827   8.892   0.574
13873WAT      O41860   3.040   3.126   3.085
13873WAT     H141861   3.065   3.104   2.991
13873WAT     H241862   2.941   3.137   3.092
13874WAT      O41863   5.255   7.829   8.702
13874WAT     H141864   5.260   7.730   8.714
13874WAT     H241865   5.269   7.852   8.606
13875WAT      O41866   2.942   6.302   5.487
13875WAT     H141867   2.875   6.353   5.540
13875WAT     H241868   2.916   6.302   5.391
13876WAT      O41869   5.597   1.253   8.918
13876WAT     H141870   5.541   1.189   8.866
13876WAT     H241871   5.540   1.303   8.983
13877WAT      O41872   6.706   1.429   2.796
13877WAT     H141873   6.619   1.454   2.839
13877WAT     H241874   6.773   1.407   2.867
13878WAT      O41875   3.477   2.926   3.103
13878WAT     H141876   3.518   3.015   3.122
13878WAT     H241877   3.546   2.854   3.110
13879WAT      O41878   3.493   5.724   6.561
13879WAT     H141879   3.576   5.769   6.527
13879WAT     H241880   3.496   5.627   6.538
13880WAT      O41881   8.896   3.396   8.120
13880WAT     H141882   8.851   3.319   8.075
13880WAT     H241883   8.829   3.448   8.173
13881WAT      O41884   6.069   1.445   5.360
13881WAT     H141885   6.007   1.518   5.387
13881WAT     H241886   6.030   1.394   5.283
13882WAT      O41887   8.239   0.224   0.382
13882WAT     H141888   8.217   0.321   0.393
13882WAT     H241889   8.274   0.188   0.469
13883WAT      O41890   4.031   0.487   7.852
13883WAT     H141891   4.084   0.424   7.796
13883WAT     H241892   4.092   0.551   7.898
13884WAT      O41893   9.555   8.934   0.615
13884WAT     H141894   9.549   9.024   0.574
13884WAT     H241895   9.587   8.868   0.548
13885WAT      O41896   8.015   6.451   4.020
13885WAT     H141897   7.932   6.499   3.993
13885WAT     H241898   8.005   6.416   4.113
13886WAT      O41899   2.021   7.229   9.012
13886WAT     H141900   2.100   7.277   8.974
13886WAT     H241901   2.041   7.131   9.019
13887WAT      O41902   3.638   0.181   7.045
13887WAT     H141903   3.544   0.148   7.046
13887WAT     H241904   3.645   0.261   6.985
13888WAT      O41905   1.948   1.324   9.534
13888WAT     H141906   1.882   1.317   9.460
13888WAT     H241907   1.902   1.310   9.622
13889WAT      O41908   7.388   5.751   8.576
13889WAT     H141909   7.337   5.666   8.562
13889WAT     H241910   7.325   5.829   8.570
13890WAT      O41911   4.552   6.310   7.508
13890WAT     H141912   4.476   6.354   7.460
13890WAT     H241913   4.630   6.371   7.511
13891WAT      O41914   7.393   1.643   7.181
13891WAT     H141915   7.407   1.629   7.279
13891WAT     H241916   7.298   1.620   7.157
13892WAT      O41917   1.583   9.402   1.714
13892WAT     H141918   1.556   9.320   1.663
13892WAT     H241919   1.548   9.483   1.667
13893WAT      O41920   9.846   4.102   5.068
13893WAT     H141921   9.785   4.060   5.001
13893WAT     H241922   9.792   4.128   5.149
13894WAT      O41923   7.975   3.243   3.702
13894WAT     H141924   7.932   3.324   3.742
13894WAT     H241925   8.073   3.259   3.691
13895WAT      O41926   7.010   9.030   2.732
13895WAT     H141927   6.946   8.965   2.692
13895WAT     H241928   6.987   9.123   2.702
13896WAT      O41929   7.606   4.020   1.286
13896WAT     H141930   7.573   4.111   1.263
13896WAT     H241931   7.663   4.025   1.368
13897WAT      O41932   6.197   7.666   4.151
13897WAT     H141933   6.135   7.716   4.211
13897WAT     H241934   6.284   7.651   4.199
13898WAT      O41935   3.934   1.596   9.614
13898WAT     H141936   3.968   1.621   9.523
13898WAT     H241937   3.838   1.569   9.607
13899WAT      O41938   3.314   4.281   4.637
13899WAT     H141939   3.273   4.371   4.654
13899WAT     H241940   3.398   4.273   4.691
13900WAT      O41941   5.127   0.118   8.072
13900WAT     H141942   5.064   0.148   8.000
13900WAT     H241943   5.196   0.058   8.032
13901WAT      O41944   1.168   7.739   5.834
13901WAT     H141945   1.213   7.655   5.801
13901WAT     H241946   1.099   7.767   5.768
13902WAT      O41947   5.059   7.499   9.570
13902WAT     H141948   4.990   7.538   9.631
13902WAT     H241949   5.015   7.453   9.494
13903WAT      O41950   3.303   0.228   1.887
13903WAT     H141951   3.240   0.211   1.811
13903WAT     H241952   3.254   0.273   1.962
13904WAT      O41953   6.342   1.781   8.645
13904WAT     H141954   6.347   1.814   8.739
13904WAT     H241955   6.264   1.823   8.599
13905WAT      O41956   1.997   1.137   4.987
13905WAT     H141957   2.094   1.122   4.966
13905WAT     H241958   1.974   1.093   5.073
13906WAT      O41959   1.510   9.469   7.104
13906WAT     H141960   1.478   9.476   7.199
13906WAT     H241961   1.521   9.373   7.080
13907WAT      O41962   6.473   3.404   0.205
13907WAT     H141963   6.422   3.326   0.167
13907WAT     H241964   6.409   3.464   0.254
13908WAT      O41965   7.155   2.042   1.037
13908WAT     H141966   7.061   2.069   1.018
13908WAT     H241967   7.200   2.015   0.951
13909WAT      O41968   5.528   0.911   7.947
13909WAT     H141969   5.520   0.823   7.992
13909WAT     H241970   5.617   0.917   7.901
13910WAT      O41971   0.803   5.160   4.737
13910WAT     H141972   0.801   5.139   4.834
13910WAT     H241973   0.825   5.077   4.685
13911WAT      O41974   5.967   2.932   2.484
13911WAT     H141975   5.986   3.027   2.509
13911WAT     H241976   5.960   2.925   2.384
13912WAT      O41977   9.202   0.015   3.198
13912WAT     H141978   9.281  -0.036   3.233
13912WAT     H241979   9.125  -0.048   3.185
13913WAT      O41980   8.385   0.300   7.920
13913WAT     H141981   8.456   0.244   7.961
13913WAT     H241982   8.405   0.313   7.822
13914WAT      O41983   0.886   3.195   2.674
13914WAT     H141984   0.870   3.262   2.602
13914WAT     H241985   0.805   3.190   2.733
13915WAT      O41986   8.163   9.434   3.470
13915WAT     H141987   8.210   9.503   3.526
13915WAT     H241988   8.158   9.466   3.376
13916WAT      O41989   1.648   0.997   3.178
13916WAT     H141990   1.647   1.061   3.101
13916WAT     H241991   1.614   1.043   3.260
13917WAT      O41992   5.220   0.016   2.718
13917WAT     H141993   5.189  -0.022   2.631
13917WAT     H241994   5.315  -0.012   2.734
13918WAT      O41995   5.858   8.975   6.843
13918WAT     H141996   5.762   8.974   6.871
13918WAT     H241997   5.894   9.068   6.853
13919WAT      O41998   2.665   6.126   4.494
13919WAT     H141999   2.735   6.106   4.426
13919WAT     H242000   2.706   6.176   4.571
13920WAT      O42001   9.787   6.007   9.879
13920WAT     H142002   9.697   5.995   9.921
13920WAT     H242003   9.826   5.917   9.858
13921WAT      O42004   4.586   6.067   2.892
13921WAT     H142005   4.564   6.160   2.862
13921WAT     H242006   4.535   6.046   2.976
13922WAT      O42007   8.708   1.795   6.828
13922WAT     H142008   8.799   1.753   6.829
13922WAT     H242009   8.676   1.807   6.922
13923WAT      O42010   7.083   8.741   1.575
13923WAT     H142011   7.021   8.664   1.589
13923WAT     H242012   7.131   8.730   1.488
13924WAT      O42013   0.027   6.030   9.211
13924WAT     H142014   0.066   6.017   9.120
13924WAT     H242015  -0.040   6.104   9.209
13925WAT      O42016   5.894   1.102   4.988
13925WAT     H142017   5.990   1.091   4.964
13925WAT     H242018   5.842   1.126   4.905
13926WAT      O42019   4.469   3.559   5.665
13926WAT     H142020   4.560   3.579   5.701
13926WAT     H242021   4.444   3.629   5.598
13927WAT      O42022   4.859   3.765   1.615
13927WAT     H142023   4.930   3.815   1.565
13927WAT     H242024   4.843   3.677   1.571
13928WAT      O42025   5.733   5.082   9.192
13928WAT     H142026   5.758   5.004   9.135
13928WAT     H242027   5.767   5.166   9.150
13929WAT      O42028   6.885   1.766   3.311
13929WAT     H142029   6.908   1.673   3.282
13929WAT     H242030   6.853   1.764   3.406
13930WAT      O42031   8.816   9.062   4.225
13930WAT     H142032   8.840   9.034   4.132
13930WAT     H242033   8.867   9.145   4.249
13931WAT      O42034   4.706   5.395   3.352
13931WAT     H142035   4.699   5.314   3.410
13931WAT     H242036   4.768   5.461   3.394
13932WAT      O42037   8.237   4.629   8.510
13932WAT     H142038   8.254   4.727   8.518
13932WAT     H242039   8.305   4.579   8.562
13933WAT      O42040   4.959   4.103   3.202
13933WAT     H142041   4.979   4.127   3.107
13933WAT     H242042   4.909   4.178   3.245
13934WAT      O42043   0.912   6.166   8.914
13934WAT     H142044   0.902   6.196   9.008
13934WAT     H242045   0.973   6.228   8.865
13935WAT      O42046   3.602   0.422   4.927
13935WAT     H142047   3.675   0.436   4.860
13935WAT     H242048   3.581   0.324   4.935
13936WAT      O42049   9.814   2.534   9.198
13936WAT     H142050   9.758   2.591   9.259
13936WAT     H242051   9.907   2.571   9.194
13937WAT      O42052   6.722   2.378   7.555
13937WAT     H142053   6.645   2.420   7.603
13937WAT     H242054   6.774   2.322   7.619
13938WAT      O42055   1.605   2.602   7.150
13938WAT     H142056   1.600   2.521   7.209
13938WAT     H242057   1.513   2.634   7.130
13939WAT      O42058   0.852   5.878   3.181
13939WAT     H142059   0.925   5.894   3.247
13939WAT     H242060   0.859   5.784   3.146
13940WAT      O42061   3.861   4.154   9.628
13940WAT     H142062   3.872   4.119   9.721
13940WAT     H242063   3.922   4.232   9.614
13941WAT      O42064   8.916   1.023   1.949
13941WAT     H142065   8.968   1.073   1.880
13941WAT     H242066   8.837   1.077   1.978
13942WAT      O42067   5.833   0.174   3.277
13942WAT     H142068   5.751   0.139   3.232
13942WAT     H242069   5.895   0.213   3.208
13943WAT      O42070   5.523   0.114   7.397
13943WAT     H142071   5.517   0.031   7.342
13943WAT     H242072   5.433   0.156   7.404
13944WAT      O42073   7.951   4.095   6.988
13944WAT     H142074   7.945   3.996   6.972
13944WAT     H242075   8.048   4.121   6.995
13945WAT      O42076   2.346   1.133   2.113
13945WAT     H142077   2.405   1.187   2.053
13945WAT     H242078   2.394   1.113   2.199
13946WAT      O42079   1.622   9.730   8.796
13946WAT     H142080   1.603   9.640   8.837
13946WAT     H242081   1.707   9.725   8.744
13947WAT      O42082   5.550   3.252   6.061
13947WAT     H142083   5.495   3.314   6.117
13947WAT     H242084   5.580   3.299   5.978
13948WAT      O42085   2.393   0.751   5.864
13948WAT     H142086   2.387   0.851   5.869
13948WAT     H242087   2.471   0.725   5.808
13949WAT      O42088   9.110   8.024   6.661
13949WAT     H142089   9.116   8.036   6.760
13949WAT     H242090   9.052   7.946   6.641
13950WAT      O42091   7.212   4.669   8.878
13950WAT     H142092   7.155   4.660   8.960
13950WAT     H242093   7.292   4.725   8.900
13951WAT      O42094   1.929   3.214   5.546
13951WAT     H142095   1.930   3.314   5.549
13951WAT     H242096   1.927   3.184   5.450
13952WAT      O42097   9.180   5.493   9.198
13952WAT     H142098   9.096   5.441   9.213
13952WAT     H242099   9.256   5.449   9.246
13953WAT      O42100   0.039   1.891   3.527
13953WAT     H142101   0.027   1.887   3.428
13953WAT     H242102   0.030   1.799   3.565
13954WAT      O42103   0.273   5.936   5.439
13954WAT     H142104   0.192   5.877   5.441
13954WAT     H242105   0.276   5.985   5.352
13955WAT      O42106   1.850   8.695   5.983
13955WAT     H142107   1.852   8.677   5.885
13955WAT     H242108   1.859   8.608   6.032
13956WAT      O42109   2.588   0.633   5.710
13956WAT     H142110   2.664   0.591   5.760
13956WAT     H242111   2.550   0.567   5.645
13957WAT      O42112   3.908   5.824   4.497
13957WAT     H142113   4.000   5.814   4.535
13957WAT     H242114   3.870   5.733   4.477
13958WAT      O42115   6.225   0.331   4.631
13958WAT     H142116   6.275   0.249   4.659
13958WAT     H242117   6.213   0.330   4.532
13959WAT      O42118   5.285   3.233   0.186
13959WAT     H142119   5.195   3.225   0.229
13959WAT     H242120   5.354   3.253   0.255
13960WAT      O42121   1.986   5.047   4.898
13960WAT     H142122   2.017   4.954   4.883
13960WAT     H242123   2.065   5.107   4.913
13961WAT      O42124   6.477   8.923   6.953
13961WAT     H142125   6.556   8.872   6.918
13961WAT     H242126   6.407   8.858   6.984
13962WAT      O42127   0.099   0.060   1.321
13962WAT     H142128   0.180   0.119   1.330
13962WAT     H242129   0.123  -0.020   1.267
13963WAT      O42130   2.196   8.383   6.275
13963WAT     H142131   2.257   8.304   6.278
13963WAT     H242132   2.173   8.412   6.368
13964WAT      O42133   0.553   8.873   1.900
13964WAT     H142134   0.498   8.825   1.968
13964WAT     H242135   0.538   8.972   1.910
13965WAT      O42136   5.637   7.107   6.786
13965WAT     H142137   5.620   7.203   6.766
13965WAT     H242138   5.670   7.061   6.704
13966WAT      O42139   3.594   3.693   6.307
13966WAT     H142140   3.648   3.719   6.227
13966WAT     H242141   3.622   3.603   6.339
13967WAT      O42142   1.511   3.809   5.250
13967WAT     H142143   1.427   3.830   5.299
13967WAT     H242144   1.575   3.885   5.260
13968WAT      O42145   5.194   8.626   3.363
13968WAT     H142146   5.186   8.676   3.276
13968WAT     H242147   5.115   8.565   3.373
13969WAT      O42148   2.664   1.302   4.872
13969WAT     H142149   2.596   1.230   4.856
13969WAT     H242150   2.724   1.309   4.792
13970WAT      O42151   5.058   8.942   3.879
13970WAT     H142152   5.143   8.896   3.906
13970WAT     H242153   5.059   9.035   3.915
13971WAT      O42154   2.379   0.564   8.120
13971WAT     H142155   2.317   0.595   8.192
13971WAT     H242156   2.400   0.467   8.133
13972WAT      O42157   9.815   5.818   0.546
13972WAT     H142158   9.805   5.766   0.631
13972WAT     H242159   9.911   5.818   0.518
13973WAT      O42160   6.591   6.964   4.794
13973WAT     H142161   6.575   6.868   4.773
13973WAT     H242162   6.528   6.993   4.866
13974WAT      O42163   0.080   4.607   2.049
13974WAT     H142164   0.003   4.664   2.020
13974WAT     H242165   0.080   4.598   2.148
13975WAT      O42166   4.724   3.708   9.353
13975WAT     H142167   4.811   3.740   9.314
13975WAT     H242168   4.734   3.696   9.452
13976WAT      O42169   1.414   3.536   3.177
13976WAT     H142170   1.478   3.464   3.206
13976WAT     H242171   1.449   3.625   3.206
13977WAT      O42172   1.829   5.495   3.590
13977WAT     H142173   1.851   5.398   3.587
13977WAT     H242174   1.805   5.526   3.498
13978WAT      O42175   4.486   9.298   8.229
13978WAT     H142176   4.583   9.317   8.242
13978WAT     H242177   4.450   9.356   8.156
13979WAT      O42178   3.846   0.494   8.051
13979WAT     H142179   3.919   0.503   7.984
13979WAT     H242180   3.759   0.519   8.009
13980WAT      O42181   0.390   3.325   3.660
13980WAT     H142182   0.417   3.348   3.567
13980WAT     H242183   0.463   3.274   3.705
13981WAT      O42184   4.267   4.105   9.182
13981WAT     H142185   4.307   4.134   9.269
13981WAT     H242186   4.318   4.027   9.146
13982WAT      O42187   4.990   1.556   8.174
13982WAT     H142188   5.015   1.653   8.179
13982WAT     H242189   4.956   1.525   8.263
13983WAT      O42190   4.786   9.396   9.666
13983WAT     H142191   4.834   9.309   9.681
13983WAT     H242192   4.848   9.472   9.688
13984WAT      O42193   7.305   5.173   6.010
13984WAT     H142194   7.279   5.093   5.956
13984WAT     H242195   7.238   5.186   6.083
13985WAT      O42196   1.366   3.940   9.379
13985WAT     H142197   1.385   4.038   9.380
13985WAT     H242198   1.433   3.894   9.320
13986WAT      O42199   2.999   6.530   6.277
13986WAT     H142200   2.932   6.577   6.334
13986WAT     H242201   3.089   6.537   6.319
13987WAT      O42202   2.349   7.398   2.173
13987WAT     H142203   2.409   7.358   2.104
13987WAT     H242204   2.396   7.473   2.220
13988WAT      O42205   5.122   3.409   4.044
13988WAT     H142206   5.214   3.386   4.075
13988WAT     H242207   5.057   3.396   4.119
13989WAT      O42208   9.178   8.623   1.764
13989WAT     H142209   9.092   8.674   1.764
13989WAT     H242210   9.161   8.528   1.793
13990WAT      O42211   8.681   7.389   2.963
13990WAT     H142212   8.630   7.303   2.959
13990WAT     H242213   8.656   7.439   3.046
13991WAT      O42214   0.750   7.687   0.315
13991WAT     H142215   0.721   7.622   0.385
13991WAT     H242216   0.839   7.725   0.339
13992WAT      O42217   0.736   0.990   2.576
13992WAT     H142218   0.796   0.982   2.496
13992WAT     H242219   0.769   0.930   2.649
13993WAT      O42220   9.220   9.389   9.442
13993WAT     H142221   9.170   9.363   9.360
13993WAT     H242222   9.208   9.487   9.459
13994WAT      O42223   7.971   6.539   7.315
13994WAT     H142224   8.014   6.458   7.354
13994WAT     H242225   8.042   6.603   7.285
13995WAT      O42226   0.837   7.017   8.819
13995WAT     H142227   0.912   6.956   8.844
13995WAT     H242228   0.871   7.110   8.807
13996WAT      O42229   7.563   6.519   1.200
13996WAT     H142230   7.597   6.451   1.136
13996WAT     H242231   7.621   6.521   1.281
13997WAT      O42232   9.345   1.969   8.813
13997WAT     H142233   9.362   1.961   8.911
13997WAT     H242234   9.261   1.920   8.790
13998WAT      O42235   2.119   8.176   8.134
13998WAT     H142236   2.121   8.110   8.059
13998WAT     H242237   2.025   8.188   8.166
13999WAT      O42238   8.503   7.904   6.308
13999WAT     H142239   8.466   7.969   6.242
13999WAT     H242240   8.603   7.913   6.311
14000WAT      O42241   1.774   2.389   0.458
14000WAT     H142242   1.743   2.379   0.363
14000WAT     H242243   1.872   2.408   0.459
14001WAT      O42244   1.215   1.215   3.770
14001WAT     H142245   1.227   1.143   3.702
14001WAT     H242246   1.290   1.212   3.836
14002WAT      O42247   6.624   7.224   1.208
14002WAT     H142248   6.671   7.140   1.180
14002WAT     H242249   6.588   7.271   1.128
14003WAT      O42250   4.796   4.288   3.371
14003WAT     H142251   4.852   4.369   3.352
14003WAT     H242252   4.807   4.261   3.466
14004WAT      O42253   4.566   3.614   6.691
14004WAT     H142254   4.471   3.585   6.702
14004WAT     H242255   4.625   3.533   6.684
14005WAT      O42256   6.194   1.538   0.629
14005WAT     H142257   6.128   1.514   0.558
14005WAT     H242258   6.276   1.577   0.587
14006WAT      O42259   3.254   0.629   7.859
14006WAT     H142260   3.154   0.633   7.870
14006WAT     H242261   3.277   0.648   7.763
14007WAT      O42262   2.929   5.993   6.985
14007WAT     H142263   3.029   5.993   6.983
14007WAT     H242264   2.894   6.054   6.915
14008WAT      O42265   4.463   3.930   9.117
14008WAT     H142266   4.457   3.877   9.202
14008WAT     H242267   4.437   3.873   9.040
14009WAT      O42268   4.668   6.424   0.705
14009WAT     H142269   4.592   6.456   0.760
14009WAT     H242270   4.642   6.340   0.656
14010WAT      O42271   7.795   9.021   5.336
14010WAT     H142272   7.815   9.011   5.238
14010WAT     H242273   7.858   8.963   5.389
14011WAT      O42274   6.485   3.147   0.778
14011WAT     H142275   6.423   3.177   0.850
14011WAT     H242276   6.474   3.205   0.698
14012WAT      O42277   6.994   0.005   1.673
14012WAT     H142278   7.067   0.069   1.695
14012WAT     H242279   6.995  -0.014   1.575
14013WAT      O42280   6.330   9.494   6.991
14013WAT     H142281   6.306   9.400   7.015
14013WAT     H242282   6.288   9.518   6.904
14014WAT      O42283   4.921   1.151   0.315
14014WAT     H142284   4.927   1.159   0.415
14014WAT     H242285   4.963   1.231   0.273
14015WAT      O42286   7.863   2.258   5.788
14015WAT     H142287   7.923   2.296   5.718
14015WAT     H242288   7.809   2.184   5.749
14016WAT      O42289   3.622   7.325   5.559
14016WAT     H142290   3.695   7.334   5.628
14016WAT     H242291   3.537   7.363   5.595
14017WAT      O42292   6.272   2.002   0.904
14017WAT     H142293   6.349   2.031   0.846
14017WAT     H242294   6.229   1.921   0.864
14018WAT      O42295   6.401   7.238   2.388
14018WAT     H142296   6.491   7.193   2.387
14018WAT     H242297   6.408   7.326   2.341
14019WAT      O42298   6.636   3.111   7.804
14019WAT     H142299   6.727   3.069   7.796
14019WAT     H242300   6.566   3.042   7.787
14020WAT      O42301   1.574   7.646   0.848
14020WAT     H142302   1.581   7.635   0.749
14020WAT     H242303   1.553   7.557   0.890
14021WAT      O42304   3.709   2.639   3.642
14021WAT     H142305   3.630   2.644   3.703
14021WAT     H242306   3.791   2.621   3.696
14022WAT      O42307   9.249   8.618   0.742
14022WAT     H142308   9.257   8.692   0.676
14022WAT     H242309   9.338   8.574   0.755
14023WAT      O42310   4.344   1.795   0.688
14023WAT     H142311   4.294   1.829   0.609
14023WAT     H242312   4.440   1.779   0.664
14024WAT      O42313   0.872   3.501   4.942
14024WAT     H142314   0.871   3.590   4.988
14024WAT     H242315   0.837   3.431   5.004
14025WAT      O42316   0.944   1.645   9.633
14025WAT     H142317   0.929   1.575   9.703
14025WAT     H242318   0.857   1.693   9.616
14026WAT      O42319   3.692   3.296   1.902
14026WAT     H142320   3.608   3.242   1.901
14026WAT     H242321   3.745   3.275   1.819
14027WAT      O42322   5.538   3.563   7.513
14027WAT     H142323   5.595   3.601   7.586
14027WAT     H242324   5.448   3.608   7.515
14028WAT      O42325   3.388   8.452   9.426
14028WAT     H142326   3.445   8.506   9.364
14028WAT     H242327   3.293   8.485   9.421
14029WAT      O42328   0.758   4.293   4.556
14029WAT     H142329   0.680   4.353   4.573
14029WAT     H242330   0.835   4.321   4.613
14030WAT      O42331   9.157   5.178   8.926
14030WAT     H142332   9.197   5.141   8.843
14030WAT     H242333   9.057   5.173   8.921
14031WAT      O42334   1.098   7.666   3.454
14031WAT     H142335   1.026   7.671   3.523
14031WAT     H242336   1.186   7.689   3.495
14032WAT      O42337   4.776   8.307   6.114
14032WAT     H142338   4.869   8.334   6.140
14032WAT     H242339   4.720   8.298   6.197
14033WAT      O42340   1.461   1.743   2.902
14033WAT     H142341   1.482   1.841   2.894
14033WAT     H242342   1.508   1.694   2.828
14034WAT      O42343   0.025   1.848   1.381
14034WAT     H142344   0.020   1.753   1.351
14034WAT     H242345   0.027   1.852   1.481
14035WAT      O42346   5.961   6.263   1.068
14035WAT     H142347   5.891   6.202   1.031
14035WAT     H242348   6.046   6.252   1.016
14036WAT      O42349   9.466   5.680   2.016
14036WAT     H142350   9.565   5.692   2.020
14036WAT     H242351   9.429   5.735   1.942
14037WAT      O42352   5.912   0.297   2.078
14037WAT     H142353   5.904   0.247   2.164
14037WAT     H242354   5.908   0.395   2.097
14038WAT      O42355   7.290   7.774   3.777
14038WAT     H142356   7.349   7.853   3.789
14038WAT     H242357   7.194   7.802   3.786
14039WAT      O42358   9.634   0.691   0.512
14039WAT     H142359   9.718   0.648   0.546
14039WAT     H242360   9.562   0.682   0.580
14040WAT      O42361   3.292   1.270   0.914
14040WAT     H142362   3.385   1.306   0.921
14040WAT     H242363   3.261   1.273   0.819
14041WAT      O42364   6.942   5.400   2.632
14041WAT     H142365   6.978   5.312   2.663
14041WAT     H242366   7.017   5.465   2.624
14042WAT      O42367   5.777   3.392   5.025
14042WAT     H142368   5.841   3.377   4.950
14042WAT     H242369   5.828   3.409   5.109
14043WAT      O42370   8.156   4.714   9.267
14043WAT     H142371   8.074   4.693   9.214
14043WAT     H242372   8.192   4.630   9.308
14044WAT      O42373   7.131   7.641   5.029
14044WAT     H142374   7.141   7.740   5.022
14044WAT     H242375   7.218   7.597   5.005
14045WAT      O42376   0.233   2.415   3.604
14045WAT     H142377   0.207   2.393   3.698
14045WAT     H242378   0.225   2.513   3.589
14046WAT      O42379   7.025   3.915   0.791
14046WAT     H142380   7.036   4.006   0.829
14046WAT     H242381   6.980   3.856   0.858
14047WAT      O42382   8.493   6.618   3.515
14047WAT     H142383   8.513   6.707   3.557
14047WAT     H242384   8.454   6.557   3.583
14048WAT      O42385   6.618   4.188   0.272
14048WAT     H142386   6.654   4.156   0.359
14048WAT     H242387   6.563   4.270   0.288
14049WAT      O42388   2.438   6.936   8.780
14049WAT     H142389   2.528   6.979   8.777
14049WAT     H242390   2.404   6.924   8.686
14050WAT      O42391   1.929   5.705   4.062
14050WAT     H142392   1.837   5.744   4.059
14050WAT     H242393   1.949   5.659   3.976
14051WAT      O42394   2.801   8.292   5.722
14051WAT     H142395   2.842   8.256   5.806
14051WAT     H242396   2.851   8.374   5.694
14052WAT      O42397   8.379   2.211   3.701
14052WAT     H142398   8.401   2.118   3.671
14052WAT     H242399   8.332   2.259   3.627
14053WAT      O42400   7.232   6.536   5.719
14053WAT     H142401   7.166   6.475   5.674
14053WAT     H242402   7.304   6.561   5.653
14054WAT      O42403   0.954   2.288   3.114
14054WAT     H142404   0.985   2.383   3.126
14054WAT     H242405   1.024   2.226   3.148
14055WAT      O42406   3.550   3.649   2.117
14055WAT     H142407   3.541   3.633   2.215
14055WAT     H242408   3.581   3.743   2.101
14056WAT      O42409   2.707   7.588   9.236
14056WAT     H142410   2.712   7.503   9.290
14056WAT     H242411   2.613   7.600   9.203
14057WAT      O42412   0.973   2.619   7.566
14057WAT     H142413   0.875   2.603   7.553
14057WAT     H242414   0.986   2.701   7.621
14058WAT      O42415   8.642   8.513   5.962
14058WAT     H142416   8.597   8.590   5.917
14058WAT     H242417   8.730   8.543   6.000
14059WAT      O42418   9.478   4.033   3.228
14059WAT     H142419   9.534   3.986   3.295
14059WAT     H242420   9.501   4.131   3.228
14060WAT      O42421   4.906   2.615   0.767
14060WAT     H142422   4.909   2.680   0.843
14060WAT     H242423   4.877   2.663   0.684
14061WAT      O42424   5.967   8.033   6.142
14061WAT     H142425   5.898   8.033   6.069
14061WAT     H242426   5.999   8.127   6.157
14062WAT      O42427   4.161   6.889   9.421
14062WAT     H142428   4.259   6.901   9.402
14062WAT     H242429   4.118   6.843   9.344
14063WAT      O42430   1.888   6.071   6.554
14063WAT     H142431   1.855   6.157   6.515
14063WAT     H242432   1.816   6.001   6.546
14064WAT      O42433   3.606   3.991   6.094
14064WAT     H142434   3.650   4.049   6.025
14064WAT     H242435   3.596   3.898   6.058
14065WAT      O42436   1.593   2.563   8.065
14065WAT     H142437   1.554   2.501   7.997
14065WAT     H242438   1.554   2.655   8.053
14066WAT      O42439   7.190   2.382   0.628
14066WAT     H142440   7.240   2.442   0.690
14066WAT     H242441   7.127   2.437   0.572
14067WAT      O42442   9.731   2.023   0.214
14067WAT     H142443   9.797   1.958   0.177
14067WAT     H242444   9.640   1.981   0.214
14068WAT      O42445   6.462   0.514   7.082
14068WAT     H142446   6.518   0.535   7.001
14068WAT     H242447   6.510   0.448   7.140
14069WAT      O42448   7.199   4.484   0.406
14069WAT     H142449   7.125   4.436   0.453
14069WAT     H242450   7.223   4.566   0.459
14070WAT      O42451   7.826   3.641   1.447
14070WAT     H142452   7.757   3.687   1.503
14070WAT     H242453   7.812   3.542   1.452
14071WAT      O42454   6.971   5.294   0.314
14071WAT     H142455   6.873   5.280   0.330
14071WAT     H242456   6.985   5.383   0.270
14072WAT      O42457   9.787   4.315   8.847
14072WAT     H142458   9.827   4.357   8.929
14072WAT     H242459   9.697   4.355   8.830
14073WAT      O42460   1.646   6.375   2.946
14073WAT     H142461   1.720   6.368   3.013
14073WAT     H242462   1.666   6.448   2.881
14074WAT      O42463   4.490   7.061   8.937
14074WAT     H142464   4.542   7.115   8.871
14074WAT     H242465   4.524   7.081   9.030
14075WAT      O42466   5.557   4.626   8.126
14075WAT     H142467   5.562   4.659   8.221
14075WAT     H242468   5.649   4.626   8.086
14076WAT      O42469   7.434   9.279   6.366
14076WAT     H142470   7.451   9.207   6.432
14076WAT     H242471   7.335   9.289   6.353
14077WAT      O42472   5.560   4.250   5.406
14077WAT     H142473   5.645   4.298   5.423
14077WAT     H242474   5.483   4.314   5.412
14078WAT      O42475   2.015   8.428   2.184
14078WAT     H142476   1.921   8.432   2.217
14078WAT     H242477   2.030   8.501   2.117
14079WAT      O42478   8.489   4.902   6.630
14079WAT     H142479   8.461   4.891   6.534
14079WAT     H242480   8.538   4.820   6.660
14080WAT      O42481   0.875   4.409   2.376
14080WAT     H142482   0.824   4.481   2.424
14080WAT     H242483   0.952   4.379   2.433
14081WAT      O42484   2.537   6.677   8.605
14081WAT     H142485   2.622   6.727   8.588
14081WAT     H242486   2.480   6.729   8.668
14082WAT      O42487   4.292   8.056   6.825
14082WAT     H142488   4.221   8.122   6.801
14082WAT     H242489   4.363   8.101   6.878
14083WAT      O42490   8.801   0.151   9.851
14083WAT     H142491   8.862   0.120   9.925
14083WAT     H242492   8.850   0.147   9.764
14084WAT      O42493   7.881   9.597   5.550
14084WAT     H142494   7.821   9.652   5.607
14084WAT     H242495   7.843   9.590   5.458
14085WAT      O42496   7.810   5.058   7.095
14085WAT     H142497   7.798   4.961   7.117
14085WAT     H242498   7.906   5.075   7.073
14086WAT      O42499   3.131   3.030   5.990
14086WAT     H142500   3.111   3.012   6.086
14086WAT     H242501   3.197   3.106   5.984
14087WAT      O42502   2.524   1.292   6.827
14087WAT     H142503   2.614   1.259   6.799
14087WAT     H242504   2.494   1.365   6.766
14088WAT      O42505   7.463   3.201   5.142
14088WAT     H142506   7.493   3.281   5.193
14088WAT     H242507   7.496   3.118   5.188
14089WAT      O42508   4.190   3.873   5.717
14089WAT     H142509   4.214   3.908   5.807
14089WAT     H242510   4.110   3.813   5.725
14090WAT      O42511   1.245   9.757   8.750
14090WAT     H142512   1.322   9.743   8.688
14090WAT     H242513   1.175   9.812   8.705
14091WAT      O42514   7.610   7.560   6.567
14091WAT     H142515   7.656   7.471   6.558
14091WAT     H242516   7.678   7.633   6.570
14092WAT      O42517   4.811   3.773   3.478
14092WAT     H142518   4.765   3.685   3.468
14092WAT     H242519   4.780   3.818   3.561
14093WAT      O42520   2.214   4.075   6.544
14093WAT     H142521   2.177   4.125   6.465
14093WAT     H242522   2.293   4.124   6.580
14094WAT      O42523   8.197   7.690   4.475
14094WAT     H142524   8.098   7.673   4.483
14094WAT     H242525   8.215   7.787   4.495
14095WAT      O42526   0.722   5.278   4.507
14095WAT     H142527   0.745   5.248   4.600
14095WAT     H242528   0.642   5.227   4.475
14096WAT      O42529   9.035   5.369   7.384
14096WAT     H142530   9.023   5.357   7.285
14096WAT     H242531   8.993   5.456   7.412
14097WAT      O42532   8.404   6.471   4.247
14097WAT     H142533   8.449   6.389   4.211
14097WAT     H242534   8.455   6.552   4.218
14098WAT      O42535   0.750   5.697   6.576
14098WAT     H142536   0.651   5.680   6.579
14098WAT     H242537   0.768   5.791   6.605
14099WAT      O42538   7.477   9.433   9.433
14099WAT     H142539   7.391   9.471   9.399
14099WAT     H242540   7.526   9.390   9.357
14100WAT      O42541   0.447   7.018   9.607
14100WAT     H142542   0.366   7.065   9.642
14100WAT     H242543   0.523   7.082   9.602
14101WAT      O42544   3.554   0.556   2.564
14101WAT     H142545   3.630   0.509   2.610
14101WAT     H242546   3.496   0.488   2.519
14102WAT      O42547   0.249   0.820   2.207
14102WAT     H142548   0.341   0.788   2.185
14102WAT     H242549   0.252   0.918   2.227
14103WAT      O42550   5.603   7.986   8.097
14103WAT     H142551   5.629   7.979   8.194
14103WAT     H242552   5.681   8.018   8.044
14104WAT      O42553   8.576   8.503   8.384
14104WAT     H142554   8.629   8.437   8.436
14104WAT     H242555   8.496   8.458   8.345
14105WAT      O42556   2.038   8.083   0.465
14105WAT     H142557   2.065   7.994   0.501
14105WAT     H242558   1.945   8.105   0.494
14106WAT      O42559   6.093   2.419   0.180
14106WAT     H142560   6.106   2.485   0.254
14106WAT     H242561   6.180   2.402   0.134
14107WAT      O42562   1.577   8.889   5.721
14107WAT     H142563   1.666   8.864   5.683
14107WAT     H242564   1.525   8.806   5.740
14108WAT      O42565   0.491   1.630   2.404
14108WAT     H142566   0.486   1.634   2.504
14108WAT     H242567   0.556   1.698   2.372
14109WAT      O42568   0.213   0.656   8.249
14109WAT     H142569   0.286   0.679   8.185
14109WAT     H242570   0.162   0.738   8.273
14110WAT      O42571   2.155   0.124   6.145
14110WAT     H142572   2.238   0.179   6.140
14110WAT     H242573   2.180   0.027   6.147
14111WAT      O42574   9.230   3.805   6.089
14111WAT     H142575   9.290   3.726   6.097
14111WAT     H242576   9.179   3.800   6.003
14112WAT      O42577   6.845   4.734   2.087
14112WAT     H142578   6.876   4.666   2.153
14112WAT     H242579   6.798   4.689   2.011
14113WAT      O42580   3.319   3.877   1.588
14113WAT     H142581   3.369   3.848   1.669
14113WAT     H242582   3.370   3.950   1.542
14114WAT      O42583   1.353   1.746   7.106
14114WAT     H142584   1.291   1.741   7.184
14114WAT     H242585   1.302   1.726   7.022
14115WAT      O42586   1.215   0.298   6.264
14115WAT     H142587   1.233   0.293   6.166
14115WAT     H242588   1.298   0.328   6.312
14116WAT      O42589   8.156   7.837   6.674
14116WAT     H142590   8.111   7.915   6.717
14116WAT     H242591   8.187   7.863   6.582
14117WAT      O42592   0.161   8.621   5.422
14117WAT     H142593   0.224   8.617   5.345
14117WAT     H242594   0.069   8.596   5.391
14118WAT      O42595   3.175   5.283   4.247
14118WAT     H142596   3.215   5.364   4.204
14118WAT     H242597   3.083   5.270   4.213
14119WAT      O42598   7.937   6.195   8.560
14119WAT     H142599   7.886   6.195   8.474
14119WAT     H242600   7.930   6.105   8.603
14120WAT      O42601   4.068   9.629   2.203
14120WAT     H142602   4.165   9.654   2.201
14120WAT     H242603   4.029   9.656   2.291
14121WAT      O42604   5.786   2.986   0.206
14121WAT     H142605   5.708   2.927   0.186
14121WAT     H242606   5.825   3.021   0.121
14122WAT      O42607   3.195   2.326   8.640
14122WAT     H142608   3.095   2.321   8.647
14122WAT     H242609   3.225   2.419   8.660
14123WAT      O42610   8.256   5.416   5.219
14123WAT     H142611   8.221   5.503   5.255
14123WAT     H242612   8.249   5.346   5.290
14124WAT      O42613   5.925   2.247   6.923
14124WAT     H142614   6.018   2.222   6.953
14124WAT     H242615   5.915   2.229   6.825
14125WAT      O42616   3.316   0.700   0.028
14125WAT     H142617   3.362   0.683  -0.059
14125WAT     H242618   3.243   0.767   0.015
14126WAT      O42619   1.197   6.645   6.170
14126WAT     H142620   1.168   6.727   6.221
14126WAT     H242621   1.117   6.587   6.153
14127WAT      O42622   5.083   9.510   3.055
14127WAT     H142623   4.995   9.503   3.103
14127WAT     H242624   5.069   9.498   2.957
14128WAT      O42625   6.018   3.863   3.495
14128WAT     H142626   6.082   3.818   3.433
14128WAT     H242627   6.067   3.929   3.551
14129WAT      O42628   3.312   1.910   8.934
14129WAT     H142629   3.290   1.930   8.839
14129WAT     H242630   3.385   1.842   8.938
14130WAT      O42631   7.866   5.168   2.673
14130WAT     H142632   7.917   5.132   2.595
14130WAT     H242633   7.852   5.266   2.663
14131WAT      O42634   4.112   0.685   7.152
14131WAT     H142635   4.056   0.606   7.176
14131WAT     H242636   4.191   0.690   7.214
14132WAT      O42637   2.647   5.487   1.022
14132WAT     H142638   2.664   5.515   0.928
14132WAT     H242639   2.552   5.509   1.047
14133WAT      O42640   1.238   0.312   8.269
14133WAT     H142641   1.210   0.406   8.291
14133WAT     H242642   1.333   0.313   8.237
14134WAT      O42643   2.133   5.990   5.567
14134WAT     H142644   2.112   6.079   5.609
14134WAT     H242645   2.061   5.925   5.590
14135WAT      O42646   8.194   4.378   3.986
14135WAT     H142647   8.112   4.435   3.984
14135WAT     H242648   8.242   4.384   3.899
14136WAT      O42649   9.794   5.292   5.716
14136WAT     H142650   9.853   5.342   5.779
14136WAT     H242651   9.836   5.289   5.625
14137WAT      O42652   1.146   9.736   6.921
14137WAT     H142653   1.140   9.836   6.920
14137WAT     H242654   1.194   9.706   7.003
14138WAT      O42655   5.699   5.501   5.116
14138WAT     H142656   5.734   5.595   5.122
14138WAT     H242657   5.773   5.441   5.085
14139WAT      O42658   4.237   6.633   8.305
14139WAT     H142659   4.163   6.569   8.327
14139WAT     H242660   4.247   6.699   8.379
14140WAT      O42661   6.866   8.316   0.986
14140WAT     H142662   6.790   8.343   1.046
14140WAT     H242663   6.940   8.278   1.041
14141WAT      O42664   1.664   6.662   4.000
14141WAT     H142665   1.643   6.712   4.083
14141WAT     H242666   1.598   6.588   3.988
14142WAT      O42667   7.613   6.437   7.618
14142WAT     H142668   7.635   6.345   7.652
14142WAT     H242669   7.680   6.464   7.549
14143WAT      O42670   9.212   8.993   1.426
14143WAT     H142671   9.309   8.972   1.435
14143WAT     H242672   9.174   9.016   1.516
14144WAT      O42673   6.621   2.137   2.787
14144WAT     H142674   6.585   2.145   2.694
14144WAT     H242675   6.558   2.082   2.843
14145WAT      O42676   8.071   0.437   7.415
14145WAT     H142677   8.069   0.445   7.315
14145WAT     H242678   8.105   0.522   7.454
14146WAT      O42679   0.267   2.631   1.483
14146WAT     H142680   0.298   2.536   1.491
14146WAT     H242681   0.233   2.647   1.391
14147WAT      O42682   2.363   2.517   8.627
14147WAT     H142683   2.344   2.533   8.530
14147WAT     H242684   2.400   2.600   8.668
14148WAT      O42685   6.848   8.511   7.736
14148WAT     H142686   6.793   8.428   7.724
14148WAT     H242687   6.816   8.560   7.818
14149WAT      O42688   2.327   0.402   2.558
14149WAT     H142689   2.337   0.462   2.637
14149WAT     H242690   2.323   0.307   2.589
14150WAT      O42691   6.471   1.577   1.036
14150WAT     H142692   6.546   1.573   0.971
14150WAT     H242693   6.384   1.562   0.988
14151WAT      O42694   2.390   0.924   2.411
14151WAT     H142695   2.354   0.832   2.419
14151WAT     H242696   2.490   0.921   2.411
14152WAT      O42697   0.766   3.150   5.442
14152WAT     H142698   0.754   3.056   5.471
14152WAT     H242699   0.724   3.212   5.509
14153WAT      O42700   9.177   4.493   0.256
14153WAT     H142701   9.246   4.486   0.329
14153WAT     H242702   9.190   4.418   0.191
14154WAT      O42703   0.180   5.626   0.709
14154WAT     H142704   0.085   5.606   0.733
14154WAT     H242705   0.205   5.716   0.743
14155WAT      O42706   9.683   0.891   3.242
14155WAT     H142707   9.777   0.908   3.213
14155WAT     H242708   9.684   0.855   3.336
14156WAT      O42709   2.979   7.835   0.255
14156WAT     H142710   2.942   7.750   0.292
14156WAT     H242711   3.079   7.835   0.262
14157WAT      O42712   4.909   6.549   0.066
14157WAT     H142713   4.838   6.526  -0.001
14157WAT     H242714   4.896   6.642   0.099
14158WAT      O42715   4.552   8.837   8.839
14158WAT     H142716   4.503   8.780   8.772
14158WAT     H242717   4.650   8.836   8.818
14159WAT      O42718   4.134   3.545   0.629
14159WAT     H142719   4.195   3.555   0.708
14159WAT     H242720   4.046   3.588   0.648
14160WAT      O42721   7.966   2.205   1.176
14160WAT     H142722   7.895   2.248   1.121
14160WAT     H242723   7.966   2.244   1.268
14161WAT      O42724   6.535   2.660   1.262
14161WAT     H142725   6.469   2.735   1.270
14161WAT     H242726   6.529   2.602   1.342
14162WAT      O42727   6.768   2.656   0.536
14162WAT     H142728   6.741   2.732   0.477
14162WAT     H242729   6.847   2.609   0.496
14163WAT      O42730   3.034   6.646   1.502
14163WAT     H142731   3.014   6.738   1.538
14163WAT     H242732   2.970   6.625   1.428
14164WAT      O42733   3.486   5.023   6.856
14164WAT     H142734   3.571   5.069   6.881
14164WAT     H242735   3.455   4.967   6.933
14165WAT      O42736   8.520   0.768   9.836
14165WAT     H142737   8.491   0.799   9.745
14165WAT     H242738   8.528   0.847   9.897
14166WAT      O42739   1.622   4.071   2.352
14166WAT     H142740   1.592   3.994   2.296
14166WAT     H242741   1.719   4.089   2.334
14167WAT      O42742   8.950   0.886   3.768
14167WAT     H142743   8.987   0.848   3.852
14167WAT     H242744   8.898   0.969   3.788
14168WAT      O42745   6.814   3.424   3.972
14168WAT     H142746   6.909   3.454   3.975
14168WAT     H242747   6.793   3.391   3.880
14169WAT      O42748   9.037   3.886   9.078
14169WAT     H142749   8.944   3.911   9.050
14169WAT     H242750   9.045   3.786   9.081
14170WAT      O42751   0.490   8.206   9.628
14170WAT     H142752   0.485   8.110   9.601
14170WAT     H242753   0.401   8.249   9.616
14171WAT      O42754   1.371   3.995   2.455
14171WAT     H142755   1.334   3.996   2.548
14171WAT     H242756   1.464   4.031   2.455
14172WAT      O42757   4.386   0.150   7.205
14172WAT     H142758   4.350   0.114   7.292
14172WAT     H242759   4.340   0.235   7.183
14173WAT      O42760   7.948   7.099   2.098
14173WAT     H142761   7.881   7.050   2.154
14173WAT     H242762   7.942   7.067   2.003
14174WAT      O42763   4.545   6.674   6.829
14174WAT     H142764   4.601   6.681   6.911
14174WAT     H242765   4.448   6.676   6.855
14175WAT      O42766   0.166   0.470   4.907
14175WAT     H142767   0.240   0.403   4.908
14175WAT     H242768   0.155   0.507   4.815
14176WAT      O42769   3.013   1.521   9.521
14176WAT     H142770   3.079   1.517   9.596
14176WAT     H242771   3.051   1.574   9.445
14177WAT      O42772   4.645   1.914   5.407
14177WAT     H142773   4.730   1.932   5.456
14177WAT     H242774   4.660   1.843   5.338
14178WAT      O42775   4.401   9.188   8.727
14178WAT     H142776   4.447   9.136   8.654
14178WAT     H242777   4.448   9.275   8.741
14179WAT      O42778   7.512   3.030   8.114
14179WAT     H142779   7.604   3.005   8.084
14179WAT     H242780   7.453   2.950   8.112
14180WAT      O42781   6.404   7.249   3.864
14180WAT     H142782   6.331   7.195   3.822
14180WAT     H242783   6.365   7.307   3.936
14181WAT      O42784   3.548   8.793   8.010
14181WAT     H142785   3.523   8.754   7.922
14181WAT     H242786   3.640   8.831   8.005
14182WAT      O42787   4.994   4.069   0.280
14182WAT     H142788   4.992   4.057   0.379
14182WAT     H242789   5.078   4.115   0.253
14183WAT      O42790   6.856   5.412   2.340
14183WAT     H142791   6.894   5.386   2.428
14183WAT     H242792   6.923   5.393   2.268
14184WAT      O42793   8.518   6.234   9.711
14184WAT     H142794   8.534   6.209   9.807
14184WAT     H242795   8.595   6.288   9.678
14185WAT      O42796   4.080   1.014   8.703
14185WAT     H142797   4.045   1.034   8.612
14185WAT     H242798   4.143   0.937   8.699
14186WAT      O42799   0.396   4.140   4.892
14186WAT     H142800   0.393   4.146   4.992
14186WAT     H242801   0.482   4.180   4.859
14187WAT      O42802   2.067   6.328   0.051
14187WAT     H142803   2.070   6.245  -0.006
14187WAT     H242804   2.108   6.308   0.141
14188WAT      O42805   8.658   2.808   9.409
14188WAT     H142806   8.702   2.892   9.377
14188WAT     H242807   8.724   2.753   9.459
14189WAT      O42808   4.534   3.022   3.590
14189WAT     H142809   4.518   3.108   3.638
14189WAT     H242810   4.633   3.007   3.581
14190WAT      O42811   9.072   6.895   3.432
14190WAT     H142812   9.149   6.913   3.371
14190WAT     H242813   9.091   6.813   3.486
14191WAT      O42814   0.408   8.932   1.235
14191WAT     H142815   0.504   8.950   1.214
14191WAT     H242816   0.364   8.887   1.157
14192WAT      O42817   0.992   9.022   2.303
14192WAT     H142818   1.056   9.097   2.320
14192WAT     H242819   1.003   8.952   2.373
14193WAT      O42820   2.423   8.463   0.960
14193WAT     H142821   2.348   8.516   0.919
14193WAT     H242822   2.433   8.376   0.911
14194WAT      O42823   1.432   1.496   3.504
14194WAT     H142824   1.365   1.472   3.433
14194WAT     H242825   1.388   1.492   3.594
14195WAT      O42826   3.177   8.969   7.662
14195WAT     H142827   3.122   8.984   7.580
14195WAT     H242828   3.175   8.872   7.686
14196WAT      O42829   4.147   2.633   3.499
14196WAT     H142830   4.104   2.719   3.527
14196WAT     H242831   4.135   2.621   3.400
14197WAT      O42832   5.740   6.074   6.453
14197WAT     H142833   5.666   6.008   6.450
14197WAT     H242834   5.795   6.067   6.370
14198WAT      O42835   9.007   7.896   3.207
14198WAT     H142836   8.940   7.826   3.180
14198WAT     H242837   9.013   7.900   3.307
14199WAT      O42838   9.524   8.851   1.055
14199WAT     H142839   9.492   8.906   1.131
14199WAT     H242840   9.476   8.877   0.971
14200WAT      O42841   4.576   0.975   5.875
14200WAT     H142842   4.495   1.015   5.918
14200WAT     H242843   4.549   0.929   5.791
14201WAT      O42844   2.176   8.952   5.539
14201WAT     H142845   2.244   8.990   5.476
14201WAT     H242846   2.085   8.959   5.498
14202WAT      O42847   5.257   6.651   8.335
14202WAT     H142848   5.177   6.680   8.387
14202WAT     H242849   5.228   6.589   8.261
14203WAT      O42850   7.510   4.499   5.068
14203WAT     H142851   7.599   4.455   5.067
14203WAT     H242852   7.461   4.477   4.984
14204WAT      O42853   4.468   4.954   3.649
14204WAT     H142854   4.434   4.882   3.589
14204WAT     H242855   4.469   5.041   3.600
14205WAT      O42856   4.855   2.176   8.521
14205WAT     H142857   4.913   2.127   8.587
14205WAT     H242858   4.764   2.189   8.560
14206WAT      O42859   1.318   0.786   9.511
14206WAT     H142860   1.386   0.799   9.438
14206WAT     H242861   1.246   0.725   9.479
14207WAT      O42862   8.475   2.753   0.952
14207WAT     H142863   8.455   2.768   0.855
14207WAT     H242864   8.391   2.761   1.005
14208WAT      O42865   8.847   9.283   5.182
14208WAT     H142866   8.888   9.203   5.227
14208WAT     H242867   8.909   9.361   5.191
14209WAT      O42868   5.414   0.375   9.380
14209WAT     H142869   5.320   0.375   9.414
14209WAT     H242870   5.435   0.284   9.343
14210WAT      O42871   7.025   0.704   9.582
14210WAT     H142872   7.053   0.651   9.662
14210WAT     H242873   7.071   0.793   9.583
14211WAT      O42874   9.858   4.021   3.470
14211WAT     H142875   9.873   4.053   3.564
14211WAT     H242876   9.908   4.080   3.407
14212WAT      O42877   4.715   2.702   3.380
14212WAT     H142878   4.677   2.682   3.290
14212WAT     H242879   4.650   2.676   3.451
14213WAT      O42880   3.351   6.442   7.171
14213WAT     H142881   3.267   6.393   7.146
14213WAT     H242882   3.328   6.534   7.203
14214WAT      O42883   6.562   6.316   5.318
14214WAT     H142884   6.516   6.328   5.230
14214WAT     H242885   6.593   6.405   5.352
14215WAT      O42886   5.155   7.074   6.995
14215WAT     H142887   5.112   7.015   7.063
14215WAT     H242888   5.097   7.078   6.913
14216WAT      O42889   2.850   1.319   9.223
14216WAT     H142890   2.939   1.353   9.192
14216WAT     H242891   2.841   1.333   9.322
14217WAT      O42892   1.500   1.468   4.611
14217WAT     H142893   1.461   1.557   4.636
14217WAT     H242894   1.448   1.395   4.655
14218WAT      O42895   0.555   4.249   6.902
14218WAT     H142896   0.476   4.197   6.868
14218WAT     H242897   0.611   4.189   6.961
14219WAT      O42898   4.481   2.603   4.273
14219WAT     H142899   4.394   2.645   4.248
14219WAT     H242900   4.465   2.534   4.344
14220WAT      O42901   9.249   2.249   7.032
14220WAT     H142902   9.272   2.341   7.002
14220WAT     H242903   9.319   2.216   7.096
14221WAT      O42904   8.263   4.249   6.784
14221WAT     H142905   8.250   4.231   6.882
14221WAT     H242906   8.180   4.222   6.734
14222WAT      O42907   7.280   4.228   6.853
14222WAT     H142908   7.272   4.185   6.763
14222WAT     H242909   7.201   4.288   6.869
14223WAT      O42910   9.108   3.109   7.058
14223WAT     H142911   9.119   3.037   7.126
14223WAT     H242912   9.173   3.094   6.983
14224WAT      O42913   1.098   2.228   5.882
14224WAT     H142914   1.169   2.202   5.816
14224WAT     H242915   1.011   2.189   5.855
14225WAT      O42916   4.902   3.114   7.548
14225WAT     H142917   4.848   3.095   7.630
14225WAT     H242918   4.848   3.171   7.486
14226WAT      O42919   0.872   5.668   7.921
14226WAT     H142920   0.921   5.609   7.985
14226WAT     H242921   0.922   5.673   7.835
14227WAT      O42922   2.680   1.462   7.172
14227WAT     H142923   2.745   1.447   7.098
14227WAT     H242924   2.607   1.523   7.140
14228WAT      O42925   2.543   0.584   5.404
14228WAT     H142926   2.601   0.504   5.405
14228WAT     H242927   2.448   0.557   5.422
14229WAT      O42928   4.037   1.056   0.900
14229WAT     H142929   4.118   1.017   0.943
14229WAT     H242930   4.005   0.996   0.827
14230WAT      O42931   2.089   5.408   7.177
14230WAT     H142932   2.067   5.411   7.274
14230WAT     H242933   2.055   5.322   7.137
14231WAT      O42934   4.956   8.874   2.465
14231WAT     H142935   4.980   8.821   2.383
14231WAT     H242936   5.035   8.928   2.494
14232WAT      O42937   3.879   4.637   7.283
14232WAT     H142938   3.946   4.607   7.351
14232WAT     H242939   3.887   4.581   7.200
14233WAT      O42940   2.956   4.225   8.154
14233WAT     H142941   2.928   4.302   8.211
14233WAT     H242942   3.005   4.259   8.073
14234WAT      O42943   5.613   8.604   5.620
14234WAT     H142944   5.686   8.638   5.680
14234WAT     H242945   5.647   8.597   5.527
14235WAT      O42946   3.621   8.941   6.199
14235WAT     H142947   3.554   8.867   6.206
14235WAT     H242948   3.583   9.024   6.238
14236WAT      O42949   4.792   9.675   0.071
14236WAT     H142950   4.829   9.599   0.124
14236WAT     H242951   4.695   9.658   0.052
14237WAT      O42952   7.633   1.296   5.121
14237WAT     H142953   7.577   1.317   5.201
14237WAT     H242954   7.691   1.375   5.100
14238WAT      O42955   8.082   7.977   4.874
14238WAT     H142956   8.060   8.025   4.789
14238WAT     H242957   8.019   7.901   4.887
14239WAT      O42958   0.209   0.739   9.470
14239WAT     H142959   0.188   0.659   9.414
14239WAT     H242960   0.135   0.806   9.462
14240WAT      O42961   9.368   1.704   1.269
14240WAT     H142962   9.369   1.770   1.344
14240WAT     H242963   9.278   1.706   1.224
14241WAT      O42964   5.796   1.308   4.490
14241WAT     H142965   5.868   1.245   4.459
14241WAT     H242966   5.750   1.347   4.410
14242WAT      O42967   7.212   8.069   4.353
14242WAT     H142968   7.309   8.050   4.365
14242WAT     H242969   7.192   8.079   4.256
14243WAT      O42970   0.263   5.288   7.904
14243WAT     H142971   0.248   5.236   7.820
14243WAT     H242972   0.177   5.300   7.952
14244WAT      O42973   4.646   2.792   5.901
14244WAT     H142974   4.636   2.746   5.813
14244WAT     H242975   4.739   2.827   5.910
14245WAT      O42976   4.706   2.613   9.885
14245WAT     H142977   4.748   2.560   9.959
14245WAT     H242978   4.613   2.580   9.870
14246WAT      O42979   2.088   6.522   5.662
14246WAT     H142980   2.052   6.489   5.574
14246WAT     H242981   2.178   6.561   5.648
14247WAT      O42982   2.084   5.971   7.171
14247WAT     H142983   2.158   6.038   7.162
14247WAT     H242984   2.081   5.937   7.265
14248WAT      O42985   7.219   4.704   2.886
14248WAT     H142986   7.261   4.639   2.949
14248WAT     H242987   7.242   4.797   2.914
14249WAT      O42988   3.596   8.928   9.697
14249WAT     H142989   3.665   8.974   9.640
14249WAT     H242990   3.601   8.829   9.680
14250WAT      O42991   8.851   4.260   0.708
14250WAT     H142992   8.947   4.240   0.693
14250WAT     H242993   8.808   4.281   0.620
14251WAT      O42994   4.515   5.771   9.099
14251WAT     H142995   4.578   5.807   9.168
14251WAT     H242996   4.562   5.765   9.011
14252WAT      O42997   8.483   8.480   8.822
14252WAT     H142998   8.447   8.556   8.876
14252WAT     H242999   8.583   8.486   8.818
14253WAT      O43000   7.432   1.905   1.842
14253WAT     H143001   7.501   1.933   1.775
14253WAT     H243002   7.478   1.871   1.924
14254WAT      O43003   4.731   8.321   2.259
14254WAT     H143004   4.829   8.308   2.275
14254WAT     H243005   4.696   8.389   2.323
14255WAT      O43006   9.451   4.793   1.785
14255WAT     H143007   9.478   4.716   1.726
14255WAT     H243008   9.367   4.834   1.751
14256WAT      O43009   4.628   7.106   0.008
14256WAT     H143010   4.698   7.152   0.062
14256WAT     H243011   4.672   7.049  -0.062
14257WAT      O43012   5.221   3.840   3.419
14257WAT     H143013   5.210   3.786   3.503
14257WAT     H243014   5.132   3.850   3.375
14258WAT      O43015   4.036   3.845   9.599
14258WAT     H143016   3.984   3.841   9.515
14258WAT     H243017   4.080   3.935   9.607
14259WAT      O43018   8.997   1.271   0.340
14259WAT     H143019   9.003   1.212   0.259
14259WAT     H243020   9.057   1.350   0.327
14260WAT      O43021   4.061   7.132   2.664
14260WAT     H143022   4.030   7.163   2.754
14260WAT     H243023   4.095   7.210   2.611
14261WAT      O43024   5.793   7.186   5.103
14261WAT     H143025   5.823   7.107   5.048
14261WAT     H243026   5.696   7.202   5.087
14262WAT      O43027   9.697   6.488   0.468
14262WAT     H143028   9.727   6.579   0.439
14262WAT     H243029   9.614   6.462   0.418
14263WAT      O43030   3.501   8.791   4.514
14263WAT     H143031   3.456   8.846   4.585
14263WAT     H243032   3.595   8.821   4.504
14264WAT      O43033   2.643   3.903   0.277
14264WAT     H143034   2.719   3.952   0.319
14264WAT     H243035   2.595   3.849   0.346
14265WAT      O43036   3.925   2.555   9.321
14265WAT     H143037   3.853   2.563   9.252
14265WAT     H243038   3.890   2.582   9.410
14266WAT      O43039   0.537   6.637   7.891
14266WAT     H143040   0.574   6.727   7.915
14266WAT     H243041   0.592   6.597   7.817
14267WAT      O43042   6.156   0.857   7.766
14267WAT     H143043   6.123   0.905   7.847
14267WAT     H243044   6.239   0.806   7.788
14268WAT      O43045   9.711   0.642   8.742
14268WAT     H143046   9.704   0.543   8.729
14268WAT     H243047   9.680   0.666   8.834
14269WAT      O43048   6.188   8.916   1.949
14269WAT     H143049   6.169   8.840   2.012
14269WAT     H243050   6.273   8.899   1.901
14270WAT      O43051   1.753   0.148   8.070
14270WAT     H143052   1.753   0.055   8.108
14270WAT     H243053   1.815   0.151   7.991
14271WAT      O43054   0.148   5.298   9.324
14271WAT     H143055   0.198   5.349   9.255
14271WAT     H243056   0.058   5.272   9.288
14272WAT      O43057   8.288   5.549   3.889
14272WAT     H143058   8.234   5.485   3.833
14272WAT     H243059   8.290   5.517   3.983
14273WAT      O43060   9.024   6.299   1.144
14273WAT     H143061   9.104   6.357   1.130
14273WAT     H243062   8.951   6.327   1.081
14274WAT      O43063   3.614   7.947   3.920
14274WAT     H143064   3.674   8.026   3.921
14274WAT     H243065   3.630   7.891   4.002
14275WAT      O43066   8.740   6.580   3.394
14275WAT     H143067   8.779   6.489   3.403
14275WAT     H243068   8.644   6.578   3.423
14276WAT      O43069   2.524   7.676   1.221
14276WAT     H143070   2.441   7.627   1.196
14276WAT     H243071   2.603   7.632   1.177
14277WAT      O43072   5.746   1.794   6.747
14277WAT     H143073   5.692   1.847   6.682
14277WAT     H243074   5.793   1.720   6.698
14278WAT      O43075   2.980   8.377   6.968
14278WAT     H143076   3.009   8.453   6.910
14278WAT     H243077   3.049   8.305   6.965
14279WAT      O43078   0.718   7.017   5.763
14279WAT     H143079   0.636   6.993   5.816
14279WAT     H243080   0.690   7.065   5.680
14280WAT      O43081   9.741   0.774   8.342
14280WAT     H143082   9.753   0.716   8.262
14280WAT     H243083   9.825   0.775   8.396
14281WAT      O43084   1.520   5.650   6.814
14281WAT     H143085   1.561   5.737   6.789
14281WAT     H243086   1.566   5.575   6.767
14282WAT      O43087   2.112   7.736   7.876
14282WAT     H143088   2.089   7.651   7.830
14282WAT     H243089   2.157   7.799   7.812
14283WAT      O43090   8.011   8.884   0.922
14283WAT     H143091   7.936   8.841   0.873
14283WAT     H243092   8.049   8.958   0.867
14284WAT      O43093   9.215   9.231   3.897
14284WAT     H143094   9.164   9.211   3.813
14284WAT     H243095   9.188   9.165   3.968
14285WAT      O43096   7.338   3.729   7.712
14285WAT     H143097   7.418   3.786   7.731
14285WAT     H243098   7.272   3.738   7.787
14286WAT      O43099   3.786   1.499   2.111
14286WAT     H143100   3.796   1.420   2.172
14286WAT     H243101   3.710   1.556   2.142
14287WAT      O43102   6.520   1.585   8.591
14287WAT     H143103   6.486   1.672   8.624
14287WAT     H243104   6.475   1.510   8.640
14288WAT      O43105   9.688   0.078   5.023
14288WAT     H143106   9.677   0.043   5.116
14288WAT     H243107   9.612   0.045   4.967
14289WAT      O43108   8.626   2.691   8.791
14289WAT     H143109   8.558   2.761   8.775
14289WAT     H243110   8.710   2.733   8.826
14290WAT      O43111   0.258   1.452   3.430
14290WAT     H143112   0.246   1.354   3.448
14290WAT     H243113   0.319   1.464   3.352
14291WAT      O43114   0.028   7.451   2.438
14291WAT     H143115   0.049   7.404   2.352
14291WAT     H243116   0.071   7.541   2.437
14292WAT      O43117   0.003   3.721   6.833
14292WAT     H143118   0.097   3.705   6.865
14292WAT     H243119  -0.050   3.637   6.845
14293WAT      O43120   1.654   4.175   3.239
14293WAT     H143121   1.695   4.254   3.194
14293WAT     H243122   1.724   4.106   3.257
14294WAT      O43123   8.461   0.830   1.179
14294WAT     H143124   8.367   0.802   1.159
14294WAT     H243125   8.470   0.850   1.276
14295WAT      O43126   6.649   4.135   3.409
14295WAT     H143127   6.572   4.087   3.451
14295WAT     H243128   6.714   4.162   3.480
14296WAT      O43129   9.216   9.254   7.085
14296WAT     H143130   9.286   9.270   7.155
14296WAT     H243131   9.128   9.237   7.130
14297WAT      O43132   3.445   7.800   8.205
14297WAT     H143133   3.393   7.764   8.127
14297WAT     H243134   3.385   7.858   8.260
14298WAT      O43135   6.503   9.013   4.314
14298WAT     H143136   6.461   9.004   4.405
14298WAT     H243137   6.482   9.103   4.277
14299WAT      O43138   6.632   9.801   3.877
14299WAT     H143139   6.590   9.844   3.956
14299WAT     H243140   6.585   9.831   3.794
14300WAT      O43141   6.214   6.516   1.706
14300WAT     H143142   6.134   6.543   1.653
14300WAT     H243143   6.191   6.436   1.762
14301WAT      O43144   9.374   5.885   4.286
14301WAT     H143145   9.423   5.923   4.208
14301WAT     H243146   9.302   5.948   4.315
14302WAT      O43147   2.346   6.982   3.576
14302WAT     H143148   2.273   6.987   3.643
14302WAT     H243149   2.376   6.887   3.566
14303WAT      O43150   1.346   3.073   4.713
14303WAT     H143151   1.364   3.171   4.703
14303WAT     H243152   1.424   3.021   4.679
14304WAT      O43153   7.971   4.606   9.101
14304WAT     H143154   8.019   4.521   9.079
14304WAT     H243155   7.932   4.645   9.017
14305WAT      O43156   5.627   7.643   1.960
14305WAT     H143157   5.628   7.557   1.909
14305WAT     H243158   5.720   7.676   1.972
14306WAT      O43159   4.527   2.928   0.493
14306WAT     H143160   4.562   2.964   0.407
14306WAT     H243161   4.532   2.828   0.492
14307WAT      O43162   0.015   9.137   6.398
14307WAT     H143163  -0.072   9.186   6.389
14307WAT     H243164   0.049   9.114   6.307
14308WAT      O43165   7.073   3.045   2.221
14308WAT     H143166   6.982   3.076   2.195
14308WAT     H243167   7.141   3.091   2.164
14309WAT      O43168   1.224   7.745   1.929
14309WAT     H143169   1.179   7.776   1.845
14309WAT     H243170   1.155   7.731   2.000
14310WAT      O43171   3.417   8.658   1.308
14310WAT     H143172   3.433   8.754   1.331
14310WAT     H243173   3.395   8.650   1.211
14311WAT      O43174   9.444   6.504   7.888
14311WAT     H143175   9.351   6.526   7.916
14311WAT     H243176   9.460   6.405   7.899
14312WAT      O43177   3.802   1.328   6.676
14312WAT     H143178   3.703   1.324   6.664
14312WAT     H243179   3.830   1.424   6.687
14313WAT      O43180   9.076   5.015   4.092
14313WAT     H143181   9.169   5.050   4.091
14313WAT     H243182   9.011   5.090   4.101
14314WAT      O43183   7.008   5.324   8.900
14314WAT     H143184   6.979   5.319   8.805
14314WAT     H243185   7.069   5.402   8.913
14315WAT      O43186   2.504   6.550   5.678
14315WAT     H143187   2.476   6.548   5.774
14315WAT     H243188   2.439   6.606   5.626
14316WAT      O43189   8.385   1.937   2.896
14316WAT     H143190   8.301   1.928   2.843
14316WAT     H243191   8.457   1.880   2.855
14317WAT      O43192   8.729   1.713   7.302
14317WAT     H143193   8.804   1.716   7.368
14317WAT     H243194   8.656   1.655   7.338
14318WAT      O43195   9.065   5.790   6.122
14318WAT     H143196   8.989   5.854   6.131
14318WAT     H243197   9.149   5.833   6.155
14319WAT      O43198   5.981   9.267   4.004
14319WAT     H143199   5.907   9.326   4.036
14319WAT     H243200   5.942   9.189   3.955
14320WAT      O43201   9.132   1.149   4.776
14320WAT     H143202   9.221   1.148   4.822
14320WAT     H243203   9.140   1.101   4.688
14321WAT      O43204   2.425   8.821   0.672
14321WAT     H143205   2.366   8.895   0.702
14321WAT     H243206   2.413   8.807   0.573
14322WAT      O43207   8.356   5.707   3.359
14322WAT     H143208   8.335   5.615   3.393
14322WAT     H243209   8.392   5.701   3.266
14323WAT      O43210   8.353   5.734   8.974
14323WAT     H143211   8.354   5.768   9.068
14323WAT     H243212   8.363   5.811   8.911
14324WAT      O43213   1.421   1.260   7.890
14324WAT     H143214   1.366   1.307   7.821
14324WAT     H243215   1.396   1.163   7.892
14325WAT      O43216   7.935   2.099   7.946
14325WAT     H143217   7.924   2.143   7.857
14325WAT     H243218   7.990   2.016   7.935
14326WAT      O43219   9.601   2.055   6.860
14326WAT     H143220   9.574   2.143   6.822
14326WAT     H243221   9.531   2.024   6.925
14327WAT      O43222   7.512   5.580   4.174
14327WAT     H143223   7.569   5.507   4.136
14327WAT     H243224   7.570   5.648   4.220
14328WAT      O43225   4.277   8.887   2.437
14328WAT     H143226   4.291   8.929   2.347
14328WAT     H243227   4.294   8.789   2.432
14329WAT      O43228   9.538   6.477   5.394
14329WAT     H143229   9.473   6.529   5.449
14329WAT     H243230   9.524   6.498   5.297
14330WAT      O43231   2.253   2.701   2.589
14330WAT     H143232   2.230   2.798   2.597
14330WAT     H243233   2.279   2.665   2.679
14331WAT      O43234   2.955   9.049   3.726
14331WAT     H143235   2.913   9.078   3.640
14331WAT     H243236   3.045   9.010   3.707
14332WAT      O43237   3.132   3.088   0.348
14332WAT     H143238   3.164   3.052   0.436
14332WAT     H243239   3.209   3.095   0.285
14333WAT      O43240   7.390   5.111   2.331
14333WAT     H143241   7.354   5.179   2.269
14333WAT     H243242   7.448   5.047   2.281
14334WAT      O43243   3.622   4.853   7.828
14334WAT     H143244   3.643   4.850   7.926
14334WAT     H243245   3.659   4.937   7.789
14335WAT      O43246   1.159   6.026   3.595
14335WAT     H143247   1.154   5.933   3.560
14335WAT     H243248   1.253   6.060   3.587
14336WAT      O43249   7.527   4.269   1.402
14336WAT     H143250   7.563   4.362   1.403
14336WAT     H243251   7.514   4.237   1.496
14337WAT      O43252   2.295   1.849   7.382
14337WAT     H143253   2.349   1.790   7.442
14337WAT     H243254   2.347   1.868   7.299
14338WAT      O43255   1.487   3.894   6.184
14338WAT     H143256   1.509   3.967   6.249
14338WAT     H243257   1.443   3.819   6.233
14339WAT      O43258   1.413   7.688   2.397
14339WAT     H143259   1.319   7.719   2.413
14339WAT     H243260   1.422   7.658   2.302
14340WAT      O43261   3.383   0.270   7.448
14340WAT     H143262   3.420   0.287   7.540
14340WAT     H243263   3.359   0.173   7.440
14341WAT      O43264   2.774   5.023   2.351
14341WAT     H143265   2.867   4.988   2.341
14341WAT     H243266   2.767   5.076   2.435
14342WAT      O43267   7.418   6.985   4.087
14342WAT     H143268   7.517   6.995   4.097
14342WAT     H243269   7.397   6.892   4.056
14343WAT      O43270   1.591   5.296   0.974
14343WAT     H143271   1.656   5.224   0.949
14343WAT     H243272   1.598   5.371   0.908
14344WAT      O43273   4.677   0.883   3.832
14344WAT     H143274   4.770   0.851   3.851
14344WAT     H243275   4.640   0.832   3.753
14345WAT      O43276   2.776   1.481   5.787
14345WAT     H143277   2.801   1.539   5.709
14345WAT     H243278   2.858   1.460   5.840
14346WAT      O43279   1.253   9.548   1.872
14346WAT     H143280   1.234   9.546   1.773
14346WAT     H243281   1.174   9.513   1.922
14347WAT      O43282   7.152   3.529   2.287
14347WAT     H143283   7.182   3.505   2.195
14347WAT     H243284   7.228   3.523   2.351
14348WAT      O43285   8.895   1.807   1.792
14348WAT     H143286   8.875   1.795   1.889
14348WAT     H243287   8.926   1.720   1.753
14349WAT      O43288   9.010   3.004   5.562
14349WAT     H143289   8.921   2.985   5.520
14349WAT     H243290   9.026   2.938   5.636
14350WAT      O43291   6.704   2.688   8.038
14350WAT     H143292   6.609   2.708   8.060
14350WAT     H243293   6.742   2.763   7.983
14351WAT      O43294   5.926   1.058   4.010
14351WAT     H143295   6.022   1.031   3.998
14351WAT     H243296   5.916   1.155   3.989
14352WAT      O43297   2.500   6.754   8.282
14352WAT     H143298   2.552   6.670   8.270
14352WAT     H243299   2.403   6.737   8.262
14353WAT      O43300   0.524   4.774   7.726
14353WAT     H143301   0.615   4.809   7.704
14353WAT     H243302   0.526   4.674   7.725
14354WAT      O43303   9.829   5.192   1.127
14354WAT     H143304   9.886   5.274   1.131
14354WAT     H243305   9.765   5.191   1.204
14355WAT      O43306   0.291   1.877   0.543
14355WAT     H143307   0.290   1.858   0.641
14355WAT     H243308   0.380   1.852   0.505
14356WAT      O43309   5.565   3.443   9.555
14356WAT     H143310   5.499   3.370   9.571
14356WAT     H243311   5.647   3.405   9.511
14357WAT      O43312   4.807   9.164   8.812
14357WAT     H143313   4.753   9.173   8.728
14357WAT     H243314   4.897   9.205   8.798
14358WAT      O43315   0.748   4.781   0.933
14358WAT     H143316   0.809   4.702   0.943
14358WAT     H243317   0.703   4.778   0.844
14359WAT      O43318   4.523   7.488   3.696
14359WAT     H143319   4.431   7.526   3.698
14359WAT     H243320   4.519   7.388   3.698
14360WAT      O43321   6.895   9.298   4.287
14360WAT     H143322   6.893   9.344   4.376
14360WAT     H243323   6.901   9.367   4.215
14361WAT      O43324   6.820   8.028   6.009
14361WAT     H143325   6.721   8.018   6.001
14361WAT     H243326   6.862   8.017   5.919
14362WAT      O43327   7.913   4.224   9.433
14362WAT     H143328   7.937   4.236   9.529
14362WAT     H243329   7.913   4.314   9.388
14363WAT      O43330   3.014   7.020   7.679
14363WAT     H143331   3.056   7.020   7.588
14363WAT     H243332   3.009   6.926   7.713
14364WAT      O43333   4.761   3.023   1.405
14364WAT     H143334   4.816   2.949   1.366
14364WAT     H243335   4.674   2.986   1.438
14365WAT      O43336   2.311   0.530   3.051
14365WAT     H143337   2.231   0.582   3.021
14365WAT     H243338   2.300   0.505   3.147
14366WAT      O43339   5.633   7.902   8.364
14366WAT     H143340   5.598   7.862   8.448
14366WAT     H243341   5.687   7.834   8.313
14367WAT      O43342   3.223   1.964   8.290
14367WAT     H143343   3.309   1.916   8.275
14367WAT     H243344   3.242   2.056   8.324
14368WAT      O43345   8.431   5.777   1.581
14368WAT     H143346   8.380   5.862   1.574
14368WAT     H243347   8.368   5.700   1.590
14369WAT      O43348   5.395   0.830   7.687
14369WAT     H143349   5.406   0.858   7.591
14369WAT     H243350   5.455   0.884   7.745
14370WAT      O43351   9.631   2.846   5.357
14370WAT     H143352   9.620   2.867   5.260
14370WAT     H243353   9.551   2.796   5.389
14371WAT      O43354   9.378   6.393   0.107
14371WAT     H143355   9.289   6.439   0.104
14371WAT     H243356   9.364   6.294   0.112
14372WAT      O43357   0.728   4.109   0.422
14372WAT     H143358   0.711   4.165   0.503
14372WAT     H243359   0.669   4.028   0.424
14373WAT      O43360   2.568   4.814   6.344
14373WAT     H143361   2.494   4.882   6.341
14373WAT     H243362   2.642   4.843   6.284
14374WAT      O43363   8.920   8.064   8.753
14374WAT     H143364   8.934   8.149   8.702
14374WAT     H243365   9.009   8.030   8.785
14375WAT      O43366   9.517   2.318   6.821
14375WAT     H143367   9.613   2.345   6.812
14375WAT     H243368   9.477   2.362   6.901
14376WAT      O43369   5.279   7.264   7.904
14376WAT     H143370   5.299   7.362   7.914
14376WAT     H243371   5.355   7.211   7.941
14377WAT      O43372   1.240   7.013   8.177
14377WAT     H143373   1.199   6.934   8.131
14377WAT     H243374   1.194   7.096   8.148
14378WAT      O43375   4.892   6.406   8.897
14378WAT     H143376   4.948   6.451   8.966
14378WAT     H243377   4.854   6.475   8.834
14379WAT      O43378   9.736   4.456   0.204
14379WAT     H143379   9.815   4.508   0.237
14379WAT     H243380   9.766   4.389   0.135
14380WAT      O43381   3.551   3.276   0.464
14380WAT     H143382   3.516   3.360   0.506
14380WAT     H243383   3.487   3.246   0.393
14381WAT      O43384   9.046   1.447   1.048
14381WAT     H143385   9.126   1.396   1.017
14381WAT     H243386   9.071   1.543   1.062
14382WAT      O43387   2.979   3.075   1.854
14382WAT     H143388   3.070   3.079   1.894
14382WAT     H243389   2.918   3.023   1.915
14383WAT      O43390   7.004   3.925   5.521
14383WAT     H143391   7.081   3.883   5.473
14383WAT     H243392   6.918   3.885   5.488
14384WAT      O43393   1.234   5.202   8.201
14384WAT     H143394   1.146   5.236   8.234
14384WAT     H243395   1.222   5.157   8.113
14385WAT      O43396   2.378   6.690   3.541
14385WAT     H143397   2.346   6.682   3.636
14385WAT     H243398   2.384   6.598   3.501
14386WAT      O43399   5.907   6.853   6.049
14386WAT     H143400   6.007   6.863   6.053
14386WAT     H243401   5.884   6.786   5.978
14387WAT      O43402   9.788   1.903   2.066
14387WAT     H143403   9.708   1.862   2.110
14387WAT     H243404   9.871   1.858   2.098
14388WAT      O43405   1.644   8.627   6.499
14388WAT     H143406   1.574   8.695   6.522
14388WAT     H243407   1.645   8.555   6.570
14389WAT      O43408   1.075   5.408   8.313
14389WAT     H143409   1.106   5.502   8.296
14389WAT     H243410   1.030   5.403   8.402
14390WAT      O43411   6.624   7.255   7.847
14390WAT     H143412   6.662   7.257   7.939
14390WAT     H243413   6.524   7.251   7.852
14391WAT      O43414   8.806   4.282   3.247
14391WAT     H143415   8.722   4.244   3.209
14391WAT     H243416   8.874   4.210   3.257
14392WAT      O43417   4.820   0.752   0.523
14392WAT     H143418   4.745   0.691   0.546
14392WAT     H243419   4.847   0.804   0.604
14393WAT      O43420   5.330   8.054   1.053
14393WAT     H143421   5.335   7.980   1.120
14393WAT     H243422   5.284   8.020   0.970
14394WAT      O43423   0.966   6.599   3.216
14394WAT     H143424   1.036   6.563   3.153
14394WAT     H243425   0.932   6.526   3.274
14395WAT      O43426   9.220   0.978   6.738
14395WAT     H143427   9.310   1.008   6.768
14395WAT     H243428   9.229   0.913   6.663
14396WAT      O43429   3.642   4.239   1.653
14396WAT     H143430   3.716   4.272   1.712
14396WAT     H243431   3.556   4.242   1.703
14397WAT      O43432   7.101   8.226   7.570
14397WAT     H143433   7.155   8.297   7.526
14397WAT     H243434   7.097   8.145   7.511
14398WAT      O43435   0.078   4.040   5.575
14398WAT     H143436   0.012   3.980   5.620
14398WAT     H243437   0.125   3.990   5.503
14399WAT      O43438   5.434   6.333   6.224
14399WAT     H143439   5.364   6.284   6.275
14399WAT     H243440   5.449   6.423   6.265
14400WAT      O43441   4.090   3.734   4.270
14400WAT     H143442   4.182   3.717   4.303
14400WAT     H243443   4.054   3.818   4.310
14401WAT      O43444   6.223   0.582   2.990
14401WAT     H143445   6.263   0.505   3.041
14401WAT     H243446   6.225   0.562   2.892
14402WAT      O43447   8.138   3.484   2.009
14402WAT     H143448   8.132   3.435   1.923
14402WAT     H243449   8.188   3.570   1.995
14403WAT      O43450   4.810   9.620   3.601
14403WAT     H143451   4.719   9.581   3.618
14403WAT     H243452   4.800   9.714   3.568
14404WAT      O43453   4.401   0.805   7.749
14404WAT     H143454   4.344   0.886   7.732
14404WAT     H243455   4.480   0.831   7.804
14405WAT      O43456   4.685   9.705   5.100
14405WAT     H143457   4.589   9.699   5.074
14405WAT     H243458   4.713   9.621   5.147
14406WAT      O43459   8.980   3.045   0.869
14406WAT     H143460   9.038   3.121   0.898
14406WAT     H243461   9.019   3.003   0.787
14407WAT      O43462   3.504   6.500   7.482
14407WAT     H143463   3.598   6.507   7.515
14407WAT     H243464   3.489   6.409   7.442
14408WAT      O43465   5.831   0.559   8.852
14408WAT     H143466   5.923   0.586   8.881
14408WAT     H243467   5.805   0.475   8.900
14409WAT      O43468   8.462   0.818   9.587
14409WAT     H143469   8.530   0.786   9.521
14409WAT     H243470   8.391   0.870   9.540
14410WAT      O43471   2.698   2.012   5.376
14410WAT     H143472   2.605   1.975   5.382
14410WAT     H243473   2.733   2.029   5.468
14411WAT      O43474   5.591   5.557   0.259
14411WAT     H143475   5.603   5.472   0.312
14411WAT     H243476   5.549   5.536   0.171
14412WAT      O43477   2.186   7.138   8.699
14412WAT     H143478   2.201   7.209   8.768
14412WAT     H243479   2.264   7.136   8.636
14413WAT      O43480   1.319   3.279   0.527
14413WAT     H143481   1.228   3.250   0.555
14413WAT     H243482   1.377   3.199   0.512
14414WAT      O43483   8.632   7.891   3.175
14414WAT     H143484   8.702   7.840   3.125
14414WAT     H243485   8.677   7.963   3.229
14415WAT      O43486   4.964   8.124   3.777
14415WAT     H143487   4.924   8.167   3.858
14415WAT     H243488   5.012   8.041   3.804
14416WAT      O43489   6.538   6.024   8.184
14416WAT     H143490   6.465   6.025   8.252
14416WAT     H243491   6.623   5.993   8.227
14417WAT      O43492   7.532   3.390   7.743
14417WAT     H143493   7.597   3.314   7.741
14417WAT     H243494   7.557   3.452   7.818
14418WAT      O43495   7.960   2.758   7.159
14418WAT     H143496   7.911   2.671   7.165
14418WAT     H243497   7.898   2.830   7.127
14419WAT      O43498   4.624   5.851   9.329
14419WAT     H143499   4.531   5.887   9.326
14419WAT     H243500   4.675   5.897   9.402
14420WAT      O43501   7.697   4.416   8.484
14420WAT     H143502   7.728   4.341   8.543
14420WAT     H243503   7.723   4.397   8.390
14421WAT      O43504   6.498   6.111   6.604
14421WAT     H143505   6.596   6.118   6.582
14421WAT     H243506   6.454   6.049   6.539
14422WAT      O43507   2.402   5.554   2.158
14422WAT     H143508   2.344   5.635   2.151
14422WAT     H243509   2.421   5.518   2.066
14423WAT      O43510   9.328   4.141   6.912
14423WAT     H143511   9.376   4.147   7.000
14423WAT     H243512   9.278   4.227   6.896
14424WAT      O43513   7.096   8.476   3.143
14424WAT     H143514   7.171   8.424   3.103
14424WAT     H243515   7.041   8.515   3.069
14425WAT      O43516   5.447   3.118   9.619
14425WAT     H143517   5.396   3.176   9.683
14425WAT     H243518   5.384   3.067   9.562
14426WAT      O43519   4.785   8.613   7.541
14426WAT     H143520   4.784   8.514   7.529
14426WAT     H243521   4.812   8.657   7.455
14427WAT      O43522   3.138   6.160   8.734
14427WAT     H143523   3.135   6.249   8.779
14427WAT     H243524   3.099   6.090   8.795
14428WAT      O43525   0.053   3.918   4.413
14428WAT     H143526   0.026   3.868   4.496
14428WAT     H243527   0.000   4.002   4.406
14429WAT      O43528   3.744   1.624   3.178
14429WAT     H143529   3.749   1.721   3.155
14429WAT     H243530   3.722   1.614   3.275
14430WAT      O43531   0.710   3.472   0.071
14430WAT     H143532   0.653   3.432   0.144
14430WAT     H243533   0.771   3.540   0.110
14431WAT      O43534   0.786   5.744   4.538
14431WAT     H143535   0.719   5.741   4.463
14431WAT     H243536   0.846   5.823   4.525
14432WAT      O43537   3.199   8.861   2.295
14432WAT     H143538   3.155   8.779   2.258
14432WAT     H243539   3.286   8.877   2.248
14433WAT      O43540   7.794   0.441   8.546
14433WAT     H143541   7.877   0.491   8.518
14433WAT     H243542   7.728   0.443   8.471
14434WAT      O43543   9.504   8.128   3.006
14434WAT     H143544   9.597   8.110   3.039
14434WAT     H243545   9.485   8.071   2.927
14435WAT      O43546   6.194   4.152   4.421
14435WAT     H143547   6.226   4.247   4.417
14435WAT     H243548   6.273   4.091   4.431
14436WAT      O43549   5.117   9.392   8.993
14436WAT     H143550   5.034   9.448   8.994
14436WAT     H243551   5.123   9.342   8.907
14437WAT      O43552   5.512   1.486   7.435
14437WAT     H143553   5.590   1.538   7.471
14437WAT     H243554   5.445   1.550   7.397
14438WAT      O43555   0.778   9.309   3.013
14438WAT     H143556   0.742   9.386   2.961
14438WAT     H243557   0.704   9.246   3.036
14439WAT      O43558   1.189   9.501   9.574
14439WAT     H143559   1.273   9.553   9.557
14439WAT     H243560   1.116   9.564   9.601
14440WAT      O43561   3.425   1.042   0.220
14440WAT     H143562   3.378   0.971   0.272
14440WAT     H243563   3.440   1.010   0.126
14441WAT      O43564   4.776   6.683   7.776
14441WAT     H143565   4.767   6.782   7.780
14441WAT     H243566   4.832   6.657   7.697
14442WAT      O43567   3.169   7.515   9.482
14442WAT     H143568   3.192   7.452   9.557
14442WAT     H243569   3.242   7.582   9.471
14443WAT      O43570   3.829   1.087   9.103
14443WAT     H143571   3.815   1.181   9.071
14443WAT     H243572   3.919   1.055   9.072
14444WAT      O43573   0.355   0.621   3.336
14444WAT     H143574   0.274   0.582   3.292
14444WAT     H243575   0.328   0.696   3.396
14445WAT      O43576   5.297   1.651   7.667
14445WAT     H143577   5.300   1.640   7.567
14445WAT     H243578   5.355   1.581   7.710
14446WAT      O43579   8.332   8.049   4.227
14446WAT     H143580   8.401   7.994   4.273
14446WAT     H243581   8.341   8.040   4.128
14447WAT      O43582   6.589   8.819   4.158
14447WAT     H143583   6.663   8.855   4.101
14447WAT     H243584   6.557   8.890   4.221
14448WAT      O43585   9.231   0.095   0.843
14448WAT     H143586   9.230   0.124   0.747
14448WAT     H243587   9.173   0.015   0.854
14449WAT      O43588   6.821   9.442   6.273
14449WAT     H143589   6.806   9.383   6.193
14449WAT     H243590   6.780   9.400   6.353
14450WAT      O43591   9.022   7.917   4.221
14450WAT     H143592   8.962   7.896   4.144
14450WAT     H243593   9.027   8.016   4.233
14451WAT      O43594   0.043   6.645   0.319
14451WAT     H143595   0.057   6.566   0.259
14451WAT     H243596   0.123   6.704   0.315
14452WAT      O43597   1.553   0.134   8.870
14452WAT     H143598   1.545   0.217   8.814
14452WAT     H243599   1.594   0.061   8.815
14453WAT      O43600   9.310   8.329   0.254
14453WAT     H143601   9.329   8.254   0.318
14453WAT     H243602   9.324   8.297   0.161
14454WAT      O43603   2.963   1.318   0.513
14454WAT     H143604   3.005   1.369   0.588
14454WAT     H243605   2.864   1.333   0.514
14455WAT      O43606   2.395   2.295   8.803
14455WAT     H143607   2.387   2.367   8.734
14455WAT     H243608   2.313   2.294   8.860
14456WAT      O43609   7.880   7.409   5.766
14456WAT     H143610   7.843   7.421   5.858
14456WAT     H243611   7.908   7.314   5.754
14457WAT      O43612   9.128   5.918   6.677
14457WAT     H143613   9.188   5.972   6.736
14457WAT     H243614   9.047   5.890   6.729
14458WAT      O43615   5.110   6.956   6.321
14458WAT     H143616   5.083   6.868   6.284
14458WAT     H243617   5.094   6.957   6.420
14459WAT      O43618   5.666   1.380   1.541
14459WAT     H143619   5.589   1.328   1.505
14459WAT     H243620   5.631   1.457   1.595
14460WAT      O43621   5.235   6.398   3.134
14460WAT     H143622   5.152   6.446   3.164
14460WAT     H243623   5.238   6.308   3.179
14461WAT      O43624   5.207   6.283   1.479
14461WAT     H143625   5.147   6.343   1.426
14461WAT     H243626   5.290   6.265   1.427
14462WAT      O43627   1.619   6.894   2.485
14462WAT     H143628   1.519   6.898   2.477
14462WAT     H243629   1.650   6.969   2.543
14463WAT      O43630   8.732   0.583   0.367
14463WAT     H143631   8.828   0.586   0.397
14463WAT     H243632   8.699   0.489   0.376
14464WAT      O43633   5.656   1.155   3.503
14464WAT     H143634   5.608   1.077   3.544
14464WAT     H243635   5.711   1.201   3.574
14465WAT      O43636   5.200   0.560   4.927
14465WAT     H143637   5.136   0.632   4.951
14465WAT     H243638   5.149   0.480   4.894
14466WAT      O43639   1.638   3.343   9.863
14466WAT     H143640   1.652   3.410   9.790
14466WAT     H243641   1.713   3.277   9.862
14467WAT      O43642   5.264   2.482   4.046
14467WAT     H143643   5.344   2.424   4.036
14467WAT     H243644   5.222   2.495   3.956
14468WAT      O43645   8.954   5.069   0.811
14468WAT     H143646   9.023   5.138   0.791
14468WAT     H243647   8.997   4.991   0.857
14469WAT      O43648   1.038   1.271   6.116
14469WAT     H143649   1.012   1.253   6.021
14469WAT     H243650   1.069   1.186   6.158
14470WAT      O43651   1.743   9.140   8.372
14470WAT     H143652   1.784   9.212   8.429
14470WAT     H243653   1.648   9.165   8.351
14471WAT      O43654   6.598   6.383   7.182
14471WAT     H143655   6.556   6.464   7.223
14471WAT     H243656   6.557   6.301   7.220
14472WAT      O43657   8.940   5.560   9.849
14472WAT     H143658   8.843   5.549   9.872
14472WAT     H243659   8.972   5.480   9.798
14473WAT      O43660   4.624   6.842   5.662
14473WAT     H143661   4.564   6.827   5.584
14473WAT     H243662   4.690   6.913   5.641
14474WAT      O43663   9.300   0.868   7.770
14474WAT     H143664   9.269   0.962   7.779
14474WAT     H243665   9.282   0.836   7.677
14475WAT      O43666   7.913   3.336   0.067
14475WAT     H143667   7.831   3.391   0.082
14475WAT     H243668   7.887   3.244   0.036
14476WAT      O43669   8.373   6.743   5.182
14476WAT     H143670   8.378   6.695   5.270
14476WAT     H243671   8.440   6.704   5.119
14477WAT      O43672   9.738   0.656   4.314
14477WAT     H143673   9.758   0.569   4.269
14477WAT     H243674   9.640   0.661   4.335
14478WAT      O43675   4.191   3.769   5.271
14478WAT     H143676   4.270   3.818   5.232
14478WAT     H243677   4.108   3.822   5.253
14479WAT      O43678   3.351   6.178   4.651
14479WAT     H143679   3.386   6.260   4.605
14479WAT     H243680   3.252   6.181   4.655
14480WAT      O43681   6.112   8.012   6.406
14480WAT     H143682   6.035   7.985   6.465
14480WAT     H243683   6.079   8.026   6.313
14481WAT      O43684   1.205   7.147   2.955
14481WAT     H143685   1.194   7.049   2.966
14481WAT     H243686   1.151   7.179   2.877
14482WAT      O43687   4.431   4.575   9.585
14482WAT     H143688   4.346   4.597   9.537
14482WAT     H243689   4.490   4.656   9.589
14483WAT      O43690   6.040   2.876   5.047
14483WAT     H143691   6.002   2.953   4.997
14483WAT     H243692   6.113   2.834   4.993
14484WAT      O43693   7.207   6.817   4.956
14484WAT     H143694   7.252   6.889   4.904
14484WAT     H243695   7.179   6.743   4.894
14485WAT      O43696   6.883   5.743   1.138
14485WAT     H143697   6.856   5.725   1.043
14485WAT     H243698   6.807   5.720   1.199
14486WAT      O43699   7.637   1.894   7.551
14486WAT     H143700   7.701   1.888   7.475
14486WAT     H243701   7.587   1.981   7.545
14487WAT      O43702   9.345   8.752   8.244
14487WAT     H143703   9.326   8.818   8.170
14487WAT     H243704   9.280   8.766   8.318
14488WAT      O43705   2.012   9.078   7.625
14488WAT     H143706   2.062   9.024   7.692
14488WAT     H243707   1.942   9.133   7.671
14489WAT      O43708   5.109   4.898   3.626
14489WAT     H143709   5.063   4.818   3.666
14489WAT     H243710   5.172   4.868   3.554
14490WAT      O43711   5.195   1.056   8.980
14490WAT     H143712   5.268   1.073   9.047
14490WAT     H243713   5.206   0.965   8.941
14491WAT      O43714   1.703   1.622   3.982
14491WAT     H143715   1.679   1.660   4.071
14491WAT     H243716   1.622   1.583   3.940
14492WAT      O43717   4.191   4.936   7.328
14492WAT     H143718   4.093   4.938   7.311
14492WAT     H243719   4.237   4.886   7.254
14493WAT      O43720   7.798   4.666   5.970
14493WAT     H143721   7.813   4.635   5.876
14493WAT     H243722   7.724   4.612   6.011
14494WAT      O43723   7.143   5.574   4.802
14494WAT     H143724   7.082   5.627   4.744
14494WAT     H243725   7.234   5.570   4.759
14495WAT      O43726   9.132   6.838   6.489
14495WAT     H143727   9.072   6.918   6.489
14495WAT     H243728   9.201   6.848   6.561
14496WAT      O43729   6.494   2.542   7.413
14496WAT     H143730   6.556   2.483   7.362
14496WAT     H243731   6.404   2.499   7.419
14497WAT      O43732   8.857   2.268   5.165
14497WAT     H143733   8.900   2.178   5.168
14497WAT     H243734   8.911   2.328   5.106
14498WAT      O43735   3.016   0.322   6.552
14498WAT     H143736   3.088   0.384   6.520
14498WAT     H243737   3.019   0.238   6.499
14499WAT      O43738   2.895   7.678   4.563
14499WAT     H143739   2.985   7.716   4.539
14499WAT     H243740   2.867   7.612   4.493
14500WAT      O43741   5.269   2.324   1.197
14500WAT     H143742   5.277   2.225   1.212
14500WAT     H243743   5.306   2.346   1.107
14501WAT      O43744   3.490   9.443   1.198
14501WAT     H143745   3.486   9.514   1.128
14501WAT     H243746   3.581   9.404   1.201
14502WAT      O43747   5.662   1.711   8.657
14502WAT     H143748   5.626   1.679   8.745
14502WAT     H243749   5.608   1.671   8.583
14503WAT      O43750   1.610   4.719   2.284
14503WAT     H143751   1.609   4.772   2.369
14503WAT     H243752   1.703   4.688   2.265
14504WAT      O43753   3.765   5.054   7.082
14504WAT     H143754   3.681   5.052   7.136
14504WAT     H243755   3.754   5.117   7.005
14505WAT      O43756   3.408   8.389   8.452
14505WAT     H143757   3.319   8.428   8.426
14505WAT     H243758   3.417   8.390   8.552
14506WAT      O43759   7.585   4.192   8.893
14506WAT     H143760   7.654   4.241   8.946
14506WAT     H243761   7.497   4.238   8.901
14507WAT      O43762   0.712   3.008   3.521
14507WAT     H143763   0.686   2.917   3.553
14507WAT     H243764   0.766   3.054   3.591
14508WAT      O43765   7.068   4.031   8.076
14508WAT     H143766   6.990   3.987   8.121
14508WAT     H243767   7.068   4.129   8.098
14509WAT      O43768   4.149   7.298   6.001
14509WAT     H143769   4.167   7.285   5.903
14509WAT     H243770   4.075   7.365   6.013
14510WAT      O43771   2.896   1.337   7.012
14510WAT     H143772   2.831   1.293   6.950
14510WAT     H243773   2.986   1.294   7.002
14511WAT      O43774   9.542   8.124   1.149
14511WAT     H143775   9.448   8.098   1.168
14511WAT     H243776   9.604   8.054   1.187
14512WAT      O43777   7.134   6.593   4.794
14512WAT     H143778   7.162   6.548   4.709
14512WAT     H243779   7.035   6.599   4.797
14513WAT      O43780   3.907   3.697   1.058
14513WAT     H143781   3.842   3.772   1.044
14513WAT     H243782   3.873   3.638   1.131
14514WAT      O43783   8.303   5.162   7.235
14514WAT     H143784   8.375   5.113   7.283
14514WAT     H243785   8.279   5.245   7.286
14515WAT      O43786   5.933   9.683   7.007
14515WAT     H143787   6.003   9.655   7.072
14515WAT     H243788   5.908   9.607   6.947
14516WAT      O43789   1.892   0.965   2.000
14516WAT     H143790   1.953   1.042   1.980
14516WAT     H243791   1.897   0.898   1.925
14517WAT      O43792   1.251   4.234   0.370
14517WAT     H143793   1.218   4.235   0.276
14517WAT     H243794   1.180   4.195   0.429
14518WAT      O43795   4.538   8.913   4.508
14518WAT     H143796   4.518   8.815   4.509
14518WAT     H243797   4.611   8.932   4.443
14519WAT      O43798   1.511   4.218   2.638
14519WAT     H143799   1.451   4.277   2.584
14519WAT     H243800   1.514   4.251   2.733
14520WAT      O43801   7.551   4.499   6.476
14520WAT     H143802   7.529   4.484   6.572
14520WAT     H243803   7.615   4.575   6.468
14521WAT      O43804   0.299   8.053   0.496
14521WAT     H143805   0.246   8.114   0.555
14521WAT     H243806   0.305   7.963   0.538
14522WAT      O43807   2.549   1.009   6.882
14522WAT     H143808   2.535   1.108   6.885
14522WAT     H243809   2.604   0.980   6.960
14523WAT      O43810   2.331   1.052   6.681
14523WAT     H143811   2.407   1.043   6.746
14523WAT     H243812   2.279   0.966   6.678
14524WAT      O43813   1.944   0.665   8.705
14524WAT     H143814   1.986   0.689   8.793
14524WAT     H243815   1.862   0.609   8.722
14525WAT      O43816   8.537   7.857   9.260
14525WAT     H143817   8.470   7.827   9.192
14525WAT     H243818   8.507   7.827   9.351
14526WAT      O43819   6.370   5.057   1.339
14526WAT     H143820   6.301   5.087   1.405
14526WAT     H243821   6.326   5.033   1.253
14527WAT      O43822   8.691   1.807   8.648
14527WAT     H143823   8.616   1.868   8.672
14527WAT     H243824   8.773   1.861   8.629
14528WAT      O43825   5.281   0.915   1.225
14528WAT     H143826   5.358   0.978   1.219
14528WAT     H243827   5.279   0.873   1.316
14529WAT      O43828   1.745   1.401   6.399
14529WAT     H143829   1.809   1.476   6.414
14529WAT     H243830   1.687   1.421   6.320
14530WAT      O43831   8.955   7.035   5.247
14530WAT     H143832   8.945   7.047   5.148
14530WAT     H243833   8.949   6.937   5.270
14531WAT      O43834   5.769   4.443   0.724
14531WAT     H143835   5.837   4.405   0.786
14531WAT     H243836   5.722   4.369   0.676
14532WAT      O43837   9.324   1.757   1.523
14532WAT     H143838   9.310   1.788   1.617
14532WAT     H243839   9.270   1.674   1.507
14533WAT      O43840   3.891   1.053   3.189
14533WAT     H143841   3.916   1.131   3.245
14533WAT     H243842   3.791   1.043   3.188
14534WAT      O43843   7.690   3.932   5.907
14534WAT     H143844   7.688   3.837   5.939
14534WAT     H243845   7.773   3.946   5.852
14535WAT      O43846   8.163   1.890   5.432
14535WAT     H143847   8.169   1.863   5.336
14535WAT     H243848   8.201   1.982   5.444
14536WAT      O43849   0.641   7.940   5.499
14536WAT     H143850   0.619   7.888   5.581
14536WAT     H243851   0.708   7.889   5.445
14537WAT      O43852   4.112   9.100   1.699
14537WAT     H143853   4.167   9.019   1.717
14537WAT     H243854   4.159   9.181   1.735
14538WAT      O43855   5.978   8.758   4.360
14538WAT     H143856   6.007   8.802   4.445
14538WAT     H243857   5.930   8.824   4.304
14539WAT      O43858   3.716   7.036   7.302
14539WAT     H143859   3.631   7.060   7.349
14539WAT     H243860   3.718   7.079   7.212
14540WAT      O43861   9.299   7.902   5.735
14540WAT     H143862   9.275   7.911   5.832
14540WAT     H243863   9.307   7.993   5.694
14541WAT      O43864   5.019   6.007   4.199
14541WAT     H143865   4.919   6.000   4.202
14541WAT     H243866   5.046   6.094   4.159
14542WAT      O43867   1.716   7.779   4.602
14542WAT     H143868   1.809   7.772   4.638
14542WAT     H243869   1.696   7.700   4.544
14543WAT      O43870   7.905   7.691   9.456
14543WAT     H143871   7.926   7.718   9.362
14543WAT     H243872   7.813   7.653   9.460
14544WAT      O43873   6.504   2.307   2.513
14544WAT     H143874   6.576   2.238   2.504
14544WAT     H243875   6.507   2.347   2.604
14545WAT      O43876   7.728   0.871   2.046
14545WAT     H143877   7.723   0.788   2.101
14545WAT     H243878   7.646   0.878   1.988
14546WAT      O43879   1.060   4.266   8.216
14546WAT     H143880   1.113   4.184   8.238
14546WAT     H243881   0.973   4.240   8.175
14547WAT      O43882   4.390   3.488   9.362
14547WAT     H143883   4.411   3.586   9.363
14547WAT     H243884   4.382   3.455   9.456
14548WAT      O43885   1.097   0.084   9.751
14548WAT     H143886   1.124   0.065   9.845
14548WAT     H243887   1.068   0.179   9.743
14549WAT      O43888   2.463   3.838   9.329
14549WAT     H143889   2.458   3.899   9.250
14549WAT     H243890   2.494   3.747   9.300
14550WAT      O43891   6.837   0.173   5.936
14550WAT     H143892   6.817   0.075   5.932
14550WAT     H243893   6.883   0.194   6.022
14551WAT      O43894   5.830   5.232   1.831
14551WAT     H143895   5.912   5.270   1.873
14551WAT     H243896   5.762   5.215   1.901
14552WAT      O43897   2.758   2.985   3.557
14552WAT     H143898   2.829   2.991   3.627
14552WAT     H243899   2.668   2.977   3.601
14553WAT      O43900   9.342   3.140   8.488
14553WAT     H143901   9.276   3.076   8.448
14553WAT     H243902   9.294   3.222   8.520
14554WAT      O43903   1.850   3.558   3.992
14554WAT     H143904   1.947   3.551   3.966
14554WAT     H243905   1.805   3.471   3.973
14555WAT      O43906   5.325   2.616   6.768
14555WAT     H143907   5.359   2.653   6.682
14555WAT     H243908   5.401   2.583   6.823
14556WAT      O43909   9.753   2.488   7.175
14556WAT     H143910   9.716   2.581   7.163
14556WAT     H243911   9.689   2.434   7.230
14557WAT      O43912   8.138   9.304   5.873
14557WAT     H143913   8.210   9.338   5.813
14557WAT     H243914   8.054   9.355   5.856
14558WAT      O43915   1.695   6.722   1.863
14558WAT     H143916   1.777   6.672   1.891
14558WAT     H243917   1.631   6.727   1.939
14559WAT      O43918   1.988   6.759   3.125
14559WAT     H143919   1.956   6.828   3.060
14559WAT     H243920   2.064   6.797   3.179
14560WAT      O43921   5.589   7.555   8.213
14560WAT     H143922   5.657   7.626   8.231
14560WAT     H243923   5.503   7.597   8.184
14561WAT      O43924   6.204   0.343   3.712
14561WAT     H143925   6.188   0.322   3.615
14561WAT     H243926   6.121   0.381   3.752
14562WAT      O43927   1.231   1.604   1.647
14562WAT     H143928   1.255   1.616   1.551
14562WAT     H243929   1.200   1.511   1.663
14563WAT      O43930   7.953   8.992   6.643
14563WAT     H143931   8.001   8.939   6.574
14563WAT     H243932   7.901   9.066   6.599
14564WAT      O43933   6.208   1.502   3.899
14564WAT     H143934   6.142   1.576   3.897
14564WAT     H243935   6.168   1.420   3.857
14565WAT      O43936   9.011   5.736   7.283
14565WAT     H143937   8.929   5.706   7.332
14565WAT     H243938   9.089   5.735   7.346
14566WAT      O43939   6.014   7.498   7.401
14566WAT     H143940   6.008   7.426   7.331
14566WAT     H243941   6.012   7.588   7.357
14567WAT      O43942   0.305   0.229   4.925
14567WAT     H143943   0.380   0.215   4.990
14567WAT     H243944   0.293   0.146   4.870
14568WAT      O43945   4.828   4.250   5.487
14568WAT     H143946   4.834   4.158   5.527
14568WAT     H243947   4.738   4.263   5.448
14569WAT      O43948   0.589   8.545   2.882
14569WAT     H143949   0.626   8.560   2.790
14569WAT     H243950   0.630   8.611   2.945
14570WAT      O43951   5.536   0.889   3.564
14570WAT     H143952   5.624   0.863   3.603
14570WAT     H243953   5.462   0.853   3.621
14571WAT      O43954   0.183   4.507   5.049
14571WAT     H143955   0.175   4.574   4.976
14571WAT     H243956   0.171   4.415   5.012
14572WAT      O43957   3.735   4.725   8.470
14572WAT     H143958   3.771   4.760   8.557
14572WAT     H243959   3.800   4.662   8.429
14573WAT      O43960   9.067   4.758   7.189
14573WAT     H143961   9.123   4.767   7.107
14573WAT     H243962   9.072   4.664   7.223
14574WAT      O43963   3.039   6.856   4.944
14574WAT     H143964   3.077   6.921   4.878
14574WAT     H243965   3.082   6.871   5.033
14575WAT      O43966   1.370   0.617   6.530
14575WAT     H143967   1.328   0.633   6.441
14575WAT     H243968   1.396   0.521   6.538
14576WAT      O43969   6.153   8.029   2.134
14576WAT     H143970   6.168   7.973   2.053
14576WAT     H243971   6.101   7.977   2.202
14577WAT      O43972   8.904   5.939   5.867
14577WAT     H143973   8.859   5.910   5.952
14577WAT     H243974   9.002   5.919   5.872
14578WAT      O43975   2.687   8.845   8.963
14578WAT     H143976   2.620   8.783   9.003
14578WAT     H243977   2.660   8.868   8.870
14579WAT      O43978   9.148   5.679   7.782
14579WAT     H143979   9.185   5.659   7.873
14579WAT     H243980   9.073   5.615   7.762
14580WAT      O43981   2.981   3.893   3.321
14580WAT     H143982   2.911   3.870   3.253
14580WAT     H243983   3.006   3.989   3.311
14581WAT      O43984   7.842   7.370   2.125
14581WAT     H143985   7.802   7.357   2.216
14581WAT     H243986   7.879   7.283   2.092
14582WAT      O43987   9.272   6.045   0.606
14582WAT     H143988   9.362   6.002   0.601
14582WAT     H243989   9.211   5.989   0.662
14583WAT      O43990   4.261   7.983   4.857
14583WAT     H143991   4.194   8.024   4.919
14583WAT     H243992   4.216   7.956   4.772
14584WAT      O43993   1.504   1.189   0.272
14584WAT     H143994   1.523   1.128   0.348
14584WAT     H243995   1.434   1.255   0.298
14585WAT      O43996   3.437   0.088   6.462
14585WAT     H143997   3.477   0.156   6.400
14585WAT     H243998   3.356   0.048   6.421
14586WAT      O43999   1.874   3.796   6.344
14586WAT     H144000   1.953   3.856   6.332
14586WAT     H244001   1.798   3.847   6.383
14587WAT      O44002   3.086   7.294   7.312
14587WAT     H144003   3.045   7.345   7.388
14587WAT     H244004   3.013   7.249   7.260
14588WAT      O44005   2.212   0.904   6.007
14588WAT     H144006   2.261   0.884   6.092
14588WAT     H244007   2.159   0.824   5.980
14589WAT      O44008   5.284   2.691   2.136
14589WAT     H144009   5.383   2.697   2.140
14589WAT     H244010   5.257   2.598   2.112
14590WAT      O44011   3.793   3.551   1.263
14590WAT     H144012   3.722   3.620   1.277
14590WAT     H244013   3.862   3.557   1.335
14591WAT      O44014   6.796   9.286   3.400
14591WAT     H144015   6.829   9.292   3.494
14591WAT     H244016   6.874   9.288   3.337
14592WAT      O44017   8.862   1.585   3.170
14592WAT     H144018   8.959   1.577   3.148
14592WAT     H244019   8.836   1.512   3.234
14593WAT      O44020   5.565   0.153   4.412
14593WAT     H144021   5.575   0.100   4.496
14593WAT     H244022   5.484   0.211   4.418
14594WAT      O44023   7.137   6.728   7.915
14594WAT     H144024   7.169   6.822   7.925
14594WAT     H244025   7.204   6.675   7.862
14595WAT      O44026   5.108   0.349   2.114
14595WAT     H144027   5.105   0.251   2.129
14595WAT     H244028   5.046   0.374   2.040
14596WAT      O44029   1.778   1.622   0.490
14596WAT     H144030   1.799   1.714   0.522
14596WAT     H244031   1.791   1.617   0.391
14597WAT      O44032   8.506   4.859   2.851
14597WAT     H144033   8.585   4.822   2.801
14597WAT     H244034   8.517   4.958   2.862
14598WAT      O44035   3.999   6.774   0.414
14598WAT     H144036   4.098   6.792   0.413
14598WAT     H244037   3.969   6.752   0.321
14599WAT      O44038   8.955   4.150   4.693
14599WAT     H144039   9.015   4.217   4.736
14599WAT     H244040   8.901   4.194   4.621
14600WAT      O44041   2.495   8.085   1.494
14600WAT     H144042   2.524   7.991   1.475
14600WAT     H244043   2.421   8.109   1.432
14601WAT      O44044   6.159   4.603   5.127
14601WAT     H144045   6.137   4.631   5.220
14601WAT     H244046   6.181   4.505   5.125
14602WAT      O44047   9.540   0.018   0.851
14602WAT     H144048   9.449   0.032   0.890
14602WAT     H244049   9.574   0.104   0.813
14603WAT      O44050   0.898   5.848   1.171
14603WAT     H144051   0.862   5.928   1.122
14603WAT     H244052   0.838   5.770   1.157
14604WAT      O44053   5.011   6.245   7.592
14604WAT     H144054   5.021   6.303   7.511
14604WAT     H244055   4.958   6.163   7.568
14605WAT      O44056   6.901   3.958   1.770
14605WAT     H144057   6.903   4.032   1.837
14605WAT     H244058   6.991   3.914   1.766
14606WAT      O44059   6.447   0.278   3.464
14606WAT     H144060   6.393   0.362   3.461
14606WAT     H244061   6.418   0.217   3.390
14607WAT      O44062   0.910   8.396   3.672
14607WAT     H144063   0.849   8.401   3.751
14607WAT     H244064   0.916   8.485   3.628
14608WAT      O44065   2.724   0.138   1.060
14608WAT     H144066   2.707   0.088   0.975
14608WAT     H244067   2.716   0.236   1.043
14609WAT      O44068   4.039   6.349   6.942
14609WAT     H144069   4.016   6.334   7.038
14609WAT     H244070   4.135   6.329   6.926
14610WAT      O44071   1.299   3.738   4.997
14610WAT     H144072   1.231   3.699   5.060
14610WAT     H244073   1.273   3.832   4.975
14611WAT      O44074   3.188   6.674   3.029
14611WAT     H144075   3.159   6.646   2.937
14611WAT     H244076   3.148   6.613   3.097
14612WAT      O44077   4.977   0.322   6.819
14612WAT     H144078   4.924   0.325   6.734
14612WAT     H244079   4.967   0.409   6.867
14613WAT      O44080   6.358   6.621   0.031
14613WAT     H144081   6.342   6.565  -0.050
14613WAT     H244082   6.449   6.662   0.025
14614WAT      O44083   6.302   4.590   1.364
14614WAT     H144084   6.377   4.545   1.413
14614WAT     H244085   6.217   4.540   1.379
14615WAT      O44086   9.462   3.661   5.322
14615WAT     H144087   9.515   3.744   5.341
14615WAT     H244088   9.384   3.683   5.264
14616WAT      O44089   0.079   5.391   6.377
14616WAT     H144090   0.061   5.292   6.383
14616WAT     H244091   0.171   5.410   6.410
14617WAT      O44092   6.758   0.183   4.022
14617WAT     H144093   6.737   0.234   3.939
14617WAT     H244094   6.677   0.134   4.052
14618WAT      O44095   4.666   8.139   5.690
14618WAT     H144096   4.686   8.132   5.788
14618WAT     H244097   4.591   8.077   5.667
14619WAT      O44098   8.242   6.543   9.221
14619WAT     H144099   8.189   6.562   9.139
14619WAT     H244100   8.221   6.450   9.253
14620WAT      O44101   2.365   0.175   9.451
14620WAT     H144102   2.359   0.214   9.543
14620WAT     H244103   2.418   0.091   9.454
14621WAT      O44104   4.562   9.424   7.722
14621WAT     H144105   4.495   9.498   7.729
14621WAT     H244106   4.527   9.343   7.769
14622WAT      O44107   7.364   6.704   4.525
14622WAT     H144108   7.412   6.746   4.602
14622WAT     H244109   7.344   6.608   4.546
14623WAT      O44110   3.846   6.683   2.470
14623WAT     H144111   3.945   6.669   2.457
14623WAT     H244112   3.796   6.612   2.421
14624WAT      O44113   1.012   6.888   0.081
14624WAT     H144114   1.009   6.874   0.180
14624WAT     H244115   1.047   6.805   0.037
14625WAT      O44116   5.474   0.282   4.807
14625WAT     H144117   5.451   0.358   4.867
14625WAT     H244118   5.514   0.316   4.722
14626WAT      O44119   5.568   2.647   2.820
14626WAT     H144120   5.665   2.668   2.836
14626WAT     H244121   5.522   2.729   2.785
14627WAT      O44122   8.599   0.749   3.407
14627WAT     H144123   8.519   0.725   3.462
14627WAT     H244124   8.569   0.790   3.321
14628WAT      O44125   1.651   1.134   1.983
14628WAT     H144126   1.704   1.212   1.949
14628WAT     H244127   1.712   1.057   1.998
14629WAT      O44128   4.294   2.028   9.552
14629WAT     H144129   4.242   2.113   9.543
14629WAT     H244130   4.291   1.978   9.466
14630WAT      O44131   5.679   0.788   3.103
14630WAT     H144132   5.733   0.733   3.040
14630WAT     H244133   5.737   0.854   3.150
14631WAT      O44134   8.209   8.433   4.370
14631WAT     H144135   8.295   8.479   4.348
14631WAT     H244136   8.209   8.409   4.467
14632WAT      O44137   5.581   3.788   1.348
14632WAT     H144138   5.536   3.847   1.415
14632WAT     H244139   5.584   3.694   1.383
14633WAT      O44140   2.835   8.594   3.177
14633WAT     H144141   2.752   8.577   3.124
14633WAT     H244142   2.915   8.581   3.119
14634WAT      O44143   3.188   4.267   2.314
14634WAT     H144144   3.160   4.283   2.408
14634WAT     H244145   3.131   4.195   2.274
14635WAT      O44146   6.336   5.337   6.171
14635WAT     H144147   6.299   5.420   6.129
14635WAT     H244148   6.264   5.268   6.175
14636WAT      O44149   1.965   8.560   0.990
14636WAT     H144150   1.911   8.622   0.933
14636WAT     H244151   2.008   8.612   1.064
14637WAT      O44152   4.995   2.275   2.514
14637WAT     H144153   5.052   2.297   2.434
14637WAT     H244154   4.968   2.179   2.511
14638WAT      O44155   5.325   3.764   1.999
14638WAT     H144156   5.310   3.666   1.982
14638WAT     H244157   5.240   3.814   1.983
14639WAT      O44158   0.367   1.128   2.372
14639WAT     H144159   0.439   1.174   2.423
14639WAT     H244160   0.390   1.127   2.274
14640WAT      O44161   4.665   7.549   5.594
14640WAT     H144162   4.632   7.505   5.511
14640WAT     H244163   4.753   7.510   5.620
14641WAT      O44164   0.982   9.496   4.148
14641WAT     H144165   0.987   9.507   4.247
14641WAT     H244166   0.950   9.404   4.126
14642WAT      O44167   7.158   6.990   0.869
14642WAT     H144168   7.090   7.053   0.832
14642WAT     H244169   7.114   6.930   0.935
14643WAT      O44170   7.169   7.920   0.885
14643WAT     H144171   7.166   7.892   0.981
14643WAT     H244172   7.076   7.914   0.847
14644WAT      O44173   1.668   8.572   4.096
14644WAT     H144174   1.712   8.524   4.172
14644WAT     H244175   1.674   8.671   4.111
14645WAT      O44176   1.409   3.078   0.858
14645WAT     H144177   1.481   3.101   0.792
14645WAT     H244178   1.344   3.154   0.863
14646WAT      O44179   0.862   9.167   9.048
14646WAT     H144180   0.848   9.095   8.979
14646WAT     H244181   0.934   9.139   9.111
14647WAT      O44182   0.832   7.605   0.069
14647WAT     H144183   0.773   7.652   0.135
14647WAT     H244184   0.829   7.507   0.086
14648WAT      O44185   6.218   9.672   2.161
14648WAT     H144186   6.218   9.587   2.109
14648WAT     H244187   6.199   9.749   2.100
14649WAT      O44188   3.958   6.043   0.515
14649WAT     H144189   3.894   6.034   0.591
14649WAT     H244190   4.015   6.124   0.529
14650WAT      O44191   1.480   4.944   8.807
14650WAT     H144192   1.430   4.925   8.891
14650WAT     H244193   1.433   4.900   8.730
14651WAT      O44194   7.800   8.812   5.555
14651WAT     H144195   7.707   8.775   5.550
14651WAT     H244196   7.820   8.838   5.649
14652WAT      O44197   0.528   0.411   3.447
14652WAT     H144198   0.456   0.460   3.397
14652WAT     H244199   0.613   0.463   3.441
14653WAT      O44200   1.701   0.798   8.531
14653WAT     H144201   1.740   0.739   8.602
14653WAT     H244202   1.680   0.743   8.450
14654WAT      O44203   1.605   0.569   9.114
14654WAT     H144204   1.645   0.508   9.183
14654WAT     H244205   1.516   0.533   9.086
14655WAT      O44206   9.678   1.450   6.379
14655WAT     H144207   9.733   1.369   6.354
14655WAT     H244208   9.719   1.531   6.338
14656WAT      O44209   4.715   8.903   1.524
14656WAT     H144210   4.678   8.811   1.542
14656WAT     H244211   4.814   8.897   1.514
14657WAT      O44212   8.524   6.150   8.748
14657WAT     H144213   8.524   6.214   8.825
14657WAT     H244214   8.619   6.133   8.720
14658WAT      O44215   9.410   2.396   6.397
14658WAT     H144216   9.454   2.344   6.323
14658WAT     H244217   9.318   2.362   6.411
14659WAT      O44218   6.723   1.292   3.622
14659WAT     H144219   6.767   1.251   3.702
14659WAT     H244220   6.624   1.291   3.635
14660WAT      O44221   8.415   5.062   7.646
14660WAT     H144222   8.329   5.064   7.597
14660WAT     H244223   8.404   5.009   7.731
14661WAT      O44224   4.877   7.088   4.088
14661WAT     H144225   4.947   7.130   4.147
14661WAT     H244226   4.902   6.993   4.071
14662WAT      O44227   3.431   9.137   1.198
14662WAT     H144228   3.451   9.219   1.251
14662WAT     H244229   3.442   9.156   1.101
14663WAT      O44230   8.236   2.764   7.120
14663WAT     H144231   8.136   2.764   7.128
14663WAT     H244232   8.272   2.677   7.154
14664WAT      O44233   6.612   9.598   1.422
14664WAT     H144234   6.559   9.669   1.467
14664WAT     H244235   6.674   9.640   1.355
14665WAT      O44236   9.654   5.245   9.379
14665WAT     H144237   9.681   5.302   9.456
14665WAT     H244238   9.651   5.150   9.407
14666WAT      O44239   6.419   0.500   8.992
14666WAT     H144240   6.410   0.593   8.956
14666WAT     H244241   6.515   0.471   8.985
14667WAT      O44242   8.004   3.464   2.247
14667WAT     H144243   8.058   3.473   2.164
14667WAT     H244244   7.942   3.543   2.256
14668WAT      O44245   0.532   4.334   6.152
14668WAT     H144246   0.491   4.303   6.065
14668WAT     H244247   0.526   4.260   6.219
14669WAT      O44248   4.838   7.313   1.604
14669WAT     H144249   4.802   7.295   1.512
14669WAT     H244250   4.777   7.377   1.651
14670WAT      O44251   0.292   1.584   5.455
14670WAT     H144252   0.341   1.594   5.542
14670WAT     H244253   0.215   1.521   5.467
14671WAT      O44254   0.945   0.692   8.370
14671WAT     H144255   0.879   0.666   8.300
14671WAT     H244256   0.973   0.787   8.356
14672WAT      O44257   8.212   1.530   2.261
14672WAT     H144258   8.203   1.516   2.360
14672WAT     H244259   8.206   1.442   2.214
14673WAT      O44260   3.924   0.926   7.414
14673WAT     H144261   3.893   1.020   7.427
14673WAT     H244262   3.913   0.899   7.319
14674WAT      O44263   7.026   0.298   3.899
14674WAT     H144264   6.988   0.224   3.954
14674WAT     H244265   6.952   0.358   3.867
14675WAT      O44266   6.030   8.646   6.454
14675WAT     H144267   5.958   8.683   6.512
14675WAT     H244268   6.025   8.546   6.455
14676WAT      O44269   8.636   8.166   8.164
14676WAT     H144270   8.566   8.103   8.195
14676WAT     H244271   8.704   8.117   8.109
14677WAT      O44272   2.758   6.950   6.821
14677WAT     H144273   2.730   6.854   6.821
14677WAT     H244274   2.832   6.963   6.755
14678WAT      O44275   3.856   7.236   4.748
14678WAT     H144276   3.795   7.305   4.787
14678WAT     H244277   3.834   7.146   4.786
14679WAT      O44278   8.484   4.707   3.635
14679WAT     H144279   8.544   4.752   3.569
14679WAT     H244280   8.438   4.630   3.591
14680WAT      O44281   7.075   6.585   2.440
14680WAT     H144282   6.999   6.568   2.503
14680WAT     H244283   7.161   6.587   2.490
14681WAT      O44284   1.236   4.452   8.131
14681WAT     H144285   1.316   4.394   8.143
14681WAT     H244286   1.156   4.409   8.174
14682WAT      O44287   7.088   7.725   3.237
14682WAT     H144288   7.064   7.765   3.148
14682WAT     H244289   7.158   7.655   3.224
14683WAT      O44290   7.670   0.420   8.276
14683WAT     H144291   7.607   0.494   8.300
14683WAT     H244292   7.712   0.439   8.187
14684WAT      O44293   9.113   3.453   3.165
14684WAT     H144294   9.211   3.443   3.183
14684WAT     H244295   9.092   3.418   3.074
14685WAT      O44296   8.000   4.876   1.482
14685WAT     H144297   7.913   4.836   1.452
14685WAT     H244298   7.987   4.974   1.501
14686WAT      O44299   9.845   0.135   0.081
14686WAT     H144300   9.853   0.150   0.180
14686WAT     H244301   9.888   0.048   0.057
14687WAT      O44302   9.454   8.419   7.026
14687WAT     H144303   9.358   8.444   7.021
14687WAT     H244304   9.502   8.453   6.945
14688WAT      O44305   8.536   1.427   8.429
14688WAT     H144306   8.606   1.472   8.485
14688WAT     H244307   8.456   1.487   8.421
14689WAT      O44308   9.471   9.835   8.743
14689WAT     H144309   9.494   9.887   8.826
14689WAT     H244310   9.464   9.897   8.666
14690WAT      O44311   1.522   5.139   9.766
14690WAT     H144312   1.586   5.144   9.842
14690WAT     H244313   1.466   5.057   9.775
14691WAT      O44314   2.926   4.058   3.869
14691WAT     H144315   2.950   4.143   3.915
14691WAT     H244316   2.960   4.059   3.775
14692WAT      O44317   2.266   3.731   6.437
14692WAT     H144318   2.269   3.779   6.524
14692WAT     H244319   2.349   3.676   6.425
14693WAT      O44320   5.940   1.367   5.132
14693WAT     H144321   5.852   1.414   5.129
14693WAT     H244322   5.929   1.274   5.098
14694WAT      O44323   1.969   1.556   9.688
14694WAT     H144324   1.885   1.608   9.706
14694WAT     H244325   1.948   1.481   9.626
14695WAT      O44326   1.293   3.132   6.568
14695WAT     H144327   1.239   3.050   6.549
14695WAT     H244328   1.328   3.127   6.662
14696WAT      O44329   6.802   8.234   5.056
14696WAT     H144330   6.714   8.262   5.095
14696WAT     H244331   6.851   8.315   5.024
14697WAT      O44332   4.299   2.247   1.858
14697WAT     H144333   4.357   2.269   1.937
14697WAT     H244334   4.245   2.166   1.878
14698WAT      O44335   0.126   7.444   5.588
14698WAT     H144336   0.195   7.382   5.550
14698WAT     H244337   0.035   7.403   5.579
14699WAT      O44338   6.552   3.817   0.599
14699WAT     H144339   6.584   3.758   0.673
14699WAT     H244340   6.542   3.911   0.633
14700WAT      O44341   3.015   2.745   7.723
14700WAT     H144342   3.034   2.843   7.732
14700WAT     H244343   3.081   2.704   7.660
14701WAT      O44344   4.862   1.903   3.669
14701WAT     H144345   4.762   1.908   3.667
14701WAT     H244346   4.892   1.875   3.760
14702WAT      O44347   0.896   5.531   6.741
14702WAT     H144348   0.836   5.580   6.678
14702WAT     H244349   0.869   5.434   6.744
14703WAT      O44350   8.856   0.683   6.127
14703WAT     H144351   8.927   0.651   6.064
14703WAT     H244352   8.818   0.605   6.176
14704WAT      O44353   2.931   7.506   9.610
14704WAT     H144354   2.970   7.530   9.699
14704WAT     H244355   3.003   7.513   9.540
14705WAT      O44356   8.946   8.595   6.081
14705WAT     H144357   9.018   8.585   6.149
14705WAT     H244358   8.963   8.533   6.004
14706WAT      O44359   7.433   3.939   6.048
14706WAT     H144360   7.528   3.946   6.018
14706WAT     H244361   7.372   3.954   5.970
14707WAT      O44362   5.024   3.022   6.415
14707WAT     H144363   5.075   3.085   6.358
14707WAT     H244364   4.965   3.073   6.478
14708WAT      O44365   7.900   5.282   0.026
14708WAT     H144366   7.970   5.214   0.004
14708WAT     H244367   7.853   5.255   0.110
14709WAT      O44368   1.748   6.003   2.086
14709WAT     H144369   1.829   5.964   2.041
14709WAT     H244370   1.776   6.079   2.144
14710WAT      O44371   2.068   9.393   1.136
14710WAT     H144372   2.105   9.316   1.189
14710WAT     H244373   2.140   9.459   1.118
14711WAT      O44374   1.032   4.358   2.933
14711WAT     H144375   1.085   4.297   2.876
14711WAT     H244376   1.007   4.312   3.018
14712WAT      O44377   1.745   2.039   2.214
14712WAT     H144378   1.652   2.020   2.244
14712WAT     H244379   1.802   2.063   2.292
14713WAT      O44380   1.271   3.330   9.524
14713WAT     H144381   1.224   3.338   9.612
14713WAT     H244382   1.268   3.234   9.494
14714WAT      O44383   7.959   6.524   3.087
14714WAT     H144384   7.920   6.582   3.158
14714WAT     H244385   7.944   6.567   2.997
14715WAT      O44386   9.440   9.090   7.224
14715WAT     H144387   9.417   9.159   7.293
14715WAT     H244388   9.509   9.028   7.260
14716WAT      O44389   7.289   1.448   7.685
14716WAT     H144390   7.359   1.382   7.711
14716WAT     H244391   7.247   1.487   7.768
14717WAT      O44392   8.318   5.189   1.111
14717WAT     H144393   8.348   5.095   1.096
14717WAT     H244394   8.378   5.251   1.061
14718WAT      O44395   0.965   4.094   6.943
14718WAT     H144396   0.875   4.051   6.958
14718WAT     H244397   0.959   4.156   6.865
14719WAT      O44398   7.687   0.708   4.453
14719WAT     H144399   7.708   0.767   4.376
14719WAT     H244400   7.769   0.659   4.481
14720WAT      O44401   0.124   8.427   0.873
14720WAT     H144402   0.161   8.482   0.798
14720WAT     H244403   0.139   8.474   0.960
14721WAT      O44404   6.626   4.921   7.532
14721WAT     H144405   6.639   5.010   7.489
14721WAT     H244406   6.598   4.934   7.628
14722WAT      O44407   6.348   8.986   9.021
14722WAT     H144408   6.300   8.960   8.938
14722WAT     H244409   6.329   9.082   9.043
14723WAT      O44410   8.722   3.503   9.552
14723WAT     H144411   8.647   3.560   9.518
14723WAT     H244412   8.768   3.550   9.627
14724WAT      O44413   6.286   2.765   4.890
14724WAT     H144414   6.374   2.754   4.844
14724WAT     H244415   6.288   2.848   4.946
14725WAT      O44416   1.997   9.762   3.246
14725WAT     H144417   1.954   9.759   3.156
14725WAT     H244418   1.977   9.850   3.290
14726WAT      O44419   6.314   5.265   6.655
14726WAT     H144420   6.295   5.191   6.590
14726WAT     H244421   6.403   5.250   6.698
14727WAT      O44422   0.260   8.019   7.760
14727WAT     H144423   0.196   8.007   7.684
14727WAT     H244424   0.249   8.110   7.799
14728WAT      O44425   3.407   6.515   2.292
14728WAT     H144426   3.473   6.472   2.231
14728WAT     H244427   3.433   6.498   2.387
14729WAT      O44428   1.622   4.316   3.550
14729WAT     H144429   1.658   4.407   3.569
14729WAT     H244430   1.651   4.286   3.459
14730WAT      O44431   8.059   3.233   4.505
14730WAT     H144432   8.029   3.327   4.521
14730WAT     H244433   8.146   3.233   4.457
14731WAT      O44434   4.485   8.976   5.798
14731WAT     H144435   4.504   9.058   5.744
14731WAT     H244436   4.387   8.961   5.804
14732WAT      O44437   7.225   5.278   3.989
14732WAT     H144438   7.189   5.300   4.079
14732WAT     H244439   7.259   5.361   3.945
14733WAT      O44440   6.980   3.450   1.607
14733WAT     H144441   7.057   3.420   1.663
14733WAT     H244442   6.972   3.391   1.527
14734WAT      O44443   0.786   9.584   6.618
14734WAT     H144444   0.817   9.530   6.540
14734WAT     H244445   0.693   9.617   6.600
14735WAT      O44446   0.354   3.101   5.233
14735WAT     H144447   0.414   3.031   5.270
14735WAT     H244448   0.382   3.124   5.140
14736WAT      O44449   8.826   4.094   1.524
14736WAT     H144450   8.815   4.168   1.590
14736WAT     H244451   8.810   4.129   1.432
14737WAT      O44452   0.913   3.151   3.674
14737WAT     H144453   0.987   3.213   3.646
14737WAT     H244454   0.901   3.157   3.773
14738WAT      O44455   2.616   2.292   3.062
14738WAT     H144456   2.566   2.377   3.076
14738WAT     H244457   2.710   2.302   3.096
14739WAT      O44458   3.546   3.571   5.815
14739WAT     H144459   3.608   3.544   5.741
14739WAT     H244460   3.461   3.605   5.777
14740WAT      O44461   9.499   1.238   1.906
14740WAT     H144462   9.586   1.197   1.931
14740WAT     H244463   9.513   1.300   1.828
14741WAT      O44464   9.524   1.092   1.112
14741WAT     H144465   9.461   1.071   1.186
14741WAT     H244466   9.584   1.167   1.139
14742WAT      O44467   8.342   7.413   2.099
14742WAT     H144468   8.291   7.327   2.095
14742WAT     H244469   8.397   7.423   2.017
14743WAT      O44470   8.855   0.495   4.175
14743WAT     H144471   8.794   0.543   4.238
14743WAT     H244472   8.829   0.516   4.081
14744WAT      O44473   1.486   1.564   7.692
14744WAT     H144474   1.578   1.587   7.660
14744WAT     H244475   1.475   1.596   7.786
14745WAT      O44476   3.800   0.154   5.696
14745WAT     H144477   3.704   0.144   5.670
14745WAT     H244478   3.813   0.122   5.790
14746WAT      O44479   6.226   2.217   1.560
14746WAT     H144480   6.143   2.253   1.517
14746WAT     H244481   6.287   2.182   1.490
14747WAT      O44482   0.652   2.526   6.061
14747WAT     H144483   0.639   2.618   6.023
14747WAT     H244484   0.577   2.467   6.031
14748WAT      O44485   9.254   9.285   6.452
14748WAT     H144486   9.155   9.282   6.434
14748WAT     H244487   9.302   9.303   6.366
14749WAT      O44488   1.962   9.110   9.005
14749WAT     H144489   1.988   9.078   9.096
14749WAT     H244490   2.038   9.159   8.963
14750WAT      O44491   7.457   7.160   0.185
14750WAT     H144492   7.448   7.229   0.256
14750WAT     H244493   7.384   7.092   0.194
14751WAT      O44494   1.475   7.579   6.658
14751WAT     H144495   1.426   7.520   6.722
14751WAT     H244496   1.425   7.586   6.572
14752WAT      O44497   8.127   9.173   3.555
14752WAT     H144498   8.138   9.100   3.487
14752WAT     H244499   8.126   9.262   3.509
14753WAT      O44500   6.344   3.822   6.199
14753WAT     H144501   6.348   3.856   6.105
14753WAT     H244502   6.427   3.848   6.247
14754WAT      O44503   9.710   2.812   3.325
14754WAT     H144504   9.649   2.889   3.312
14754WAT     H244505   9.671   2.730   3.283
14755WAT      O44506   8.368   3.881   5.593
14755WAT     H144507   8.458   3.892   5.552
14755WAT     H244508   8.300   3.869   5.520
14756WAT      O44509   6.186   9.792   7.804
14756WAT     H144510   6.150   9.876   7.764
14756WAT     H244511   6.125   9.716   7.783
14757WAT      O44512   0.935   0.246   1.842
14757WAT     H144513   0.995   0.224   1.919
14757WAT     H244514   0.989   0.288   1.769
14758WAT      O44515   8.148   3.484   2.485
14758WAT     H144516   8.115   3.484   2.391
14758WAT     H244517   8.240   3.445   2.488
14759WAT      O44518   2.033   2.333   4.918
14759WAT     H144519   1.957   2.329   4.982
14759WAT     H244520   2.048   2.428   4.891
14760WAT      O44521   7.150   0.565   1.556
14760WAT     H144522   7.195   0.571   1.467
14760WAT     H244523   7.151   0.655   1.600
14761WAT      O44524   9.514   9.640   4.245
14761WAT     H144525   9.515   9.676   4.338
14761WAT     H244526   9.608   9.626   4.214
14762WAT      O44527   1.785   2.259   6.279
14762WAT     H144528   1.699   2.305   6.256
14762WAT     H244529   1.848   2.325   6.321
14763WAT      O44530   0.291   2.958   3.989
14763WAT     H144531   0.219   2.978   3.923
14763WAT     H244532   0.251   2.920   4.072
14764WAT      O44533   0.037   8.006   5.020
14764WAT     H144534  -0.006   7.931   5.070
14764WAT     H244535   0.134   7.986   5.006
14765WAT      O44536   6.616   5.509   2.406
14765WAT     H144537   6.532   5.491   2.354
14765WAT     H244538   6.695   5.476   2.355
14766WAT      O44539   9.036   0.486   2.188
14766WAT     H144540   9.133   0.510   2.185
14766WAT     H244541   9.011   0.437   2.105
14767WAT      O44542   6.996   1.675   5.485
14767WAT     H144543   7.021   1.616   5.408
14767WAT     H244544   7.009   1.624   5.570
14768WAT      O44545   1.915   7.365   5.956
14768WAT     H144546   2.006   7.326   5.941
14768WAT     H244547   1.845   7.302   5.921
14769WAT      O44548   4.771   2.209   4.499
14769WAT     H144549   4.765   2.287   4.562
14769WAT     H244550   4.805   2.240   4.411
14770WAT      O44551   5.709   2.049   3.856
14770WAT     H144552   5.698   2.072   3.953
14770WAT     H244553   5.704   2.133   3.802
14771WAT      O44554   7.603   0.369   9.755
14771WAT     H144555   7.676   0.306   9.780
14771WAT     H244556   7.532   0.368   9.825
14772WAT      O44557   0.018   9.094   9.879
14772WAT     H144558   0.034   9.006   9.923
14772WAT     H244559   0.046   9.168   9.940
14773WAT      O44560   9.527   4.832   9.707
14773WAT     H144561   9.473   4.821   9.790
14773WAT     H244562   9.470   4.811   9.627
14774WAT      O44563   5.637   7.200   0.084
14774WAT     H144564   5.667   7.210   0.179
14774WAT     H244565   5.689   7.127   0.040
14775WAT      O44566   9.124   0.990   3.587
14775WAT     H144567   9.141   1.083   3.621
14775WAT     H244568   9.063   0.942   3.652
14776WAT      O44569   6.796   2.195   9.811
14776WAT     H144570   6.807   2.234   9.902
14776WAT     H244571   6.828   2.100   9.811
14777WAT      O44572   7.342   7.860   5.596
14777WAT     H144573   7.394   7.943   5.575
14777WAT     H244574   7.390   7.780   5.559
14778WAT      O44575   9.274   5.272   6.311
14778WAT     H144576   9.179   5.262   6.340
14778WAT     H244577   9.328   5.314   6.384
14779WAT      O44578   4.098   7.256   1.118
14779WAT     H144579   4.179   7.223   1.166
14779WAT     H244580   4.024   7.270   1.183
14780WAT      O44581   0.383   6.296   9.789
14780WAT     H144582   0.466   6.278   9.737
14780WAT     H244583   0.363   6.218   9.848
14781WAT      O44584   4.344   4.099   7.579
14781WAT     H144585   4.410   4.079   7.507
14781WAT     H244586   4.281   4.023   7.589
14782WAT      O44587   6.932   1.544   9.138
14782WAT     H144588   6.958   1.626   9.189
14782WAT     H244589   6.833   1.542   9.126
14783WAT      O44590   3.529   2.751   5.120
14783WAT     H144591   3.524   2.741   5.021
14783WAT     H244592   3.607   2.808   5.144
14784WAT      O44593   6.900   6.384   3.222
14784WAT     H144594   6.963   6.309   3.200
14784WAT     H244595   6.834   6.352   3.289
14785WAT      O44596   4.843   4.012   8.807
14785WAT     H144597   4.763   4.065   8.836
14785WAT     H244598   4.850   4.016   8.707
14786WAT      O44599   9.341   2.702   0.029
14786WAT     H144600   9.337   2.604   0.008
14786WAT     H244601   9.312   2.754  -0.051
14787WAT      O44602   9.727   9.355   6.476
14787WAT     H144603   9.674   9.433   6.444
14787WAT     H244604   9.773   9.379   6.562
14788WAT      O44605   1.586   7.177   1.098
14788WAT     H144606   1.519   7.217   1.160
14788WAT     H244607   1.551   7.089   1.064
14789WAT      O44608   0.364   0.968   0.576
14789WAT     H144609   0.373   0.869   0.573
14789WAT     H244610   0.434   1.006   0.637
14790WAT      O44611   8.795   4.199   1.289
14790WAT     H144612   8.889   4.220   1.265
14790WAT     H244613   8.743   4.284   1.298
14791WAT      O44614   4.573   3.470   1.292
14791WAT     H144615   4.562   3.515   1.380
14791WAT     H244616   4.486   3.470   1.243
14792WAT      O44617   0.313   9.608   4.464
14792WAT     H144618   0.272   9.517   4.457
14792WAT     H244619   0.243   9.677   4.446
14793WAT      O44620   4.059   8.139   3.276
14793WAT     H144621   4.014   8.118   3.189
14793WAT     H244622   4.113   8.222   3.266
14794WAT      O44623   4.992   0.489   4.611
14794WAT     H144624   4.914   0.459   4.554
14794WAT     H244625   5.018   0.415   4.673
14795WAT      O44626   4.901   7.136   2.873
14795WAT     H144627   4.879   7.172   2.963
14795WAT     H244628   4.988   7.174   2.842
14796WAT      O44629   1.848   1.046   7.798
14796WAT     H144630   1.817   1.138   7.771
14796WAT     H244631   1.938   1.028   7.757
14797WAT      O44632   9.214   2.054   5.856
14797WAT     H144633   9.270   2.042   5.774
14797WAT     H244634   9.161   1.971   5.872
14798WAT      O44635   8.472   0.536   7.691
14798WAT     H144636   8.456   0.601   7.617
14798WAT     H244637   8.567   0.543   7.722
14799WAT      O44638   4.595   3.102   8.707
14799WAT     H144639   4.623   3.007   8.695
14799WAT     H244640   4.630   3.136   8.794
14800WAT      O44641   5.248   7.558   8.725
14800WAT     H144642   5.173   7.498   8.755
14800WAT     H244643   5.255   7.555   8.625
14801WAT      O44644   7.227   3.126   8.302
14801WAT     H144645   7.298   3.081   8.357
14801WAT     H244646   7.252   3.221   8.286
14802WAT      O44647   1.605   9.711   4.874
14802WAT     H144648   1.548   9.675   4.801
14802WAT     H244649   1.568   9.798   4.906
14803WAT      O44650   1.907   3.962   5.908
14803WAT     H144651   1.969   4.000   5.839
14803WAT     H244652   1.928   3.865   5.921
14804WAT      O44653   0.537   1.307   6.245
14804WAT     H144654   0.505   1.220   6.208
14804WAT     H244655   0.636   1.303   6.259
14805WAT      O44656   1.362   4.930   7.567
14805WAT     H144657   1.441   4.874   7.541
14805WAT     H244658   1.323   4.972   7.485
14806WAT      O44659   9.663   6.933   9.004
14806WAT     H144660   9.693   6.915   8.911
14806WAT     H244661   9.692   6.858   9.063
14807WAT      O44662   8.954   7.791   7.657
14807WAT     H144663   8.926   7.738   7.737
14807WAT     H244664   8.937   7.888   7.674
14808WAT      O44665   9.647   4.376   9.318
14808WAT     H144666   9.548   4.382   9.311
14808WAT     H244667   9.674   4.369   9.414
14809WAT      O44668   7.169   3.344   1.777
14809WAT     H144669   7.196   3.388   1.864
14809WAT     H244670   7.247   3.293   1.741
14810WAT      O44671   1.210   1.901   4.620
14810WAT     H144672   1.113   1.880   4.612
14810WAT     H244673   1.226   1.952   4.705
14811WAT      O44674   1.213   4.879   0.123
14811WAT     H144675   1.181   4.968   0.155
14811WAT     H244676   1.137   4.828   0.083
14812WAT      O44677   9.128   7.469   9.018
14812WAT     H144678   9.198   7.525   8.973
14812WAT     H244679   9.104   7.510   9.106
14813WAT      O44680   6.638   8.184   0.668
14813WAT     H144681   6.710   8.248   0.691
14813WAT     H244682   6.581   8.222   0.594
14814WAT      O44683   9.752   8.461   8.951
14814WAT     H144684   9.705   8.548   8.962
14814WAT     H244685   9.746   8.409   9.036
14815WAT      O44686   8.359   0.478   7.055
14815WAT     H144687   8.434   0.435   7.005
14815WAT     H244688   8.389   0.498   7.149
14816WAT      O44689   3.833   5.197   3.871
14816WAT     H144690   3.832   5.235   3.964
14816WAT     H244691   3.739   5.187   3.838
14817WAT      O44692   0.993   5.132   5.922
14817WAT     H144693   0.965   5.221   5.884
14817WAT     H244694   0.913   5.073   5.931
14818WAT      O44695   2.851   1.345   4.667
14818WAT     H144696   2.888   1.340   4.574
14818WAT     H244697   2.918   1.307   4.731
14819WAT      O44698   3.494   3.532   1.505
14819WAT     H144699   3.418   3.491   1.555
14819WAT     H244700   3.517   3.474   1.427
14820WAT      O44701   8.204   0.239   1.040
14820WAT     H144702   8.233   0.333   1.056
14820WAT     H244703   8.106   0.237   1.023
14821WAT      O44704   9.302   8.868   6.681
14821WAT     H144705   9.352   8.886   6.596
14821WAT     H244706   9.262   8.777   6.677
14822WAT      O44707   6.935   5.030   7.608
14822WAT     H144708   6.864   5.057   7.674
14822WAT     H244709   6.933   5.093   7.530
14823WAT      O44710   8.859   1.190   8.323
14823WAT     H144711   8.940   1.184   8.265
14823WAT     H244712   8.798   1.262   8.289
14824WAT      O44713   4.174   6.121   7.883
14824WAT     H144714   4.144   6.188   7.950
14824WAT     H244715   4.264   6.146   7.847
14825WAT      O44716   9.459   2.650   5.124
14825WAT     H144717   9.429   2.642   5.219
14825WAT     H244718   9.496   2.741   5.109
14826WAT      O44719   8.779   5.899   5.333
14826WAT     H144720   8.872   5.925   5.308
14826WAT     H244721   8.756   5.939   5.423
14827WAT      O44722   3.423   0.553   3.880
14827WAT     H144723   3.385   0.623   3.941
14827WAT     H244724   3.482   0.597   3.812
14828WAT      O44725   2.788   7.339   5.298
14828WAT     H144726   2.735   7.302   5.222
14828WAT     H244727   2.735   7.410   5.344
14829WAT      O44728   8.877   3.586   1.351
14829WAT     H144729   8.791   3.625   1.319
14829WAT     H244730   8.861   3.495   1.388
14830WAT      O44731   7.411   3.146   3.688
14830WAT     H144732   7.479   3.216   3.712
14830WAT     H244733   7.320   3.180   3.710
14831WAT      O44734   3.504   7.195   5.086
14831WAT     H144735   3.414   7.238   5.092
14831WAT     H244736   3.549   7.224   5.001
14832WAT      O44737   1.613   0.375   0.610
14832WAT     H144738   1.627   0.342   0.517
14832WAT     H244739   1.580   0.470   0.607
14833WAT      O44740   1.109   8.889   5.867
14833WAT     H144741   1.204   8.916   5.882
14833WAT     H244742   1.095   8.796   5.902
14834WAT      O44743   9.087   0.212   9.263
14834WAT     H144744   9.054   0.256   9.179
14834WAT     H244745   9.012   0.202   9.327
14835WAT      O44746   0.437   4.320   9.112
14835WAT     H144747   0.519   4.374   9.096
14835WAT     H244748   0.425   4.306   9.210
14836WAT      O44749   7.161   6.785   5.229
14836WAT     H144750   7.154   6.802   5.130
14836WAT     H244751   7.236   6.721   5.246
14837WAT      O44752   9.656   3.830   9.346
14837WAT     H144753   9.577   3.783   9.386
14837WAT     H244754   9.722   3.762   9.313
14838WAT      O44755   1.281   5.899   4.443
14838WAT     H144756   1.344   5.968   4.408
14838WAT     H244757   1.287   5.817   4.387
14839WAT      O44758   5.117   1.970   7.425
14839WAT     H144759   5.075   1.910   7.494
14839WAT     H244760   5.054   2.044   7.402
14840WAT      O44761   6.523   7.930   6.716
14840WAT     H144762   6.445   7.983   6.751
14840WAT     H244763   6.533   7.946   6.618
14841WAT      O44764   3.858   0.557   7.539
14841WAT     H144765   3.797   0.635   7.547
14841WAT     H244766   3.933   0.566   7.604
14842WAT      O44767   9.796   3.304   4.822
14842WAT     H144768   9.885   3.318   4.866
14842WAT     H244769   9.733   3.377   4.851
14843WAT      O44770   6.504   1.699   4.142
14843WAT     H144771   6.564   1.696   4.062
14843WAT     H244772   6.432   1.631   4.133
14844WAT      O44773   4.180   7.847   6.989
14844WAT     H144774   4.201   7.915   6.918
14844WAT     H244775   4.156   7.893   7.074
14845WAT      O44776   6.983   4.344   4.281
14845WAT     H144777   7.082   4.331   4.277
14845WAT     H244778   6.949   4.319   4.372
14846WAT      O44779   5.386   3.770   6.229
14846WAT     H144780   5.449   3.847   6.226
14846WAT     H244781   5.362   3.751   6.325
14847WAT      O44782   5.768   1.801   8.002
14847WAT     H144783   5.776   1.729   8.071
14847WAT     H244784   5.837   1.871   8.019
14848WAT      O44785   8.480   1.781   7.811
14848WAT     H144786   8.469   1.876   7.840
14848WAT     H244787   8.391   1.737   7.808
14849WAT      O44788   3.993   1.011   1.983
14849WAT     H144789   4.030   1.097   2.019
14849WAT     H244790   3.938   1.029   1.902
14850WAT      O44791   2.297   2.825   8.963
14850WAT     H144792   2.203   2.795   8.945
14850WAT     H244793   2.340   2.764   9.029
14851WAT      O44794   7.655   1.605   2.750
14851WAT     H144795   7.589   1.565   2.686
14851WAT     H244796   7.629   1.699   2.770
14852WAT      O44797   8.393   6.461   7.138
14852WAT     H144798   8.295   6.444   7.129
14852WAT     H244799   8.429   6.497   7.052
14853WAT      O44800   5.856   6.333   0.746
14853WAT     H144801   5.828   6.425   0.776
14853WAT     H244802   5.934   6.302   0.801
14854WAT      O44803   7.665   1.331   6.747
14854WAT     H144804   7.655   1.232   6.749
14854WAT     H244805   7.579   1.374   6.777
14855WAT      O44806   3.600   9.036   8.728
14855WAT     H144807   3.640   8.947   8.704
14855WAT     H244808   3.659   9.082   8.794
14856WAT      O44809   6.012   2.260   5.751
14856WAT     H144810   6.011   2.359   5.738
14856WAT     H244811   5.918   2.226   5.761
14857WAT      O44812   1.241   4.258   4.360
14857WAT     H144813   1.317   4.316   4.331
14857WAT     H244814   1.245   4.172   4.309
14858WAT      O44815   1.775   5.954   0.903
14858WAT     H144816   1.795   5.876   0.843
14858WAT     H244817   1.682   5.986   0.887
14859WAT      O44818   1.434   4.911   6.380
14859WAT     H144819   1.450   4.891   6.477
14859WAT     H244820   1.375   4.841   6.341
14860WAT      O44821   6.057   8.663   9.567
14860WAT     H144822   6.030   8.592   9.502
14860WAT     H244823   6.117   8.729   9.521
14861WAT      O44824   1.928   1.648   6.325
14861WAT     H144825   1.978   1.732   6.344
14861WAT     H244826   1.830   1.667   6.319
14862WAT      O44827   6.891   8.895   0.424
14862WAT     H144828   6.816   8.830   0.420
14862WAT     H244829   6.971   8.852   0.465
14863WAT      O44830   8.209   3.335   8.325
14863WAT     H144831   8.230   3.382   8.411
14863WAT     H244832   8.202   3.402   8.252
14864WAT      O44833   1.461   8.400   6.847
14864WAT     H144834   1.411   8.469   6.899
14864WAT     H244835   1.397   8.330   6.815
14865WAT      O44836   1.083   2.345   2.702
14865WAT     H144837   1.166   2.371   2.751
14865WAT     H244838   1.101   2.346   2.603
14866WAT      O44839   0.854   0.031   5.042
14866WAT     H144840   0.895   0.029   4.951
14866WAT     H244841   0.925   0.049   5.110
14867WAT      O44842   5.822   7.686   7.975
14867WAT     H144843   5.730   7.668   7.942
14867WAT     H244844   5.818   7.715   8.071
14868WAT      O44845   1.279   7.881   4.767
14868WAT     H144846   1.179   7.879   4.758
14868WAT     H244847   1.314   7.788   4.765
14869WAT      O44848   0.054   7.161   2.931
14869WAT     H144849   0.113   7.160   2.850
14869WAT     H244850   0.048   7.068   2.969
14870WAT      O44851   4.868   8.972   6.497
14870WAT     H144852   4.884   8.876   6.474
14870WAT     H244853   4.771   8.993   6.491
14871WAT      O44854   4.610   9.249   7.206
14871WAT     H144855   4.687   9.252   7.142
14871WAT     H244856   4.644   9.263   7.299
14872WAT      O44857   2.228   8.147   4.702
14872WAT     H144858   2.278   8.172   4.785
14872WAT     H244859   2.284   8.084   4.648
14873WAT      O44860   7.754   9.110   9.211
14873WAT     H144861   7.829   9.064   9.259
14873WAT     H244862   7.667   9.089   9.257
14874WAT      O44863   3.982   0.834   8.037
14874WAT     H144864   4.064   0.801   8.083
14874WAT     H244865   3.907   0.770   8.050
14875WAT      O44866   8.195   3.982   9.351
14875WAT     H144867   8.287   3.945   9.337
14875WAT     H244868   8.137   3.957   9.273
14876WAT      O44869   6.700   4.270   2.519
14876WAT     H144870   6.688   4.320   2.433
14876WAT     H244871   6.614   4.269   2.569
14877WAT      O44872   8.458   8.696   3.641
14877WAT     H144873   8.491   8.727   3.730
14877WAT     H244874   8.536   8.672   3.583
14878WAT      O44875   1.329   9.095   9.733
14878WAT     H144876   1.287   9.036   9.802
14878WAT     H244877   1.329   9.048   9.645
14879WAT      O44878   4.899   3.047   1.650
14879WAT     H144879   4.882   2.999   1.564
14879WAT     H244880   4.990   3.088   1.648
14880WAT      O44881   3.619   9.214   1.636
14880WAT     H144882   3.629   9.266   1.721
14880WAT     H244883   3.662   9.264   1.561
14881WAT      O44884   4.344   4.094   6.624
14881WAT     H144885   4.263   4.069   6.677
14881WAT     H244886   4.408   4.017   6.622
14882WAT      O44887   3.723   5.275   7.853
14882WAT     H144888   3.637   5.289   7.803
14882WAT     H244889   3.724   5.334   7.934
14883WAT      O44890   0.146   4.107   5.852
14883WAT     H144891   0.078   4.039   5.879
14883WAT     H244892   0.169   4.095   5.756
14884WAT      O44893   5.776   3.697   7.060
14884WAT     H144894   5.740   3.766   7.122
14884WAT     H244895   5.836   3.635   7.111
14885WAT      O44896   0.420   1.884   1.636
14885WAT     H144897   0.519   1.869   1.634
14885WAT     H244898   0.378   1.841   1.556
14886WAT      O44899   4.931   7.689   1.037
14886WAT     H144900   4.928   7.768   1.097
14886WAT     H244901   4.839   7.667   1.006
14887WAT      O44902   2.935   0.918   4.245
14887WAT     H144903   3.030   0.913   4.212
14887WAT     H244904   2.915   0.837   4.301
14888WAT      O44905   5.502   2.908   5.553
14888WAT     H144906   5.558   2.929   5.473
14888WAT     H244907   5.483   2.993   5.604
14889WAT      O44908   0.290   4.980   4.919
14889WAT     H144909   0.343   4.948   4.998
14889WAT     H244910   0.353   5.012   4.848
14890WAT      O44911   3.130   1.404   5.611
14890WAT     H144912   3.189   1.388   5.532
14890WAT     H244913   3.180   1.457   5.680
14891WAT      O44914   0.121   8.861   0.095
14891WAT     H144915   0.213   8.823   0.086
14891WAT     H244916   0.095   8.862   0.191
14892WAT      O44917   8.455   7.981   8.234
14892WAT     H144918   8.402   7.961   8.151
14892WAT     H244919   8.494   7.896   8.270
14893WAT      O44920   7.795   8.903   6.357
14893WAT     H144921   7.788   8.995   6.395
14893WAT     H244922   7.756   8.837   6.422
14894WAT      O44923   7.729   7.295   0.057
14894WAT     H144924   7.721   7.202   0.019
14894WAT     H244925   7.641   7.342   0.048
14895WAT      O44926   7.328   8.931   5.132
14895WAT     H144927   7.302   8.977   5.217
14895WAT     H244928   7.337   8.833   5.149
14896WAT      O44929   1.346   5.838   8.580
14896WAT     H144930   1.355   5.887   8.494
14896WAT     H244931   1.372   5.742   8.567
14897WAT      O44932   4.816   9.396   1.721
14897WAT     H144933   4.821   9.341   1.804
14897WAT     H244934   4.721   9.420   1.702
14898WAT      O44935   6.393   6.625   6.139
14898WAT     H144936   6.367   6.552   6.203
14898WAT     H244937   6.408   6.710   6.189
14899WAT      O44938   2.513   2.743   9.494
14899WAT     H144939   2.580   2.680   9.532
14899WAT     H244940   2.421   2.707   9.510
14900WAT      O44941   7.331   6.489   9.008
14900WAT     H144942   7.416   6.478   9.059
14900WAT     H244943   7.290   6.578   9.028
14901WAT      O44944   0.860   5.614   3.117
14901WAT     H144945   0.808   5.544   3.068
14901WAT     H244946   0.935   5.571   3.167
14902WAT      O44947   0.917   0.279   7.917
14902WAT     H144948   0.992   0.216   7.937
14902WAT     H244949   0.844   0.266   7.984
14903WAT      O44950   5.132   6.472   8.155
14903WAT     H144951   5.038   6.444   8.172
14903WAT     H244952   5.195   6.401   8.187
14904WAT      O44953   5.413   8.502   4.035
14904WAT     H144954   5.452   8.591   4.059
14904WAT     H244955   5.395   8.450   4.119
14905WAT      O44956   1.804   8.331   8.014
14905WAT     H144957   1.845   8.322   8.105
14905WAT     H244958   1.869   8.299   7.945
14906WAT      O44959   4.844   4.575   9.689
14906WAT     H144960   4.863   4.521   9.607
14906WAT     H244961   4.930   4.598   9.735
14907WAT      O44962   0.801   8.402   8.127
14907WAT     H144963   0.878   8.338   8.135
14907WAT     H244964   0.743   8.394   8.208
14908WAT      O44965   9.877   8.470   2.007
14908WAT     H144966   9.795   8.523   2.027
14908WAT     H244967   9.852   8.376   1.986
14909WAT      O44968   9.371   2.400   4.302
14909WAT     H144969   9.319   2.389   4.217
14909WAT     H244970   9.468   2.388   4.283
14910WAT      O44971   0.383   6.635   5.558
14910WAT     H144972   0.298   6.663   5.602
14910WAT     H244973   0.431   6.569   5.616
14911WAT      O44974   7.623   6.739   2.364
14911WAT     H144975   7.544   6.754   2.423
14911WAT     H244976   7.688   6.677   2.410
14912WAT      O44977   5.574   4.979   6.289
14912WAT     H144978   5.501   5.039   6.323
14912WAT     H244979   5.534   4.893   6.257
14913WAT      O44980   0.421   2.615   2.066
14913WAT     H144981   0.355   2.673   2.113
14913WAT     H244982   0.394   2.605   1.970
14914WAT      O44983   4.737   1.245   1.461
14914WAT     H144984   4.675   1.317   1.429
14914WAT     H244985   4.684   1.176   1.511
14915WAT      O44986   8.014   4.960   8.986
14915WAT     H144987   8.030   4.984   9.082
14915WAT     H244988   8.004   5.044   8.933
14916WAT      O44989   1.748   5.059   8.959
14916WAT     H144990   1.683   5.000   8.911
14916WAT     H244991   1.834   5.009   8.972
14917WAT      O44992   9.696   6.879   7.619
14917WAT     H144993   9.750   6.852   7.539
14917WAT     H244994   9.625   6.810   7.636
14918WAT      O44995   0.417   1.260   0.789
14918WAT     H144996   0.490   1.193   0.775
14918WAT     H244997   0.329   1.213   0.796
14919WAT      O44998   7.166   5.312   0.736
14919WAT     H144999   7.260   5.299   0.767
14919WAT     H245000   7.166   5.364   0.650
14920WAT      O45001   7.648   9.184   9.586
14920WAT     H145002   7.560   9.194   9.633
14920WAT     H245003   7.715   9.247   9.625
14921WAT      O45004   2.985   7.673   6.142
14921WAT     H145005   3.037   7.713   6.066
14921WAT     H245006   2.995   7.730   6.223
14922WAT      O45007   0.873   4.425   2.121
14922WAT     H145008   0.813   4.354   2.083
14922WAT     H245009   0.867   4.425   2.220
14923WAT      O45010   4.840   6.848   0.301
14923WAT     H145011   4.938   6.826   0.305
14923WAT     H245012   4.810   6.846   0.206
14924WAT      O45013   6.720   3.634   2.711
14924WAT     H145014   6.655   3.634   2.635
14924WAT     H245015   6.761   3.543   2.720
14925WAT      O45016   1.637   1.749   1.627
14925WAT     H145017   1.714   1.770   1.566
14925WAT     H245018   1.603   1.658   1.607
14926WAT      O45019   7.100   8.164   2.946
14926WAT     H145020   7.185   8.213   2.965
14926WAT     H245021   7.035   8.181   3.020
14927WAT      O45022   3.666   3.360   8.903
14927WAT     H145023   3.708   3.274   8.932
14927WAT     H245024   3.639   3.352   8.807
14928WAT      O45025   6.734   3.215   5.168
14928WAT     H145026   6.759   3.264   5.085
14928WAT     H245027   6.719   3.280   5.243
14929WAT      O45028   0.266   7.908   6.446
14929WAT     H145029   0.206   7.988   6.443
14929WAT     H245030   0.267   7.864   6.356
14930WAT      O45031   7.903   5.007   9.679
14930WAT     H145032   7.962   5.059   9.740
14930WAT     H245033   7.837   4.955   9.734
14931WAT      O45034   0.453   1.039   6.131
14931WAT     H145035   0.506   1.008   6.051
14931WAT     H245036   0.444   0.963   6.195
14932WAT      O45037   5.284   8.861   2.202
14932WAT     H145038   5.341   8.846   2.121
14932WAT     H245039   5.279   8.959   2.223
14933WAT      O45040   0.647   7.374   5.730
14933WAT     H145041   0.743   7.369   5.758
14933WAT     H245042   0.605   7.454   5.773
14934WAT      O45043   7.858   3.738   8.116
14934WAT     H145044   7.945   3.746   8.068
14934WAT     H245045   7.843   3.820   8.172
14935WAT      O45046   2.220   0.373   0.267
14935WAT     H145047   2.157   0.414   0.332
14935WAT     H245048   2.239   0.437   0.193
14936WAT      O45049   3.977   1.657   9.123
14936WAT     H145050   4.039   1.607   9.063
14936WAT     H245051   3.931   1.729   9.071
14937WAT      O45052   3.459   3.973   4.738
14937WAT     H145053   3.401   3.914   4.794
14937WAT     H245054   3.473   4.060   4.784
14938WAT      O45055   4.471   1.784   2.838
14938WAT     H145056   4.439   1.873   2.871
14938WAT     H245057   4.528   1.741   2.908
14939WAT      O45058   6.870   5.809   9.346
14939WAT     H145059   6.836   5.770   9.261
14939WAT     H245060   6.795   5.849   9.398
14940WAT      O45061   1.649   6.669   6.309
14940WAT     H145062   1.694   6.602   6.368
14940WAT     H245063   1.714   6.741   6.284
14941WAT      O45064   0.515   9.657   6.134
14941WAT     H145065   0.587   9.594   6.163
14941WAT     H245066   0.493   9.719   6.210
14942WAT      O45067   7.483   0.989   1.933
14942WAT     H145068   7.421   1.068   1.925
14942WAT     H245069   7.433   0.913   1.975
14943WAT      O45070   6.157   3.876   0.254
14943WAT     H145071   6.211   3.852   0.335
14943WAT     H245072   6.206   3.946   0.202
14944WAT      O45073   8.602   8.034   4.052
14944WAT     H145074   8.548   8.082   3.983
14944WAT     H245075   8.628   8.099   4.124
14945WAT      O45076   0.783   5.386   1.190
14945WAT     H145077   0.815   5.418   1.279
14945WAT     H245078   0.847   5.318   1.155
14946WAT      O45079   3.970   9.641   5.951
14946WAT     H145080   4.005   9.731   5.979
14946WAT     H245081   4.010   9.571   6.010
14947WAT      O45082   1.519   2.136   7.080
14947WAT     H145083   1.566   2.053   7.112
14947WAT     H245084   1.458   2.169   7.152
14948WAT      O45085   6.332   8.570   4.369
14948WAT     H145086   6.381   8.494   4.327
14948WAT     H245087   6.396   8.642   4.396
14949WAT      O45088   2.363   7.796   1.692
14949WAT     H145089   2.360   7.725   1.762
14949WAT     H245090   2.390   7.883   1.734
14950WAT      O45091   2.939   8.896   8.381
14950WAT     H145092   2.984   8.985   8.378
14950WAT     H245093   2.942   8.860   8.475
14951WAT      O45094   0.682   9.444   4.669
14951WAT     H145095   0.684   9.347   4.695
14951WAT     H245096   0.763   9.490   4.704
14952WAT      O45097   5.870   4.310   4.270
14952WAT     H145098   5.853   4.285   4.365
14952WAT     H245099   5.834   4.239   4.209
14953WAT      O45100   0.459   0.059   0.955
14953WAT     H145101   0.375   0.004   0.945
14953WAT     H245102   0.440   0.154   0.929
14954WAT      O45103   1.763   1.364   1.877
14954WAT     H145104   1.837   1.427   1.900
14954WAT     H245105   1.746   1.368   1.778
14955WAT      O45106   4.422   4.082   5.244
14955WAT     H145107   4.326   4.111   5.254
14955WAT     H245108   4.430   4.023   5.164
14956WAT      O45109   1.630   3.437   6.465
14956WAT     H145110   1.614   3.447   6.367
14956WAT     H245111   1.673   3.348   6.483
14957WAT      O45112   0.353   8.783   9.729
14957WAT     H145113   0.314   8.875   9.724
14957WAT     H245114   0.280   8.717   9.749
14958WAT      O45115   6.480   6.629   0.568
14958WAT     H145116   6.446   6.639   0.475
14958WAT     H245117   6.429   6.691   0.629
14959WAT      O45118   4.424   5.867   6.247
14959WAT     H145119   4.478   5.889   6.328
14959WAT     H245120   4.327   5.884   6.266
14960WAT      O45121   9.268   9.673   4.633
14960WAT     H145122   9.270   9.639   4.727
14960WAT     H245123   9.267   9.596   4.570
14961WAT      O45124   0.813   6.000   2.955
14961WAT     H145125   0.825   5.966   3.049
14961WAT     H245126   0.845   5.932   2.890
14962WAT      O45127   6.193   2.683   5.633
14962WAT     H145128   6.158   2.776   5.631
14962WAT     H245129   6.128   2.623   5.680
14963WAT      O45130   2.787   5.257   8.496
14963WAT     H145131   2.882   5.260   8.467
14963WAT     H245132   2.740   5.182   8.449
14964WAT      O45133   4.414   1.787   1.128
14964WAT     H145134   4.382   1.714   1.068
14964WAT     H245135   4.358   1.789   1.211
14965WAT      O45136   0.194   4.628   1.735
14965WAT     H145137   0.217   4.653   1.829
14965WAT     H245138   0.098   4.600   1.730
14966WAT      O45139   8.418   1.814   4.447
14966WAT     H145140   8.364   1.898   4.450
14966WAT     H245141   8.443   1.787   4.540
14967WAT      O45142   7.702   4.238   3.035
14967WAT     H145143   7.684   4.141   3.021
14967WAT     H245144   7.756   4.274   2.959
14968WAT      O45145   6.351   1.397   6.045
14968WAT     H145146   6.403   1.367   5.965
14968WAT     H245147   6.301   1.481   6.023
14969WAT      O45148   7.386   3.220   9.196
14969WAT     H145149   7.419   3.242   9.105
14969WAT     H245150   7.380   3.303   9.251
14970WAT      O45151   6.121   4.840   8.314
14970WAT     H145152   6.125   4.933   8.349
14970WAT     H245153   6.059   4.785   8.370
14971WAT      O45154   7.484   2.887   4.218
14971WAT     H145155   7.539   2.862   4.298
14971WAT     H245156   7.543   2.924   4.147
14972WAT      O45157   9.012   7.123   0.094
14972WAT     H145158   8.949   7.050   0.066
14972WAT     H245159   9.013   7.195   0.025
14973WAT      O45160   8.971   4.076   3.340
14973WAT     H145161   8.974   4.053   3.437
14973WAT     H245162   9.064   4.086   3.305
14974WAT      O45163   4.978   0.677   0.755
14974WAT     H145164   4.963   0.776   0.745
14974WAT     H245165   4.957   0.649   0.849
14975WAT      O45166   2.439   5.253   8.348
14975WAT     H145167   2.394   5.260   8.437
14975WAT     H245168   2.531   5.217   8.360
14976WAT      O45169   8.059   3.862   1.112
14976WAT     H145170   7.963   3.852   1.139
14976WAT     H245171   8.104   3.929   1.170
14977WAT      O45172   6.715   1.501   7.944
14977WAT     H145173   6.673   1.513   8.034
14977WAT     H245174   6.652   1.532   7.873
14978WAT      O45175   1.703   3.367   0.809
14978WAT     H145176   1.749   3.348   0.895
14978WAT     H245177   1.660   3.283   0.774
14979WAT      O45178   7.396   5.228   4.933
14979WAT     H145179   7.373   5.227   4.836
14979WAT     H245180   7.363   5.313   4.975
14980WAT      O45181   8.501   3.530   2.963
14980WAT     H145182   8.477   3.579   2.880
14980WAT     H245183   8.464   3.437   2.959
14981WAT      O45184   7.775   3.585   5.355
14981WAT     H145185   7.716   3.665   5.362
14981WAT     H245186   7.719   3.502   5.350
14982WAT      O45187   3.327   4.072   3.476
14982WAT     H145188   3.301   3.985   3.435
14982WAT     H245189   3.423   4.092   3.456
14983WAT      O45190   0.136   1.893   5.006
14983WAT     H145191   0.055   1.941   4.971
14983WAT     H245192   0.218   1.939   4.974
14984WAT      O45193   4.432   3.829   2.668
14984WAT     H145194   4.381   3.908   2.700
14984WAT     H245195   4.380   3.782   2.596
14985WAT      O45196   2.512   7.212   1.025
14985WAT     H145197   2.582   7.191   0.957
14985WAT     H245198   2.549   7.276   1.093
14986WAT      O45199   3.818   8.083   7.376
14986WAT     H145200   3.757   8.155   7.344
14986WAT     H245201   3.816   8.007   7.310
14987WAT      O45202   3.805   1.841   2.735
14987WAT     H145203   3.862   1.859   2.655
14987WAT     H245204   3.846   1.768   2.790
14988WAT      O45205   7.041   8.675   1.058
14988WAT     H145206   7.085   8.589   1.034
14988WAT     H245207   7.028   8.730   0.975
14989WAT      O45208   8.929   1.166   4.410
14989WAT     H145209   8.991   1.189   4.335
14989WAT     H245210   8.979   1.113   4.479
14990WAT      O45211   9.713   9.418   0.991
14990WAT     H145212   9.665   9.386   0.909
14990WAT     H245213   9.699   9.354   1.066
14991WAT      O45214   0.625   1.465   5.512
14991WAT     H145215   0.712   1.466   5.561
14991WAT     H245216   0.639   1.428   5.420
14992WAT      O45217   5.002   2.393   2.772
14992WAT     H145218   4.987   2.343   2.687
14992WAT     H245219   5.016   2.328   2.847
14993WAT      O45220   7.102   7.153   8.032
14993WAT     H145221   7.159   7.226   7.995
14993WAT     H245222   7.078   7.174   8.127
14994WAT      O45223   7.456   8.952   7.293
14994WAT     H145224   7.541   8.956   7.345
14994WAT     H245225   7.437   9.042   7.253
14995WAT      O45226   5.776   1.389   8.464
14995WAT     H145227   5.863   1.344   8.444
14995WAT     H245228   5.754   1.379   8.561
14996WAT      O45229   1.505   2.134   4.359
14996WAT     H145230   1.555   2.092   4.283
14996WAT     H245231   1.493   2.066   4.432
14997WAT      O45232   8.625   5.853   7.803
14997WAT     H145233   8.616   5.758   7.834
14997WAT     H245234   8.631   5.855   7.704
14998WAT      O45235   6.608   2.236   6.200
14998WAT     H145236   6.699   2.275   6.185
14998WAT     H245237   6.617   2.144   6.240
14999WAT      O45238   4.526   1.227   0.911
14999WAT     H145239   4.555   1.254   0.820
14999WAT     H245240   4.485   1.136   0.908
15000WAT      O45241   5.087   1.733   4.758
15000WAT     H145242   5.104   1.822   4.802
15000WAT     H245243   5.081   1.746   4.659
15001WAT      O45244   5.402   5.588   0.903
15001WAT     H145245   5.344   5.622   0.977
15001WAT     H245246   5.485   5.643   0.897
15002WAT      O45247   2.653   7.497   7.005
15002WAT     H145248   2.722   7.438   6.965
15002WAT     H245249   2.615   7.557   6.934
15003WAT      O45250   3.809   2.856   7.928
15003WAT     H145251   3.773   2.946   7.953
15003WAT     H245252   3.840   2.809   8.011
15004WAT      O45253   0.367   7.357   1.289
15004WAT     H145254   0.382   7.403   1.201
15004WAT     H245255   0.454   7.325   1.325
15005WAT      O45256   8.340   5.776   8.294
15005WAT     H145257   8.288   5.861   8.309
15005WAT     H245258   8.289   5.717   8.232
15006WAT      O45259   7.870   4.317   2.837
15006WAT     H145260   7.867   4.391   2.769
15006WAT     H245261   7.924   4.241   2.802
15007WAT      O45262   5.875   9.294   1.847
15007WAT     H145263   5.808   9.243   1.901
15007WAT     H245264   5.890   9.384   1.889
15008WAT      O45265   2.703   0.375   5.439
15008WAT     H145266   2.773   0.391   5.509
15008WAT     H245267   2.734   0.304   5.376
15009WAT      O45268   8.910   5.395   9.085
15009WAT     H145269   8.913   5.316   9.024
15009WAT     H245270   8.870   5.473   9.036
15010WAT      O45271   4.489   2.359   0.813
15010WAT     H145272   4.417   2.340   0.880
15010WAT     H245273   4.485   2.455   0.786
15011WAT      O45274   7.546   0.693   0.510
15011WAT     H145275   7.529   0.632   0.588
15011WAT     H245276   7.471   0.686   0.445
15012WAT      O45277   6.166   0.504   8.705
15012WAT     H145278   6.190   0.414   8.671
15012WAT     H245279   6.237   0.570   8.680
15013WAT      O45280   8.312   2.653   1.951
15013WAT     H145281   8.342   2.743   1.984
15013WAT     H245282   8.268   2.603   2.026
15014WAT      O45283   6.708   8.836   6.855
15014WAT     H145284   6.741   8.822   6.762
15014WAT     H245285   6.771   8.896   6.904
15015WAT      O45286   8.137   7.035   1.596
15015WAT     H145287   8.086   7.108   1.551
15015WAT     H245288   8.090   6.947   1.582
15016WAT      O45289   9.408   2.453   5.954
15016WAT     H145290   9.324   2.411   5.987
15016WAT     H245291   9.391   2.498   5.867
15017WAT      O45292   0.045   9.324   8.604
15017WAT     H145293   0.118   9.287   8.662
15017WAT     H245294   0.085   9.368   8.524
15018WAT      O45295   7.251   4.589   6.613
15018WAT     H145296   7.327   4.531   6.642
15018WAT     H245297   7.193   4.539   6.549
15019WAT      O45298   2.360   0.615   1.406
15019WAT     H145299   2.393   0.624   1.499
15019WAT     H245300   2.352   0.706   1.364
15020WAT      O45301   2.294   8.959   9.224
15020WAT     H145302   2.199   8.992   9.225
15020WAT     H245303   2.311   8.904   9.306
15021WAT      O45304   2.515   5.052   7.959
15021WAT     H145305   2.514   5.149   7.981
15021WAT     H245306   2.546   5.039   7.864
15022WAT      O45307   1.396   8.890   8.438
15022WAT     H145308   1.456   8.883   8.358
15022WAT     H245309   1.338   8.971   8.429
15023WAT      O45310   1.532   2.696   9.690
15023WAT     H145311   1.622   2.653   9.675
15023WAT     H245312   1.488   2.652   9.769
15024WAT      O45313   6.778   5.377   8.423
15024WAT     H145314   6.710   5.383   8.497
15024WAT     H245315   6.733   5.397   8.335
15025WAT      O45316   1.340   8.390   6.047
15025WAT     H145317   1.294   8.345   6.124
15025WAT     H245318   1.430   8.422   6.077
15026WAT      O45319   0.548   6.277   2.086
15026WAT     H145320   0.560   6.229   1.998
15026WAT     H245321   0.637   6.288   2.130
15027WAT      O45322   6.957   1.269   1.320
15027WAT     H145323   7.005   1.322   1.250
15027WAT     H245324   6.965   1.172   1.300
15028WAT      O45325   3.637   5.456   9.076
15028WAT     H145326   3.541   5.443   9.051
15028WAT     H245327   3.666   5.382   9.138
15029WAT      O45328   6.573   8.749   2.756
15029WAT     H145329   6.594   8.753   2.853
15029WAT     H245330   6.478   8.720   2.744
15030WAT      O45331   8.258   6.220   6.835
15030WAT     H145332   8.358   6.218   6.837
15030WAT     H245333   8.227   6.219   6.741
15031WAT      O45334   7.842   0.970   4.766
15031WAT     H145335   7.794   1.041   4.819
15031WAT     H245336   7.780   0.895   4.747
15032WAT      O45337   3.574   9.076   7.835
15032WAT     H145338   3.527   9.069   7.923
15032WAT     H245339   3.506   9.081   7.761
15033WAT      O45340   1.567   8.500   7.416
15033WAT     H145341   1.555   8.439   7.338
15033WAT     H245342   1.498   8.479   7.486
15034WAT      O45343   4.606   0.715   3.308
15034WAT     H145344   4.550   0.730   3.226
15034WAT     H245345   4.699   0.690   3.281
15035WAT      O45346   0.633   5.984   9.277
15035WAT     H145347   0.688   6.047   9.222
15035WAT     H245348   0.693   5.930   9.336
15036WAT      O45349   2.935   3.964   8.187
15036WAT     H145350   2.987   3.928   8.110
15036WAT     H245351   2.927   4.063   8.180
15037WAT      O45352   0.639   0.396   5.060
15037WAT     H145353   0.665   0.463   5.129
15037WAT     H245354   0.589   0.321   5.103
15038WAT      O45355   2.580   0.894   6.175
15038WAT     H145356   2.639   0.921   6.099
15038WAT     H245357   2.590   0.960   6.250
15039WAT      O45358   7.050   2.052   4.270
15039WAT     H145359   7.063   2.005   4.357
15039WAT     H245360   7.065   2.150   4.282
15040WAT      O45361   3.987   3.851   2.112
15040WAT     H145362   3.959   3.947   2.118
15040WAT     H245363   4.009   3.830   2.016
15041WAT      O45364   2.007   4.461   6.494
15041WAT     H145365   1.924   4.489   6.446
15041WAT     H245366   2.083   4.520   6.467
15042WAT      O45367   2.595   0.891   2.957
15042WAT     H145368   2.519   0.912   3.018
15042WAT     H245369   2.566   0.822   2.891
15043WAT      O45370   3.325   0.391   1.418
15043WAT     H145371   3.411   0.384   1.368
15043WAT     H245372   3.248   0.384   1.355
15044WAT      O45373   5.258   9.832   3.851
15044WAT     H145374   5.354   9.801   3.853
15044WAT     H245375   5.248   9.901   3.779
15045WAT      O45376   2.020   7.989   7.624
15045WAT     H145377   1.925   7.986   7.592
15045WAT     H245378   2.077   7.932   7.565
15046WAT      O45379   5.266   5.916   7.567
15046WAT     H145380   5.337   5.847   7.554
15046WAT     H245381   5.294   6.001   7.523
15047WAT      O45382   6.038   2.040   9.514
15047WAT     H145383   6.095   2.010   9.590
15047WAT     H245384   6.095   2.069   9.438
15048WAT      O45385   2.814   7.117   3.316
15048WAT     H145386   2.766   7.191   3.361
15048WAT     H245387   2.911   7.140   3.307
15049WAT      O45388   2.019   7.189   7.289
15049WAT     H145389   2.107   7.141   7.288
15049WAT     H245390   1.946   7.125   7.309
15050WAT      O45391   1.863   1.737   3.806
15050WAT     H145392   1.858   1.670   3.732
15050WAT     H245393   1.790   1.719   3.872
15051WAT      O45394   9.627   4.505   7.792
15051WAT     H145395   9.650   4.583   7.733
15051WAT     H245396   9.528   4.503   7.807
15052WAT      O45397   5.921   8.459   3.612
15052WAT     H145398   5.959   8.511   3.688
15052WAT     H245399   5.988   8.390   3.582
15053WAT      O45400   9.538   4.296   3.301
15053WAT     H145401   9.469   4.338   3.361
15053WAT     H245402   9.542   4.347   3.215
15054WAT      O45403   0.973   5.941   1.614
15054WAT     H145404   0.997   5.849   1.586
15054WAT     H245405   0.958   5.944   1.713
15055WAT      O45406   3.986   1.239   5.251
15055WAT     H145407   3.946   1.330   5.255
15055WAT     H245408   4.068   1.240   5.194
15056WAT      O45409   7.700   9.464   6.569
15056WAT     H145410   7.653   9.546   6.600
15056WAT     H245411   7.696   9.394   6.640
15057WAT      O45412   8.714   2.054   1.491
15057WAT     H145413   8.732   1.960   1.460
15057WAT     H245414   8.716   2.116   1.413
15058WAT      O45415   9.128   7.468   4.846
15058WAT     H145416   9.220   7.440   4.817
15058WAT     H245417   9.135   7.549   4.905
15059WAT      O45418   0.701   5.131   2.378
15059WAT     H145419   0.702   5.033   2.395
15059WAT     H245420   0.653   5.150   2.292
15060WAT      O45421   4.432   9.660   5.051
15060WAT     H145422   4.355   9.722   5.060
15060WAT     H245423   4.413   9.593   4.978
15061WAT      O45424   5.092   5.173   0.713
15061WAT     H145425   5.052   5.170   0.621
15061WAT     H245426   5.161   5.246   0.717
15062WAT      O45427   1.087   2.715   1.243
15062WAT     H145428   1.066   2.796   1.297
15062WAT     H245429   1.073   2.633   1.299
15063WAT      O45430   0.789   1.687   5.358
15063WAT     H145431   0.839   1.604   5.379
15063WAT     H245432   0.745   1.722   5.441
15064WAT      O45433   2.926   7.368   4.662
15064WAT     H145434   2.987   7.293   4.636
15064WAT     H245435   2.959   7.409   4.747
15065WAT      O45436   8.031   6.377   7.832
15065WAT     H145437   8.016   6.393   7.930
15065WAT     H245438   8.036   6.465   7.785
15066WAT      O45439   7.100   9.474   3.580
15066WAT     H145440   7.129   9.454   3.674
15066WAT     H245441   7.159   9.426   3.516
15067WAT      O45442   6.891   5.190   4.779
15067WAT     H145443   6.951   5.155   4.850
15067WAT     H245444   6.843   5.271   4.812
15068WAT      O45445   1.481   1.522   6.666
15068WAT     H145446   1.574   1.485   6.676
15068WAT     H245447   1.483   1.598   6.601
15069WAT      O45448   5.073   7.941   8.952
15069WAT     H145449   5.038   7.900   9.036
15069WAT     H245450   5.036   7.892   8.873
15070WAT      O45451   9.233   1.207   1.595
15070WAT     H145452   9.280   1.217   1.507
15070WAT     H245453   9.218   1.297   1.635
15071WAT      O45454   6.579   5.182   9.844
15071WAT     H145455   6.547   5.243   9.916
15071WAT     H245456   6.629   5.235   9.775
15072WAT      O45457   8.387   4.401   2.092
15072WAT     H145458   8.420   4.410   2.186
15072WAT     H245459   8.302   4.451   2.082
15073WAT      O45460   4.498   1.824   0.125
15073WAT     H145461   4.457   1.735   0.149
15073WAT     H245462   4.431   1.877   0.073
15074WAT      O45463   6.311   8.906   3.019
15074WAT     H145464   6.216   8.898   2.989
15074WAT     H245465   6.363   8.961   2.953
15075WAT      O45466   6.162   6.944   6.173
15075WAT     H145467   6.204   6.973   6.087
15075WAT     H245468   6.215   6.870   6.213
15076WAT      O45469   2.008   9.028   6.908
15076WAT     H145470   1.986   9.003   7.002
15076WAT     H245471   2.099   8.996   6.885
15077WAT      O45472   4.705   9.312   3.398
15077WAT     H145473   4.720   9.249   3.474
15077WAT     H245474   4.629   9.373   3.420
15078WAT      O45475   8.800   7.819   9.276
15078WAT     H145476   8.796   7.734   9.329
15078WAT     H245477   8.707   7.853   9.262
15079WAT      O45478   0.339   0.283   2.259
15079WAT     H145479   0.384   0.372   2.265
15079WAT     H245480   0.333   0.256   2.163
15080WAT      O45481   9.470   3.830   0.898
15080WAT     H145482   9.415   3.754   0.932
15080WAT     H245483   9.429   3.865   0.813
15081WAT      O45484   5.458   5.881   7.973
15081WAT     H145485   5.397   5.821   7.921
15081WAT     H245486   5.454   5.858   8.070
15082WAT      O45487   5.715   3.732   8.073
15082WAT     H145488   5.810   3.748   8.048
15082WAT     H245489   5.703   3.637   8.099
15083WAT      O45490   5.726   5.447   1.143
15083WAT     H145491   5.767   5.511   1.078
15083WAT     H245492   5.783   5.366   1.150
15084WAT      O45493   6.148   1.795   0.766
15084WAT     H145494   6.180   1.707   0.732
15084WAT     H245495   6.061   1.819   0.724
15085WAT      O45496   5.140   0.775   5.772
15085WAT     H145497   5.193   0.858   5.788
15085WAT     H245498   5.199   0.705   5.731
15086WAT      O45499   1.455   2.408   9.618
15086WAT     H145500   1.438   2.450   9.707
15086WAT     H245501   1.533   2.346   9.624
15087WAT      O45502   4.788   6.861   0.560
15087WAT     H145503   4.812   6.834   0.467
15087WAT     H245504   4.712   6.926   0.556
15088WAT      O45505   8.534   3.174   1.389
15088WAT     H145506   8.583   3.200   1.306
15088WAT     H245507   8.591   3.113   1.443
15089WAT      O45508   2.572   7.322   5.991
15089WAT     H145509   2.495   7.341   6.052
15089WAT     H245510   2.656   7.314   6.045
15090WAT      O45511   5.126   8.326   1.320
15090WAT     H145512   5.193   8.259   1.352
15090WAT     H245513   5.041   8.279   1.298
15091WAT      O45514   1.773   2.766   6.742
15091WAT     H145515   1.867   2.754   6.711
15091WAT     H245516   1.739   2.854   6.710
15092WAT      O45517   7.590   3.387   6.422
15092WAT     H145518   7.624   3.389   6.516
15092WAT     H245519   7.666   3.405   6.359
15093WAT      O45520   1.681   5.104   8.290
15093WAT     H145521   1.583   5.102   8.312
15093WAT     H245522   1.694   5.141   8.197
15094WAT      O45523   8.810   0.064   8.678
15094WAT     H145524   8.844   0.070   8.771
15094WAT     H245525   8.723   0.015   8.677
15095WAT      O45526   3.240   8.449   5.191
15095WAT     H145527   3.213   8.535   5.233
15095WAT     H245528   3.290   8.467   5.107
15096WAT      O45529   7.684   7.989   3.084
15096WAT     H145530   7.681   7.908   3.143
15096WAT     H245531   7.741   7.969   3.005
15097WAT      O45532   8.191   9.354   1.685
15097WAT     H145533   8.166   9.382   1.593
15097WAT     H245534   8.111   9.362   1.745
15098WAT      O45535   4.249   1.148   6.762
15098WAT     H145536   4.247   1.155   6.662
15098WAT     H245537   4.188   1.216   6.801
15099WAT      O45538   0.850   2.459   5.738
15099WAT     H145539   0.769   2.424   5.785
15099WAT     H245540   0.844   2.436   5.641
15100WAT      O45541   5.291   1.750   9.892
15100WAT     H145542   5.289   1.742   9.792
15100WAT     H245543   5.326   1.665   9.932
15101WAT      O45544   6.274   3.142   8.048
15101WAT     H145545   6.314   3.057   8.083
15101WAT     H245546   6.189   3.121   7.999
15102WAT      O45547   9.419   9.366   6.238
15102WAT     H145548   9.451   9.406   6.324
15102WAT     H245549   9.493   9.313   6.197
15103WAT      O45550   6.753   9.727   6.528
15103WAT     H145551   6.658   9.694   6.520
15103WAT     H245552   6.753   9.827   6.531
15104WAT      O45553   5.950   2.415   6.302
15104WAT     H145554   5.950   2.515   6.297
15104WAT     H245555   5.968   2.377   6.211
15105WAT      O45556   2.827   3.201   2.435
15105WAT     H145557   2.836   3.290   2.391
15105WAT     H245558   2.876   3.202   2.522
15106WAT      O45559   7.459   9.103   2.119
15106WAT     H145560   7.389   9.163   2.157
15106WAT     H245561   7.480   9.132   2.026
15107WAT      O45562   1.675   9.250   6.649
15107WAT     H145563   1.586   9.207   6.629
15107WAT     H245564   1.710   9.294   6.566
15108WAT      O45565   9.833   4.031   7.564
15108WAT     H145566   9.917   4.001   7.609
15108WAT     H245567   9.851   4.041   7.466
15109WAT      O45568   2.684   6.402   8.788
15109WAT     H145569   2.744   6.323   8.799
15109WAT     H245570   2.589   6.371   8.778
15110WAT      O45571   9.218   0.115   6.953
15110WAT     H145572   9.313   0.145   6.961
15110WAT     H245573   9.157   0.187   6.987
15111WAT      O45574   4.622   7.786   9.778
15111WAT     H145575   4.712   7.803   9.738
15111WAT     H245576   4.630   7.788   9.878
15112WAT      O45577   5.986   6.198   2.624
15112WAT     H145578   5.920   6.229   2.692
15112WAT     H245579   6.000   6.270   2.556
15113WAT      O45580   4.519   3.101   2.997
15113WAT     H145581   4.584   3.131   2.927
15113WAT     H245582   4.569   3.077   3.080
15114WAT      O45583   7.473   7.861   8.278
15114WAT     H145584   7.517   7.815   8.202
15114WAT     H245585   7.500   7.957   8.280
15115WAT      O45586   5.273   6.406   4.995
15115WAT     H145587   5.262   6.401   4.896
15115WAT     H245588   5.271   6.502   5.024
15116WAT      O45589   7.617   6.417   3.373
15116WAT     H145590   7.704   6.369   3.372
15116WAT     H245591   7.573   6.409   3.283
15117WAT      O45592   2.673   3.174   9.497
15117WAT     H145593   2.767   3.190   9.525
15117WAT     H245594   2.637   3.094   9.544
15118WAT      O45595   9.675   1.009   9.883
15118WAT     H145596   9.637   1.091   9.926
15118WAT     H245597   9.692   0.940   9.953
15119WAT      O45598   1.883   7.868   3.586
15119WAT     H145599   1.887   7.880   3.685
15119WAT     H245600   1.813   7.929   3.548
15120WAT      O45601   4.085   2.411   7.630
15120WAT     H145602   4.105   2.405   7.728
15120WAT     H245603   4.071   2.507   7.605
15121WAT      O45604   2.577   5.476   8.459
15121WAT     H145605   2.651   5.414   8.484
15121WAT     H245606   2.545   5.455   8.367
15122WAT      O45607   6.825   1.092   9.699
15122WAT     H145608   6.808   0.998   9.727
15122WAT     H245609   6.903   1.128   9.750
15123WAT      O45610   9.729   1.632   5.756
15123WAT     H145611   9.652   1.677   5.711
15123WAT     H245612   9.775   1.571   5.691
15124WAT      O45613   4.676   1.976   9.033
15124WAT     H145614   4.698   1.971   9.131
15124WAT     H245615   4.700   2.066   8.998
15125WAT      O45616   5.580   1.389   8.261
15125WAT     H145617   5.608   1.352   8.172
15125WAT     H245618   5.634   1.345   8.334
15126WAT      O45619   5.728   1.003   3.850
15126WAT     H145620   5.809   1.004   3.910
15126WAT     H245621   5.736   0.927   3.785
15127WAT      O45622   6.248   5.598   4.890
15127WAT     H145623   6.242   5.516   4.947
15127WAT     H245624   6.337   5.601   4.845
15128WAT      O45625   2.714   5.356   4.861
15128WAT     H145626   2.758   5.418   4.796
15128WAT     H245627   2.615   5.365   4.853
15129WAT      O45628   0.705   4.847   4.326
15129WAT     H145629   0.676   4.760   4.286
15129WAT     H245630   0.800   4.865   4.302
15130WAT      O45631   1.755   5.010   5.643
15130WAT     H145632   1.828   4.982   5.704
15130WAT     H245633   1.735   4.937   5.577
15131WAT      O45634   0.717   0.412   1.962
15131WAT     H145635   0.678   0.374   2.046
15131WAT     H245636   0.777   0.345   1.919
15132WAT      O45637   6.646   0.247   0.461
15132WAT     H145638   6.546   0.246   0.454
15132WAT     H245639   6.682   0.156   0.442
15133WAT      O45640   5.979   6.759   5.538
15133WAT     H145641   5.982   6.676   5.483
15133WAT     H245642   5.888   6.769   5.578
15134WAT      O45643   2.165   4.892   5.815
15134WAT     H145644   2.069   4.873   5.835
15134WAT     H245645   2.176   4.913   5.718
15135WAT      O45646   6.222   1.271   9.329
15135WAT     H145647   6.237   1.363   9.363
15135WAT     H245648   6.219   1.207   9.405
15136WAT      O45649   6.612   3.428   9.314
15136WAT     H145650   6.519   3.391   9.318
15136WAT     H245651   6.677   3.352   9.313
15137WAT      O45652   4.142   9.643   5.617
15137WAT     H145653   4.170   9.736   5.638
15137WAT     H245654   4.046   9.630   5.643
15138WAT      O45655   6.593   9.230   2.370
15138WAT     H145656   6.661   9.165   2.336
15138WAT     H245657   6.559   9.198   2.459
15139WAT      O45658   5.614   6.036   0.740
15139WAT     H145659   5.647   6.020   0.647
15139WAT     H245660   5.641   5.958   0.798
15140WAT      O45661   6.087   5.613   1.192
15140WAT     H145662   6.006   5.671   1.181
15140WAT     H245663   6.144   5.651   1.265
15141WAT      O45664   1.413   4.294   9.643
15141WAT     H145665   1.366   4.210   9.616
15141WAT     H245666   1.350   4.371   9.637
15142WAT      O45667   1.378   8.049   4.964
15142WAT     H145668   1.407   8.143   4.948
15142WAT     H245669   1.332   8.013   4.883
15143WAT      O45670   2.730   4.115   1.815
15143WAT     H145671   2.736   4.196   1.872
15143WAT     H245672   2.714   4.142   1.720
15144WAT      O45673   2.203   1.419   0.688
15144WAT     H145674   2.136   1.436   0.616
15144WAT     H245675   2.170   1.458   0.774
15145WAT      O45676   3.057   7.656   7.341
15145WAT     H145677   3.008   7.583   7.295
15145WAT     H245678   3.095   7.622   7.427
15146WAT      O45679   7.729   3.194   0.806
15146WAT     H145680   7.713   3.120   0.872
15146WAT     H245681   7.709   3.282   0.849
15147WAT      O45682   8.131   3.989   8.848
15147WAT     H145683   8.178   3.914   8.802
15147WAT     H245684   8.092   3.955   8.935
15148WAT      O45685   7.820   7.880   9.613
15148WAT     H145686   7.873   7.861   9.696
15148WAT     H245687   7.854   7.823   9.538
15149WAT      O45688   8.533   3.326   5.236
15149WAT     H145689   8.525   3.369   5.146
15149WAT     H245690   8.522   3.395   5.307
15150WAT      O45691   7.324   0.683   8.143
15150WAT     H145692   7.395   0.739   8.186
15150WAT     H245693   7.364   0.627   8.071
15151WAT      O45694   3.120   7.436   2.031
15151WAT     H145695   3.040   7.377   2.040
15151WAT     H245696   3.202   7.380   2.023
15152WAT      O45697   8.331   2.056   1.053
15152WAT     H145698   8.323   2.139   1.109
15152WAT     H245699   8.426   2.024   1.054
15153WAT      O45700   3.044   3.370   3.294
15153WAT     H145701   3.022   3.460   3.256
15153WAT     H245702   3.074   3.309   3.221
15154WAT      O45703   8.533   1.565   6.043
15154WAT     H145704   8.477   1.610   5.974
15154WAT     H245705   8.481   1.488   6.082
15155WAT      O45706   2.743   0.152   5.294
15155WAT     H145707   2.706   0.158   5.201
15155WAT     H245708   2.695   0.081   5.345
15156WAT      O45709   8.346   9.512   8.811
15156WAT     H145710   8.367   9.512   8.909
15156WAT     H245711   8.354   9.418   8.776
15157WAT      O45712   1.346   4.018   2.748
15157WAT     H145713   1.302   3.973   2.826
15157WAT     H245714   1.443   4.033   2.769
15158WAT      O45715   8.393   3.194   2.220
15158WAT     H145716   8.452   3.119   2.188
15158WAT     H245717   8.415   3.277   2.169
15159WAT      O45718   8.058   6.884   3.833
15159WAT     H145719   8.150   6.875   3.795
15159WAT     H245720   7.993   6.836   3.774
15160WAT      O45721   8.167   5.360   4.543
15160WAT     H145722   8.183   5.441   4.487
15160WAT     H245723   8.118   5.292   4.489
15161WAT      O45724   3.597   0.681   6.195
15161WAT     H145725   3.624   0.637   6.280
15161WAT     H245726   3.591   0.613   6.122
15162WAT      O45727   6.082   0.654   3.531
15162WAT     H145728   5.987   0.659   3.499
15162WAT     H245729   6.133   0.733   3.497
15163WAT      O45730   8.950   4.921   1.071
15163WAT     H145731   8.865   4.920   1.124
15163WAT     H245732   8.949   4.846   1.005
15164WAT      O45733   5.095   2.666   6.904
15164WAT     H145734   5.170   2.639   6.842
15164WAT     H245735   5.050   2.747   6.868
15165WAT      O45736   3.229   3.267   5.353
15165WAT     H145737   3.152   3.256   5.415
15165WAT     H245738   3.234   3.189   5.290
15166WAT      O45739   3.187   2.495   4.474
15166WAT     H145740   3.097   2.455   4.491
15166WAT     H245741   3.178   2.577   4.419
15167WAT      O45742   8.527   7.311   4.896
15167WAT     H145743   8.455   7.283   4.833
15167WAT     H245744   8.508   7.403   4.929
15168WAT      O45745   9.199   4.264   3.031
15168WAT     H145746   9.110   4.290   2.993
15168WAT     H245747   9.271   4.319   2.988
15169WAT      O45748   6.545   4.777   3.462
15169WAT     H145749   6.513   4.682   3.466
15169WAT     H245750   6.643   4.778   3.440
15170WAT      O45751   6.709   8.298   2.096
15170WAT     H145752   6.618   8.336   2.081
15170WAT     H245753   6.713   8.255   2.186
15171WAT      O45754   6.976   6.047   8.209
15171WAT     H145755   6.922   6.121   8.168
15171WAT     H245756   7.040   6.012   8.141
15172WAT      O45757   2.511   6.829   7.622
15172WAT     H145758   2.559   6.810   7.708
15172WAT     H245759   2.432   6.886   7.640
15173WAT      O45760   4.554   8.444   5.004
15173WAT     H145761   4.492   8.370   5.030
15173WAT     H245762   4.509   8.532   5.021
15174WAT      O45763   2.397   8.069   7.017
15174WAT     H145764   2.448   7.985   6.997
15174WAT     H245765   2.299   8.049   7.019
15175WAT      O45766   5.006   6.908   9.132
15175WAT     H145767   5.105   6.901   9.122
15175WAT     H245768   4.961   6.859   9.058
15176WAT      O45769   5.801   5.882   9.728
15176WAT     H145770   5.799   5.982   9.727
15176WAT     H245771   5.708   5.847   9.726
15177WAT      O45772   0.213   9.783   0.921
15177WAT     H145773   0.212   9.739   0.831
15177WAT     H245774   0.122   9.777   0.962
15178WAT      O45775   7.563   8.249   4.549
15178WAT     H145776   7.645   8.230   4.604
15178WAT     H245777   7.540   8.167   4.496
15179WAT      O45778   2.579   1.399   9.529
15179WAT     H145779   2.598   1.300   9.523
15179WAT     H245780   2.666   1.449   9.529
15180WAT      O45781   3.296   4.229   7.747
15180WAT     H145782   3.325   4.319   7.715
15180WAT     H245783   3.327   4.159   7.683
15181WAT      O45784   1.993   3.504   8.524
15181WAT     H145785   1.948   3.431   8.472
15181WAT     H245786   2.092   3.494   8.518
15182WAT      O45787   2.782   7.903   3.761
15182WAT     H145788   2.853   7.974   3.764
15182WAT     H245789   2.729   7.906   3.845
15183WAT      O45790   0.706   8.670   1.567
15183WAT     H145791   0.623   8.726   1.567
15183WAT     H245792   0.704   8.606   1.643
15184WAT      O45793   2.053   2.248   5.330
15184WAT     H145794   2.046   2.296   5.417
15184WAT     H245795   2.081   2.154   5.346
15185WAT      O45796   2.466   3.614   1.078
15185WAT     H145797   2.495   3.611   1.174
15185WAT     H245798   2.461   3.521   1.042
15186WAT      O45799   2.596   4.401   5.210
15186WAT     H145800   2.614   4.349   5.127
15186WAT     H245801   2.654   4.368   5.284
15187WAT      O45802   9.062   4.963   2.673
15187WAT     H145803   8.980   5.013   2.645
15187WAT     H245804   9.057   4.870   2.638
15188WAT      O45805   2.432   2.013   0.464
15188WAT     H145806   2.514   2.034   0.518
15188WAT     H245807   2.444   1.924   0.420
15189WAT      O45808   4.163   4.282   3.612
15189WAT     H145809   4.141   4.185   3.627
15189WAT     H245810   4.262   4.296   3.623
15190WAT      O45811   9.297   9.534   5.866
15190WAT     H145812   9.274   9.438   5.853
15190WAT     H245813   9.215   9.584   5.895
15191WAT      O45814   1.264   2.566   8.770
15191WAT     H145815   1.258   2.652   8.821
15191WAT     H245816   1.285   2.586   8.674
15192WAT      O45817   5.614   2.162   0.775
15192WAT     H145818   5.642   2.067   0.793
15192WAT     H245819   5.686   2.209   0.725
15193WAT      O45820   9.062   3.673   9.430
15193WAT     H145821   9.121   3.611   9.377
15193WAT     H245822   9.062   3.645   9.526
15194WAT      O45823   9.885   9.595   2.856
15194WAT     H145824   9.832   9.598   2.772
15194WAT     H245825   9.863   9.511   2.907
15195WAT      O45826   7.978   2.837   4.772
15195WAT     H145827   7.963   2.738   4.780
15195WAT     H245828   8.059   2.853   4.715
15196WAT      O45829   0.759   8.269   1.027
15196WAT     H145830   0.664   8.246   1.049
15196WAT     H245831   0.788   8.213   0.949
15197WAT      O45832   6.397   3.169   1.347
15197WAT     H145833   6.459   3.215   1.411
15197WAT     H245834   6.330   3.115   1.397
15198WAT      O45835   5.921   0.349   5.482
15198WAT     H145836   5.889   0.441   5.459
15198WAT     H245837   5.956   0.348   5.576
15199WAT      O45838   2.446   1.671   8.306
15199WAT     H145839   2.436   1.576   8.335
15199WAT     H245840   2.503   1.675   8.224
15200WAT      O45841   4.864   3.528   2.346
15200WAT     H145842   4.876   3.612   2.293
15200WAT     H245843   4.929   3.528   2.422
15201WAT      O45844   3.994   8.199   7.079
15201WAT     H145845   3.951   8.165   6.995
15201WAT     H245846   3.929   8.255   7.130
15202WAT      O45847   7.694   2.241   6.098
15202WAT     H145848   7.620   2.302   6.127
15202WAT     H245849   7.758   2.292   6.040
15203WAT      O45850   6.552   3.523   0.566
15203WAT     H145851   6.541   3.440   0.511
15203WAT     H245852   6.463   3.565   0.582
15204WAT      O45853   1.332   0.355   7.039
15204WAT     H145854   1.406   0.396   7.092
15204WAT     H245855   1.330   0.395   6.948
15205WAT      O45856   6.226   9.674   8.229
15205WAT     H145857   6.253   9.591   8.180
15205WAT     H245858   6.298   9.743   8.221
15206WAT      O45859   7.195   5.621   0.597
15206WAT     H145860   7.225   5.713   0.573
15206WAT     H245861   7.264   5.555   0.566
15207WAT      O45862   3.517   1.033   2.912
15207WAT     H145863   3.418   1.045   2.920
15207WAT     H245864   3.540   1.006   2.818
15208WAT      O45865   4.390   7.066   5.509
15208WAT     H145866   4.453   6.996   5.475
15208WAT     H245867   4.306   7.023   5.540
15209WAT      O45868   1.114   2.690   0.036
15209WAT     H145869   1.048   2.661  -0.032
15209WAT     H245870   1.191   2.626   0.038
15210WAT      O45871   4.362   7.621   0.431
15210WAT     H145872   4.381   7.670   0.346
15210WAT     H245873   4.297   7.547   0.414
15211WAT      O45874   7.598   1.669   7.959
15211WAT     H145875   7.673   1.687   8.023
15211WAT     H245876   7.519   1.634   8.010
15212WAT      O45877   1.769   5.311   2.978
15212WAT     H145878   1.829   5.237   3.008
15212WAT     H245879   1.682   5.306   3.028
15213WAT      O45880   4.450   5.781   1.309
15213WAT     H145881   4.510   5.845   1.260
15213WAT     H245882   4.490   5.690   1.306
15214WAT      O45883   4.189   1.963   8.200
15214WAT     H145884   4.166   1.923   8.112
15214WAT     H245885   4.253   2.039   8.186
15215WAT      O45886   5.567   7.137   4.178
15215WAT     H145887   5.490   7.168   4.122
15215WAT     H245888   5.643   7.202   4.168
15216WAT      O45889   0.144   8.686   1.018
15216WAT     H145890   0.195   8.772   1.009
15216WAT     H245891   0.057   8.704   1.064
15217WAT      O45892   2.527   6.248   5.571
15217WAT     H145893   2.498   6.342   5.584
15217WAT     H245894   2.481   6.209   5.491
15218WAT      O45895   4.116   0.930   2.498
15218WAT     H145896   4.037   0.960   2.552
15218WAT     H245897   4.089   0.853   2.440
15219WAT      O45898   6.487   5.304   5.370
15219WAT     H145899   6.469   5.398   5.343
15219WAT     H245900   6.537   5.302   5.456
15220WAT      O45901   1.856   0.366   8.226
15220WAT     H145902   1.818   0.294   8.168
15220WAT     H245903   1.930   0.329   8.282
15221WAT      O45904   4.396   8.643   5.066
15221WAT     H145905   4.390   8.636   5.165
15221WAT     H245906   4.315   8.601   5.024
15222WAT      O45907   5.887   8.830   1.557
15222WAT     H145908   5.819   8.834   1.630
15222WAT     H245909   5.953   8.757   1.575
15223WAT      O45910   6.327   7.030   6.523
15223WAT     H145911   6.395   7.067   6.460
15223WAT     H245912   6.373   6.987   6.600
15224WAT      O45913   8.711   7.200   5.724
15224WAT     H145914   8.613   7.189   5.706
15224WAT     H245915   8.763   7.190   5.640
15225WAT      O45916   0.448   6.763   3.830
15225WAT     H145917   0.437   6.862   3.845
15225WAT     H245918   0.538   6.734   3.862
15226WAT      O45919   3.409   2.795   4.160
15226WAT     H145920   3.448   2.879   4.123
15226WAT     H245921   3.313   2.788   4.133
15227WAT      O45922   5.915   4.688   0.920
15227WAT     H145923   5.831   4.692   0.866
15227WAT     H245924   5.892   4.698   1.017
15228WAT      O45925   3.369   6.491   9.248
15228WAT     H145926   3.465   6.518   9.258
15228WAT     H245927   3.339   6.509   9.154
15229WAT      O45928   3.519   7.876   7.718
15229WAT     H145929   3.568   7.839   7.639
15229WAT     H245930   3.540   7.974   7.727
15230WAT      O45931   5.937   3.922   2.430
15230WAT     H145932   6.025   3.917   2.478
15230WAT     H245933   5.948   3.976   2.347
15231WAT      O45934   2.333   9.109   7.678
15231WAT     H145935   2.380   9.043   7.619
15231WAT     H245936   2.268   9.060   7.737
15232WAT      O45937   8.037   9.581   1.863
15232WAT     H145938   7.987   9.511   1.813
15232WAT     H245939   8.008   9.672   1.832
15233WAT      O45940   2.940   9.037   0.404
15233WAT     H145941   3.039   9.030   0.392
15233WAT     H245942   2.900   8.945   0.399
15234WAT      O45943   7.299   5.788   4.908
15234WAT     H145944   7.321   5.741   4.823
15234WAT     H245945   7.316   5.886   4.897
15235WAT      O45946   8.106   4.269   7.368
15235WAT     H145947   8.028   4.309   7.415
15235WAT     H245948   8.148   4.199   7.426
15236WAT      O45949   8.034   9.697   6.754
15236WAT     H145950   8.049   9.789   6.717
15236WAT     H245951   8.122   9.651   6.765
15237WAT      O45952   1.141   3.756   2.130
15237WAT     H145953   1.210   3.758   2.057
15237WAT     H245954   1.089   3.841   2.129
15238WAT      O45955   3.863   9.370   3.143
15238WAT     H145956   3.912   9.414   3.067
15238WAT     H245957   3.789   9.431   3.173
15239WAT      O45958   0.488   5.590   6.670
15239WAT     H145959   0.528   5.500   6.688
15239WAT     H245960   0.482   5.642   6.755
15240WAT      O45961   1.454   0.206   9.118
15240WAT     H145962   1.508   0.179   9.197
15240WAT     H245963   1.494   0.167   9.035
15241WAT      O45964   7.850   8.945   7.211
15241WAT     H145965   7.806   8.865   7.170
15241WAT     H245966   7.827   8.950   7.308
15242WAT      O45967   4.861   0.387   3.518
15242WAT     H145968   4.820   0.384   3.427
15242WAT     H245969   4.942   0.446   3.517
15243WAT      O45970   1.144   8.390   3.286
15243WAT     H145971   1.176   8.485   3.285
15243WAT     H245972   1.207   8.334   3.339
15244WAT      O45973   4.960   8.499   4.674
15244WAT     H145974   5.036   8.484   4.737
15244WAT     H245975   4.874   8.471   4.717
15245WAT      O45976   8.979   5.162   3.190
15245WAT     H145977   8.990   5.261   3.189
15245WAT     H245978   9.057   5.120   3.236
15246WAT      O45979   4.808   1.547   5.964
15246WAT     H145980   4.893   1.599   5.975
15246WAT     H245981   4.830   1.453   5.938
15247WAT      O45982   1.831   7.481   1.357
15247WAT     H145983   1.905   7.447   1.299
15247WAT     H245984   1.865   7.556   1.413
15248WAT      O45985   2.978   9.498   4.602
15248WAT     H145986   2.968   9.399   4.601
15248WAT     H245987   3.056   9.524   4.546
15249WAT      O45988   0.963   1.051   9.138
15249WAT     H145989   1.049   1.065   9.187
15249WAT     H245990   0.887   1.052   9.204
15250WAT      O45991   3.103   0.723   1.705
15250WAT     H145992   3.168   0.648   1.711
15250WAT     H245993   3.013   0.688   1.678
15251WAT      O45994   8.202   5.600   4.433
15251WAT     H145995   8.261   5.653   4.494
15251WAT     H245996   8.113   5.645   4.426
15252WAT      O45997   2.932   0.777   9.813
15252WAT     H145998   2.882   0.833   9.879
15252WAT     H245999   2.876   0.764   9.731
15253WAT      O46000   9.709   4.669   9.304
15253WAT     H146001   9.703   4.660   9.404
15253WAT     H246002   9.667   4.589   9.261
15254WAT      O46003   3.686   8.715   1.955
15254WAT     H146004   3.589   8.699   1.939
15254WAT     H246005   3.698   8.773   2.036
15255WAT      O46006   3.461   1.577   0.780
15255WAT     H146007   3.514   1.661   0.784
15255WAT     H246008   3.376   1.593   0.729
15256WAT      O46009   6.719   7.326   1.616
15256WAT     H146010   6.776   7.348   1.537
15256WAT     H246011   6.642   7.389   1.620
15257WAT      O46012   4.373   0.992   7.303
15257WAT     H146013   4.468   1.016   7.279
15257WAT     H246014   4.359   0.895   7.288
15258WAT      O46015   2.477   1.837   9.052
15258WAT     H146016   2.464   1.747   9.010
15258WAT     H246017   2.515   1.900   8.985
15259WAT      O46018   4.759   4.567   8.538
15259WAT     H146019   4.820   4.494   8.508
15259WAT     H246020   4.666   4.548   8.508
15260WAT      O46021   0.474   0.225   1.747
15260WAT     H146022   0.556   0.238   1.693
15260WAT     H246023   0.396   0.210   1.686
15261WAT      O46024   8.440   4.530   7.827
15261WAT     H146025   8.374   4.582   7.882
15261WAT     H246026   8.474   4.588   7.753
15262WAT      O46027   3.016   6.608   1.976
15262WAT     H146028   3.107   6.598   2.015
15262WAT     H246029   3.009   6.553   1.893
15263WAT      O46030   5.462   0.300   1.853
15263WAT     H146031   5.434   0.395   1.846
15263WAT     H246032   5.560   0.295   1.872
15264WAT      O46033   0.681   2.469   3.290
15264WAT     H146034   0.663   2.430   3.381
15264WAT     H246035   0.775   2.501   3.286
15265WAT      O46036   1.856   8.908   0.633
15265WAT     H146037   1.851   9.008   0.633
15265WAT     H246038   1.950   8.880   0.616
15266WAT      O46039   7.103   8.350   7.842
15266WAT     H146040   7.124   8.319   7.749
15266WAT     H246041   7.006   8.334   7.860
15267WAT      O46042   8.856   3.452   2.044
15267WAT     H146043   8.833   3.451   1.947
15267WAT     H246044   8.944   3.496   2.057
15268WAT      O46045   5.726   6.406   9.837
15268WAT     H146046   5.633   6.410   9.802
15268WAT     H246047   5.730   6.453   9.925
15269WAT      O46048   4.804   2.365   0.783
15269WAT     H146049   4.838   2.459   0.789
15269WAT     H246050   4.729   2.352   0.848
15270WAT      O46051   5.111   4.447   9.636
15270WAT     H146052   5.074   4.370   9.583
15270WAT     H246053   5.112   4.424   9.733
15271WAT      O46054   8.954   1.683   5.357
15271WAT     H146055   9.004   1.683   5.443
15271WAT     H246056   9.018   1.670   5.281
15272WAT      O46057   3.658   0.051   9.693
15272WAT     H146058   3.751   0.035   9.660
15272WAT     H246059   3.593  -0.003   9.639
15273WAT      O46060   3.844   9.152   5.866
15273WAT     H146061   3.890   9.171   5.779
15273WAT     H246062   3.906   9.103   5.927
15274WAT      O46063   5.711   6.750   7.366
15274WAT     H146064   5.789   6.692   7.391
15274WAT     H246065   5.706   6.758   7.267
15275WAT      O46066   6.178   2.323   3.715
15275WAT     H146067   6.141   2.346   3.625
15275WAT     H246068   6.264   2.373   3.730
15276WAT      O46069   9.734   9.630   4.032
15276WAT     H146070   9.737   9.725   4.002
15276WAT     H246071   9.719   9.570   3.953
15277WAT      O46072   6.258   3.274   6.801
15277WAT     H146073   6.288   3.195   6.748
15277WAT     H246074   6.228   3.245   6.892
15278WAT      O46075   1.612   5.316   3.446
15278WAT     H146076   1.518   5.313   3.479
15278WAT     H246077   1.634   5.409   3.416
15279WAT      O46078   2.369   2.501   4.939
15279WAT     H146079   2.355   2.404   4.920
15279WAT     H246080   2.402   2.513   5.033
15280WAT      O46081   2.788   9.039   7.345
15280WAT     H146082   2.775   9.006   7.438
15280WAT     H246083   2.700   9.063   7.305
15281WAT      O46084   1.640   0.236   3.254
15281WAT     H146085   1.648   0.324   3.206
15281WAT     H246086   1.544   0.213   3.264
15282WAT      O46087   0.509   9.662   8.482
15282WAT     H146088   0.520   9.738   8.545
15282WAT     H246089   0.513   9.696   8.388
15283WAT      O46090   7.658   0.244   0.574
15283WAT     H146091   7.712   0.235   0.490
15283WAT     H246092   7.679   0.169   0.636
15284WAT      O46093   4.175   7.516   6.686
15284WAT     H146094   4.230   7.474   6.758
15284WAT     H246095   4.115   7.586   6.726
15285WAT      O46096   4.359   9.763   4.699
15285WAT     H146097   4.363   9.692   4.769
15285WAT     H246098   4.290   9.831   4.724
15286WAT      O46099   8.511   8.682   7.724
15286WAT     H146100   8.591   8.624   7.739
15286WAT     H246101   8.500   8.745   7.801
15287WAT      O46102   4.098   9.505   6.565
15287WAT     H146103   4.089   9.562   6.646
15287WAT     H246104   4.126   9.562   6.487
15288WAT      O46105   6.091   4.457   3.996
15288WAT     H146106   6.107   4.362   4.023
15288WAT     H246107   6.133   4.519   4.062
15289WAT      O46108   4.822   2.425   5.003
15289WAT     H146109   4.724   2.438   4.991
15289WAT     H246110   4.862   2.506   5.044
15290WAT      O46111   6.760   3.122   6.256
15290WAT     H146112   6.702   3.173   6.193
15290WAT     H246113   6.807   3.049   6.206
15291WAT      O46114   6.871   5.689   7.654
15291WAT     H146115   6.886   5.759   7.723
15291WAT     H246116   6.786   5.708   7.604
15292WAT      O46117   3.077   4.952   5.676
15292WAT     H146118   3.115   4.981   5.764
15292WAT     H246119   2.989   4.996   5.662
15293WAT      O46120   4.170   5.753   2.737
15293WAT     H146121   4.236   5.828   2.734
15293WAT     H246122   4.213   5.673   2.778
15294WAT      O46123   0.403   8.579   5.818
15294WAT     H146124   0.436   8.498   5.866
15294WAT     H246125   0.479   8.619   5.766
15295WAT      O46126   1.035   0.937   1.304
15295WAT     H146127   0.941   0.963   1.282
15295WAT     H246128   1.035   0.873   1.381
15296WAT      O46129   9.378   0.582   8.860
15296WAT     H146130   9.323   0.638   8.922
15296WAT     H246131   9.376   0.621   8.768
15297WAT      O46132   5.111   7.357   5.796
15297WAT     H146133   5.108   7.421   5.873
15297WAT     H246134   5.081   7.267   5.826
15298WAT      O46135   2.568   0.369   4.367
15298WAT     H146136   2.539   0.355   4.462
15298WAT     H246137   2.532   0.295   4.310
15299WAT      O46138   9.033   3.546   8.364
15299WAT     H146139   9.106   3.535   8.297
15299WAT     H246140   9.064   3.605   8.439
15300WAT      O46141   0.714   8.837   2.215
15300WAT     H146142   0.769   8.857   2.296
15300WAT     H246143   0.768   8.855   2.133
15301WAT      O46144   4.613   4.245   8.718
15301WAT     H146145   4.594   4.184   8.641
15301WAT     H246146   4.527   4.285   8.751
15302WAT      O46147   7.810   1.025   5.087
15302WAT     H146148   7.804   1.099   5.021
15302WAT     H246149   7.782   1.058   5.177
15303WAT      O46150   2.446   3.754   5.903
15303WAT     H146151   2.490   3.664   5.908
15303WAT     H246152   2.499   3.820   5.956
15304WAT      O46153   8.937   8.307   4.815
15304WAT     H146154   8.990   8.248   4.754
15304WAT     H246155   8.964   8.291   4.910
15305WAT      O46156   8.397   2.029   5.145
15305WAT     H146157   8.472   2.063   5.202
15305WAT     H246158   8.402   2.072   5.055
15306WAT      O46159   1.931   9.216   4.302
15306WAT     H146160   2.015   9.267   4.322
15306WAT     H246161   1.888   9.187   4.387
15307WAT      O46162   6.012   7.431   4.444
15307WAT     H146163   6.101   7.391   4.466
15307WAT     H246164   6.021   7.531   4.435
15308WAT      O46165   3.582   3.187   3.177
15308WAT     H146166   3.506   3.208   3.238
15308WAT     H246167   3.668   3.190   3.228
15309WAT      O46168   5.116   6.088   5.313
15309WAT     H146169   5.054   6.070   5.237
15309WAT     H246170   5.111   6.013   5.379
15310WAT      O46171   1.263   0.139   5.071
15310WAT     H146172   1.345   0.115   5.124
15310WAT     H246173   1.196   0.066   5.077
15311WAT      O46174   0.821   0.115   0.909
15311WAT     H146175   0.729   0.087   0.881
15311WAT     H246176   0.867   0.160   0.832
15312WAT      O46177   2.194   7.620   4.421
15312WAT     H146178   2.269   7.590   4.362
15312WAT     H246179   2.192   7.720   4.422
15313WAT      O46180   9.742   7.673   8.420
15313WAT     H146181   9.694   7.600   8.467
15313WAT     H246182   9.684   7.754   8.414
15314WAT      O46183   2.116   7.443   3.883
15314WAT     H146184   2.155   7.512   3.944
15314WAT     H246185   2.156   7.454   3.792
15315WAT      O46186   9.870   7.663   4.974
15315WAT     H146187   9.777   7.665   5.009
15315WAT     H246188   9.932   7.703   5.042
15316WAT      O46189   0.254   5.448   4.529
15316WAT     H146190   0.218   5.377   4.467
15316WAT     H246191   0.302   5.404   4.605
15317WAT      O46192   2.479   5.662   4.938
15317WAT     H146193   2.484   5.598   4.861
15317WAT     H246194   2.390   5.651   4.984
15318WAT      O46195   7.680   3.989   2.480
15318WAT     H146196   7.756   3.939   2.522
15318WAT     H246197   7.615   3.925   2.440
15319WAT      O46198   9.060   3.726   1.923
15319WAT     H146199   9.056   3.783   1.841
15319WAT     H246200   9.118   3.646   1.905
15320WAT      O46201   3.692   1.628   3.983
15320WAT     H146202   3.770   1.672   3.937
15320WAT     H246203   3.657   1.554   3.925
15321WAT      O46204   5.048   9.579   7.914
15321WAT     H146205   4.968   9.530   7.881
15321WAT     H246206   5.047   9.673   7.879
15322WAT      O46207   1.554   6.237   2.066
15322WAT     H146208   1.601   6.210   1.983
15322WAT     H246209   1.486   6.167   2.090
15323WAT      O46210   5.890   3.136   3.621
15323WAT     H146211   5.864   3.160   3.527
15323WAT     H246212   5.844   3.199   3.685
15324WAT      O46213   4.497   2.967   4.125
15324WAT     H146214   4.513   2.958   4.223
15324WAT     H246215   4.402   2.995   4.109
15325WAT      O46216   1.619   6.809   4.221
15325WAT     H146217   1.703   6.794   4.273
15325WAT     H246218   1.596   6.907   4.223
15326WAT      O46219   7.910   9.352   1.742
15326WAT     H146220   7.907   9.264   1.695
15326WAT     H246221   7.828   9.405   1.719
15327WAT      O46222   7.098   9.788   1.424
15327WAT     H146223   7.031   9.841   1.371
15327WAT     H246224   7.156   9.736   1.361
15328WAT      O46225   0.952   9.499   2.233
15328WAT     H146226   1.025   9.482   2.299
15328WAT     H246227   0.900   9.415   2.218
15329WAT      O46228   8.051   4.062   3.630
15329WAT     H146229   8.037   4.069   3.531
15329WAT     H246230   8.141   4.098   3.654
15330WAT      O46231   9.360   7.258   6.696
15330WAT     H146232   9.443   7.231   6.745
15330WAT     H246233   9.358   7.211   6.608
15331WAT      O46234   5.083   1.759   1.596
15331WAT     H146235   5.024   1.778   1.518
15331WAT     H246236   5.062   1.824   1.670
15332WAT      O46237   8.800   0.781   5.292
15332WAT     H146238   8.738   0.715   5.334
15332WAT     H246239   8.805   0.763   5.193
15333WAT      O46240   8.982   4.469   4.191
15333WAT     H146241   8.997   4.458   4.093
15333WAT     H246242   9.057   4.425   4.241
15334WAT      O46243   5.112   8.289   9.068
15334WAT     H146244   5.098   8.385   9.093
15334WAT     H246245   5.030   8.236   9.088
15335WAT      O46246   3.586   6.356   1.662
15335WAT     H146247   3.676   6.399   1.668
15335WAT     H246248   3.597   6.257   1.652
15336WAT      O46249   2.833   4.988   7.213
15336WAT     H146250   2.808   4.986   7.116
15336WAT     H246251   2.844   4.895   7.247
15337WAT      O46252   8.281   5.897   6.693
15337WAT     H146253   8.222   5.885   6.773
15337WAT     H246254   8.313   5.808   6.662
15338WAT      O46255   4.446   0.079   4.461
15338WAT     H146256   4.455   0.030   4.374
15338WAT     H246257   4.406   0.017   4.529
15339WAT      O46258   5.250   9.170   0.395
15339WAT     H146259   5.323   9.105   0.373
15339WAT     H246260   5.176   9.122   0.443
15340WAT      O46261   2.020   8.984   9.234
15340WAT     H146262   1.946   8.924   9.205
15340WAT     H246263   2.005   9.013   9.329
15341WAT      O46264   7.005   7.278   5.934
15341WAT     H146265   6.910   7.277   5.966
15341WAT     H246266   7.044   7.369   5.945
15342WAT      O46267   3.835   6.109   5.032
15342WAT     H146268   3.931   6.114   5.004
15342WAT     H246269   3.777   6.130   4.953
15343WAT      O46270   7.855   4.475   9.327
15343WAT     H146271   7.781   4.498   9.390
15343WAT     H246272   7.880   4.555   9.273
15344WAT      O46273   6.255   8.058   4.942
15344WAT     H146274   6.343   8.101   4.963
15344WAT     H246275   6.243   7.977   4.999
15345WAT      O46276   6.271   7.564   9.452
15345WAT     H146277   6.172   7.578   9.446
15345WAT     H246278   6.297   7.546   9.546
15346WAT      O46279   4.577   9.040   1.833
15346WAT     H146280   4.558   9.126   1.881
15346WAT     H246281   4.560   9.053   1.735
15347WAT      O46282   6.664   1.969   4.836
15347WAT     H146283   6.693   2.055   4.878
15347WAT     H246284   6.716   1.955   4.751
15348WAT      O46285   0.568   8.845   4.232
15348WAT     H146286   0.629   8.887   4.298
15348WAT     H246287   0.573   8.894   4.145
15349WAT      O46288   0.116   8.143   6.454
15349WAT     H146289   0.064   8.100   6.527
15349WAT     H246290   0.066   8.221   6.418
15350WAT      O46291   0.093   1.109   7.435
15350WAT     H146292   0.063   1.153   7.350
15350WAT     H246293   0.190   1.125   7.448
15351WAT      O46294   9.503   6.223   4.289
15351WAT     H146295   9.548   6.312   4.283
15351WAT     H246296   9.566   6.151   4.261
15352WAT      O46297   1.653   6.095   6.360
15352WAT     H146298   1.721   6.087   6.287
15352WAT     H246299   1.648   6.010   6.412
15353WAT      O46300   6.555   2.050   5.213
15353WAT     H146301   6.631   1.988   5.200
15353WAT     H246302   6.512   2.070   5.125
15354WAT      O46303   2.064   3.616   2.120
15354WAT     H146304   2.072   3.707   2.080
15354WAT     H246305   2.141   3.599   2.180
15355WAT      O46306   9.628   6.808   8.237
15355WAT     H146307   9.718   6.849   8.221
15355WAT     H246308   9.599   6.760   8.154
15356WAT      O46309   1.458   6.709   2.852
15356WAT     H146310   1.465   6.808   2.841
15356WAT     H246311   1.361   6.683   2.858
15357WAT      O46312   5.684   8.970   9.112
15357WAT     H146313   5.632   8.884   9.108
15357WAT     H246314   5.685   9.012   9.022
15358WAT      O46315   3.333   7.344   6.027
15358WAT     H146316   3.399   7.393   6.083
15358WAT     H246317   3.381   7.291   5.957
15359WAT      O46318   1.866   5.259   5.621
15359WAT     H146319   1.823   5.168   5.619
15359WAT     H246320   1.830   5.314   5.545
15360WAT      O46321   7.175   2.547   2.087
15360WAT     H146322   7.248   2.531   2.154
15360WAT     H246323   7.103   2.601   2.130
15361WAT      O46324   8.960   2.268   8.346
15361WAT     H146325   8.989   2.174   8.324
15361WAT     H246326   8.960   2.281   8.445
15362WAT      O46327   2.020   2.632   4.366
15362WAT     H146328   2.109   2.670   4.340
15362WAT     H246329   2.016   2.536   4.338
15363WAT      O46330   5.631   1.781   4.385
15363WAT     H146331   5.603   1.877   4.382
15363WAT     H246332   5.645   1.753   4.480
15364WAT      O46333   4.018   5.844   4.933
15364WAT     H146334   4.038   5.799   4.846
15364WAT     H246335   3.949   5.791   4.983
15365WAT      O46336   7.075   5.929   8.837
15365WAT     H146337   7.113   5.859   8.898
15365WAT     H246338   7.091   6.019   8.876
15366WAT      O46339   4.722   5.163   9.190
15366WAT     H146340   4.646   5.221   9.159
15366WAT     H246341   4.804   5.188   9.140
15367WAT      O46342   6.422   1.251   8.009
15367WAT     H146343   6.475   1.314   8.067
15367WAT     H246344   6.324   1.264   8.027
15368WAT      O46345   3.464   4.544   4.496
15368WAT     H146346   3.407   4.553   4.577
15368WAT     H246347   3.482   4.635   4.458
15369WAT      O46348   2.249   1.110   4.376
15369WAT     H146349   2.185   1.038   4.349
15369WAT     H246350   2.202   1.175   4.435
15370WAT      O46351   8.058   9.345   9.362
15370WAT     H146352   8.036   9.347   9.265
15370WAT     H246353   8.074   9.439   9.394
15371WAT      O46354   3.132   3.258   6.402
15371WAT     H146355   3.156   3.259   6.499
15371WAT     H246356   3.214   3.241   6.348
15372WAT      O46357   3.472   9.737   6.811
15372WAT     H146358   3.509   9.740   6.718
15372WAT     H246359   3.414   9.818   6.826
15373WAT      O46360   5.940   5.387   7.133
15373WAT     H146361   6.023   5.359   7.084
15373WAT     H246362   5.881   5.439   7.072
15374WAT      O46363   1.888   3.946   4.793
15374WAT     H146364   1.789   3.952   4.778
15374WAT     H246365   1.908   3.867   4.851
15375WAT      O46366   8.269   4.686   4.273
15375WAT     H146367   8.283   4.699   4.372
15375WAT     H246368   8.174   4.709   4.250
15376WAT      O46369   8.619   4.783   0.949
15376WAT     H146370   8.593   4.840   0.871
15376WAT     H246371   8.719   4.783   0.958
15377WAT      O46372   4.590   0.682   9.677
15377WAT     H146373   4.581   0.592   9.720
15377WAT     H246374   4.522   0.691   9.604
15378WAT      O46375   0.151   8.054   9.098
15378WAT     H146376   0.132   8.102   9.184
15378WAT     H246377   0.166   7.957   9.117
15379WAT      O46378   8.885   0.242   5.010
15379WAT     H146379   8.836   0.158   4.988
15379WAT     H246380   8.859   0.273   5.101
15380WAT      O46381   1.548   6.165   2.586
15380WAT     H146382   1.567   6.133   2.678
15380WAT     H246383   1.487   6.244   2.590
15381WAT      O46384   0.607   0.581   1.756
15381WAT     H146385   0.643   0.512   1.819
15381WAT     H246386   0.667   0.661   1.757
15382WAT      O46387   5.944   6.474   5.471
15382WAT     H146388   5.853   6.434   5.461
15382WAT     H246389   6.011   6.419   5.421
15383WAT      O46390   5.514   3.697   3.916
15383WAT     H146391   5.595   3.714   3.972
15383WAT     H246392   5.498   3.776   3.856
15384WAT      O46393   8.030   6.521   0.088
15384WAT     H146394   8.037   6.535   0.186
15384WAT     H246395   8.110   6.471   0.055
15385WAT      O46396   4.760   7.631   4.834
15385WAT     H146397   4.820   7.644   4.913
15385WAT     H246398   4.812   7.641   4.750
15386WAT      O46399   3.104   8.293   5.561
15386WAT     H146400   3.070   8.358   5.629
15386WAT     H246401   3.136   8.210   5.607
15387WAT      O46402   2.091   6.561   0.963
15387WAT     H146403   2.134   6.649   0.980
15387WAT     H246404   1.995   6.575   0.937
15388WAT      O46405   2.862   5.668   9.689
15388WAT     H146406   2.956   5.695   9.709
15388WAT     H246407   2.862   5.597   9.619
15389WAT      O46408   3.966   2.622   5.540
15389WAT     H146409   3.907   2.583   5.610
15389WAT     H246410   3.956   2.570   5.455
15390WAT      O46411   9.720   7.723   9.745
15390WAT     H146412   9.705   7.789   9.818
15390WAT     H246413   9.689   7.633   9.776
15391WAT      O46414   1.505   5.618   4.136
15391WAT     H146415   1.505   5.525   4.099
15391WAT     H246416   1.412   5.656   4.130
15392WAT      O46417   4.515   7.216   3.735
15392WAT     H146418   4.504   7.139   3.671
15392WAT     H246419   4.579   7.190   3.807
15393WAT      O46420   3.513   8.328   8.046
15393WAT     H146421   3.531   8.382   7.963
15393WAT     H246422   3.453   8.379   8.107
15394WAT      O46423   2.998   8.667   1.372
15394WAT     H146424   2.923   8.604   1.349
15394WAT     H246425   2.992   8.748   1.314
15395WAT      O46426   2.864   0.825   7.350
15395WAT     H146427   2.935   0.882   7.309
15395WAT     H246428   2.907   0.752   7.404
15396WAT      O46429   0.508   9.389   0.779
15396WAT     H146430   0.412   9.411   0.799
15396WAT     H246431   0.564   9.471   0.788
15397WAT      O46432   5.124   0.783   4.275
15397WAT     H146433   5.205   0.823   4.233
15397WAT     H246434   5.128   0.795   4.374
15398WAT      O46435   1.874   9.685   1.536
15398WAT     H146436   1.893   9.652   1.444
15398WAT     H246437   1.865   9.607   1.598
15399WAT      O46438   0.496   6.154   1.276
15399WAT     H146439   0.549   6.154   1.360
15399WAT     H246440   0.437   6.073   1.273
15400WAT      O46441   6.931   0.523   0.714
15400WAT     H146442   7.021   0.567   0.717
15400WAT     H246443   6.860   0.592   0.730
15401WAT      O46444   0.521   8.015   6.106
15401WAT     H146445   0.443   8.077   6.095
15401WAT     H246446   0.596   8.045   6.046
15402WAT      O46447   3.858   9.166   4.110
15402WAT     H146448   3.778   9.118   4.145
15402WAT     H246449   3.842   9.195   4.016
15403WAT      O46450   9.512   0.173   2.487
15403WAT     H146451   9.544   0.247   2.429
15403WAT     H246452   9.457   0.109   2.433
15404WAT      O46453   7.903   0.570   4.557
15404WAT     H146454   7.988   0.528   4.526
15404WAT     H246455   7.846   0.501   4.603
15405WAT      O46456   7.511   9.567   5.554
15405WAT     H146457   7.584   9.502   5.535
15405WAT     H246458   7.444   9.525   5.616
15406WAT      O46459   7.757   9.183   8.562
15406WAT     H146460   7.786   9.136   8.645
15406WAT     H246461   7.682   9.246   8.584
15407WAT      O46462   0.284   1.761   3.730
15407WAT     H146463   0.223   1.737   3.655
15407WAT     H246464   0.316   1.855   3.719
15408WAT      O46465   6.837   7.639   1.157
15408WAT     H146466   6.920   7.621   1.208
15408WAT     H246467   6.798   7.727   1.185
15409WAT      O46468   8.236   8.138   7.449
15409WAT     H146469   8.241   8.225   7.399
15409WAT     H246470   8.269   8.064   7.391
15410WAT      O46471   4.300   4.931   9.552
15410WAT     H146472   4.398   4.948   9.541
15410WAT     H246473   4.285   4.833   9.566
15411WAT      O46474   1.557   2.591   1.474
15411WAT     H146475   1.480   2.548   1.521
15411WAT     H246476   1.632   2.604   1.539
15412WAT      O46477   3.094   4.441   8.655
15412WAT     H146478   3.076   4.539   8.665
15412WAT     H246479   3.067   4.394   8.739
15413WAT      O46480   0.191   3.281   2.777
15413WAT     H146481   0.130   3.356   2.756
15413WAT     H246482   0.142   3.209   2.826
15414WAT      O46483   9.297   1.230   4.371
15414WAT     H146484   9.377   1.206   4.317
15414WAT     H246485   9.320   1.303   4.435
15415WAT      O46486   3.249   6.543   6.792
15415WAT     H146487   3.200   6.597   6.860
15415WAT     H246488   3.232   6.446   6.808
15416WAT      O46489   1.354   1.754   9.727
15416WAT     H146490   1.265   1.798   9.721
15416WAT     H246491   1.398   1.777   9.814
15417WAT      O46492   2.551   7.135   7.254
15417WAT     H146493   2.593   7.063   7.310
15417WAT     H246494   2.552   7.108   7.158
15418WAT      O46495   9.800   3.842   3.947
15418WAT     H146496   9.822   3.864   3.852
15418WAT     H246497   9.878   3.796   3.990
15419WAT      O46498   4.675   0.589   0.896
15419WAT     H146499   4.733   0.514   0.864
15419WAT     H246500   4.620   0.624   0.820
15420WAT      O46501   5.415   3.877   3.257
15420WAT     H146502   5.356   3.823   3.317
15420WAT     H246503   5.506   3.836   3.253
15421WAT      O46504   0.911   1.308   5.145
15421WAT     H146505   0.953   1.372   5.080
15421WAT     H246506   0.836   1.353   5.193
15422WAT      O46507   6.199   7.683   7.946
15422WAT     H146508   6.145   7.601   7.932
15422WAT     H246509   6.243   7.680   8.036
15423WAT      O46510   2.631   7.335   5.691
15423WAT     H146511   2.643   7.359   5.787
15423WAT     H246512   2.717   7.348   5.641
15424WAT      O46513   3.784   8.869   4.521
15424WAT     H146514   3.783   8.808   4.600
15424WAT     H246515   3.820   8.820   4.442
15425WAT      O46516   3.048   4.060   2.246
15425WAT     H146517   2.956   4.039   2.280
15425WAT     H246518   3.111   3.987   2.273
15426WAT      O46519   9.620   4.438   3.072
15426WAT     H146520   9.708   4.408   3.036
15426WAT     H246521   9.588   4.519   3.022
15427WAT      O46522   3.420   2.302   1.582
15427WAT     H146523   3.350   2.264   1.642
15427WAT     H246524   3.485   2.229   1.557
15428WAT      O46525   7.894   5.133   4.807
15428WAT     H146526   7.894   5.233   4.812
15428WAT     H246527   7.849   5.104   4.722
15429WAT      O46528   0.772   2.572   9.485
15429WAT     H146529   0.808   2.653   9.438
15429WAT     H246530   0.757   2.500   9.418
15430WAT      O46531   6.714   5.013   1.627
15430WAT     H146532   6.665   4.926   1.630
15430WAT     H246533   6.755   5.025   1.537
15431WAT      O46534   9.186   3.736   5.584
15431WAT     H146535   9.097   3.739   5.538
15431WAT     H246536   9.239   3.660   5.547
15432WAT      O46537   5.892   0.306   2.610
15432WAT     H146538   5.952   0.378   2.573
15432WAT     H246539   5.949   0.229   2.642
15433WAT      O46540   8.387   5.507   5.646
15433WAT     H146541   8.369   5.412   5.674
15433WAT     H246542   8.340   5.569   5.708
15434WAT      O46543   4.502   2.167   2.846
15434WAT     H146544   4.490   2.259   2.883
15434WAT     H246545   4.448   2.102   2.899
15435WAT      O46546   5.914   0.789   9.378
15435WAT     H146547   5.927   0.738   9.463
15435WAT     H246548   5.974   0.870   9.379
15436WAT      O46549   6.739   2.996   5.868
15436WAT     H146550   6.683   3.025   5.946
15436WAT     H246551   6.786   2.911   5.890
15437WAT      O46552   9.093   7.080   2.204
15437WAT     H146553   9.119   7.007   2.267
15437WAT     H246554   8.995   7.100   2.215
15438WAT      O46555   5.444   1.026   0.544
15438WAT     H146556   5.368   1.090   0.540
15438WAT     H246557   5.493   1.027   0.456
15439WAT      O46558   6.660   4.174   8.507
15439WAT     H146559   6.690   4.243   8.573
15439WAT     H246560   6.661   4.213   8.415
15440WAT      O46561   7.408   7.877   2.227
15440WAT     H146562   7.401   7.871   2.127
15440WAT     H246563   7.327   7.835   2.268
15441WAT      O46564   0.068   7.354   4.948
15441WAT     H146565   0.003   7.398   5.010
15441WAT     H246566   0.102   7.270   4.990
15442WAT      O46567   4.089   4.922   1.607
15442WAT     H146568   4.025   4.994   1.635
15442WAT     H246569   4.174   4.965   1.576
15443WAT      O46570   5.266   8.913   8.599
15443WAT     H146571   5.172   8.939   8.618
15443WAT     H246572   5.312   8.887   8.684
15444WAT      O46573   3.719   8.250   1.247
15444WAT     H146574   3.691   8.339   1.283
15444WAT     H246575   3.817   8.252   1.225
15445WAT      O46576   0.953   8.065   5.481
15445WAT     H146577   0.937   8.115   5.395
15445WAT     H246578   0.952   8.130   5.557
15446WAT      O46579   1.439   1.919   2.592
15446WAT     H146580   1.441   1.939   2.494
15446WAT     H246581   1.349   1.886   2.618
15447WAT      O46582   1.676   5.934   8.772
15447WAT     H146583   1.764   5.953   8.816
15447WAT     H246584   1.652   5.838   8.785
15448WAT      O46585   2.334   3.036   2.296
15448WAT     H146586   2.308   3.052   2.392
15448WAT     H246587   2.417   2.980   2.293
15449WAT      O46588   2.961   2.035   6.652
15449WAT     H146589   2.913   2.065   6.569
15449WAT     H246590   2.914   2.072   6.732
15450WAT      O46591   8.347   1.507   1.377
15450WAT     H146592   8.317   1.576   1.311
15450WAT     H246593   8.401   1.437   1.330
15451WAT      O46594   2.390   7.955   2.273
15451WAT     H146595   2.334   7.873   2.261
15451WAT     H246596   2.368   8.021   2.201
15452WAT      O46597   4.077   0.144   5.508
15452WAT     H146598   4.018   0.066   5.530
15452WAT     H246599   4.051   0.181   5.419
15453WAT      O46600   8.636   9.217   3.615
15453WAT     H146601   8.580   9.273   3.554
15453WAT     H246602   8.587   9.132   3.636
15454WAT      O46603   1.817   5.888   4.414
15454WAT     H146604   1.728   5.850   4.439
15454WAT     H246605   1.841   5.962   4.477
15455WAT      O46606   1.432   7.226   1.314
15455WAT     H146607   1.412   7.323   1.301
15455WAT     H246608   1.508   7.217   1.379
15456WAT      O46609   0.985   5.139   1.311
15456WAT     H146610   0.897   5.144   1.358
15456WAT     H246611   0.977   5.179   1.220
15457WAT      O46612   2.566   4.894   2.260
15457WAT     H146613   2.526   4.839   2.333
15457WAT     H246614   2.630   4.960   2.298
15458WAT      O46615   9.434   0.834   5.772
15458WAT     H146616   9.431   0.772   5.694
15458WAT     H246617   9.503   0.802   5.837
15459WAT      O46618   1.059   5.929   7.808
15459WAT     H146619   0.989   5.929   7.879
15459WAT     H246620   1.040   5.855   7.743
15460WAT      O46621   1.310   1.199   9.702
15460WAT     H146622   1.213   1.173   9.696
15460WAT     H246623   1.318   1.298   9.698
15461WAT      O46624   7.296   7.512   0.091
15461WAT     H146625   7.300   7.557   0.180
15461WAT     H246626   7.388   7.504   0.054
15462WAT      O46627   7.652   7.975   0.837
15462WAT     H146628   7.687   7.930   0.919
15462WAT     H246629   7.629   8.070   0.858
15463WAT      O46630   9.423   2.322   0.243
15463WAT     H146631   9.423   2.246   0.178
15463WAT     H246632   9.515   2.331   0.283
15464WAT      O46633   3.683   4.420   2.812
15464WAT     H146634   3.670   4.329   2.772
15464WAT     H246635   3.769   4.423   2.862
15465WAT      O46636   6.906   1.946   3.978
15465WAT     H146637   6.900   1.894   3.893
15465WAT     H246638   6.993   1.995   3.981
15466WAT      O46639   1.378   8.521   8.019
15466WAT     H146640   1.353   8.430   7.984
15466WAT     H246641   1.467   8.547   7.981
15467WAT      O46642   7.949   2.756   8.368
15467WAT     H146643   7.955   2.666   8.412
15467WAT     H246644   7.854   2.788   8.370
15468WAT      O46645   3.060   9.641   0.345
15468WAT     H146646   3.015   9.730   0.332
15468WAT     H246647   2.992   9.573   0.370
15469WAT      O46648   7.191   6.944   4.703
15469WAT     H146649   7.153   6.851   4.700
15469WAT     H246650   7.121   7.007   4.736
15470WAT      O46651   2.182   0.623   5.958
15470WAT     H146652   2.261   0.674   5.923
15470WAT     H246653   2.190   0.527   5.931
15471WAT      O46654   4.174   0.496   2.746
15471WAT     H146655   4.162   0.595   2.745
15471WAT     H246656   4.143   0.459   2.834
15472WAT      O46657   5.808   0.534   2.216
15472WAT     H146658   5.760   0.485   2.289
15472WAT     H246659   5.864   0.607   2.257
15473WAT      O46660   5.685   6.014   5.323
15473WAT     H146661   5.626   5.959   5.264
15473WAT     H246662   5.726   6.088   5.268
15474WAT      O46663   6.713   5.572   0.072
15474WAT     H146664   6.716   5.672   0.064
15474WAT     H246665   6.798   5.539   0.114
15475WAT      O46666   8.959   8.368   9.297
15475WAT     H146667   9.020   8.317   9.357
15475WAT     H246668   9.012   8.410   9.223
15476WAT      O46669   8.147   3.764   7.041
15476WAT     H146670   8.131   3.677   7.086
15476WAT     H246671   8.228   3.758   6.983
15477WAT      O46672   3.878   5.151   7.412
15477WAT     H146673   3.925   5.078   7.361
15477WAT     H246674   3.939   5.185   7.484
15478WAT      O46675   5.098   3.481   9.788
15478WAT     H146676   5.102   3.542   9.709
15478WAT     H246677   5.153   3.399   9.770
15479WAT      O46678   3.177   6.192   1.637
15479WAT     H146679   3.094   6.213   1.585
15479WAT     H246680   3.158   6.203   1.735
15480WAT      O46681   3.788   7.651   1.170
15480WAT     H146682   3.782   7.751   1.160
15480WAT     H246683   3.859   7.629   1.236
15481WAT      O46684   8.906   2.144   1.081
15481WAT     H146685   9.005   2.128   1.087
15481WAT     H246686   8.866   2.078   1.017
15482WAT      O46687   8.924   0.163   7.744
15482WAT     H146688   9.017   0.142   7.774
15482WAT     H246689   8.927   0.227   7.666
15483WAT      O46690   1.832   7.081   9.718
15483WAT     H146691   1.740   7.044   9.706
15483WAT     H246692   1.827   7.166   9.770
15484WAT      O46693   0.058   0.436   1.114
15484WAT     H146694   0.038   0.372   1.189
15484WAT     H246695   0.127   0.501   1.144
15485WAT      O46696   2.502   3.263   9.069
15485WAT     H146697   2.571   3.303   9.009
15485WAT     H246698   2.412   3.276   9.027
15486WAT      O46699   1.889   5.819   1.467
15486WAT     H146700   1.804   5.773   1.441
15486WAT     H246701   1.960   5.797   1.399
15487WAT      O46702   0.012   7.536   2.865
15487WAT     H146703   0.031   7.460   2.926
15487WAT     H246704   0.093   7.594   2.857
15488WAT      O46705   5.464   5.380   6.635
15488WAT     H146706   5.463   5.281   6.618
15488WAT     H246707   5.493   5.427   6.552
15489WAT      O46708   6.743   0.327   7.953
15489WAT     H146709   6.839   0.318   7.923
15489WAT     H246710   6.689   0.254   7.912
15490WAT      O46711   0.661   6.927   0.714
15490WAT     H146712   0.699   6.843   0.675
15490WAT     H246713   0.669   6.924   0.814
15491WAT      O46714   1.934   6.976   5.842
15491WAT     H146715   1.976   6.893   5.805
15491WAT     H246716   2.004   7.047   5.853
15492WAT      O46717   2.676   3.666   6.326
15492WAT     H146718   2.644   3.756   6.354
15492WAT     H246719   2.661   3.600   6.400
15493WAT      O46720   4.374   4.119   4.907
15493WAT     H146721   4.458   4.121   4.852
15493WAT     H246722   4.373   4.036   4.963
15494WAT      O46723   2.285   7.485   6.976
15494WAT     H146724   2.335   7.400   6.958
15494WAT     H246725   2.229   7.473   7.058
15495WAT      O46726   5.687   7.544   7.646
15495WAT     H146727   5.639   7.578   7.728
15495WAT     H246728   5.785   7.542   7.664
15496WAT      O46729   3.237   1.091   9.409
15496WAT     H146730   3.321   1.076   9.461
15496WAT     H246731   3.254   1.072   9.312
15497WAT      O46732   0.220   5.038   5.325
15497WAT     H146733   0.235   5.085   5.412
15497WAT     H246734   0.151   5.087   5.272
15498WAT      O46735   6.913   7.993   1.146
15498WAT     H146736   6.988   7.927   1.159
15498WAT     H246737   6.839   7.971   1.209
15499WAT      O46738   3.153   6.382   6.517
15499WAT     H146739   3.196   6.461   6.475
15499WAT     H246740   3.096   6.411   6.594
15500WAT      O46741   4.503   6.361   7.995
15500WAT     H146742   4.530   6.323   8.083
15500WAT     H246743   4.488   6.287   7.930
15501WAT      O46744   5.702   3.534   9.281
15501WAT     H146745   5.635   3.595   9.239
15501WAT     H246746   5.655   3.451   9.313
15502WAT      O46747   3.829   7.891   1.602
15502WAT     H146748   3.828   7.908   1.504
15502WAT     H246749   3.880   7.807   1.621
15503WAT      O46750   3.831   6.994   4.873
15503WAT     H146751   3.889   7.029   4.947
15503WAT     H246752   3.855   6.899   4.854
15504WAT      O46753   1.418   9.767   6.165
15504WAT     H146754   1.378   9.803   6.250
15504WAT     H246755   1.479   9.691   6.186
15505WAT      O46756   1.172   6.680   7.268
15505WAT     H146757   1.197   6.748   7.199
15505WAT     H246758   1.180   6.589   7.228
15506WAT      O46759   0.566   3.174   6.682
15506WAT     H146760   0.629   3.185   6.605
15506WAT     H246761   0.577   3.251   6.745
15507WAT      O46762   2.064   6.534   8.102
15507WAT     H146763   2.135   6.574   8.160
15507WAT     H246764   1.999   6.483   8.159
15508WAT      O46765   8.581   0.180   8.926
15508WAT     H146766   8.613   0.275   8.922
15508WAT     H246767   8.625   0.134   9.003
15509WAT      O46768   3.256   1.466   3.099
15509WAT     H146769   3.241   1.369   3.079
15509WAT     H246770   3.255   1.479   3.199
15510WAT      O46771   9.084   1.430   6.643
15510WAT     H146772   9.035   1.348   6.612
15510WAT     H246773   9.182   1.411   6.648
15511WAT      O46774   4.398   3.269   4.517
15511WAT     H146775   4.382   3.190   4.576
15511WAT     H246776   4.406   3.352   4.572
15512WAT      O46777   4.014   4.730   7.651
15512WAT     H146778   3.923   4.702   7.682
15512WAT     H246779   4.045   4.668   7.578
15513WAT      O46780   2.666   2.522   9.062
15513WAT     H146781   2.690   2.528   8.965
15513WAT     H246782   2.644   2.428   9.086
15514WAT      O46783   0.144   3.247   5.420
15514WAT     H146784   0.144   3.213   5.515
15514WAT     H246785   0.093   3.183   5.363
15515WAT      O46786   4.932   7.083   0.169
15515WAT     H146787   4.904   7.021   0.242
15515WAT     H246788   4.991   7.034   0.105
15516WAT      O46789   1.079   1.487   7.555
15516WAT     H146790   1.030   1.408   7.518
15516WAT     H246791   1.113   1.544   7.480
15517WAT      O46792   7.776   4.374   2.171
15517WAT     H146793   7.764   4.278   2.194
15517WAT     H246794   7.705   4.403   2.107
15518WAT      O46795   1.870   4.632   7.992
15518WAT     H146796   1.825   4.695   8.055
15518WAT     H246797   1.846   4.538   8.016
15519WAT      O46798   1.365   3.658   6.349
15519WAT     H146799   1.417   3.591   6.294
15519WAT     H246800   1.419   3.684   6.429
15520WAT      O46801   2.852   7.345   6.898
15520WAT     H146802   2.890   7.428   6.856
15520WAT     H246803   2.911   7.316   6.973
15521WAT      O46804   2.397   1.777   6.017
15521WAT     H146805   2.309   1.730   6.019
15521WAT     H246806   2.464   1.724   6.068
15522WAT      O46807   1.019   2.635   0.546
15522WAT     H146808   1.021   2.647   0.447
15522WAT     H246809   1.056   2.545   0.569
15523WAT      O46810   1.062   3.512   8.822
15523WAT     H146811   1.107   3.570   8.890
15523WAT     H246812   1.116   3.513   8.737
15524WAT      O46813   3.694   5.597   4.673
15524WAT     H146814   3.750   5.598   4.591
15524WAT     H246815   3.603   5.562   4.651
15525WAT      O46816   9.759   0.306   8.724
15525WAT     H146817   9.738   0.248   8.646
15525WAT     H246818   9.674   0.342   8.763
15526WAT      O46819   7.512   8.190   5.008
15526WAT     H146820   7.481   8.147   4.923
15526WAT     H246821   7.598   8.147   5.037
15527WAT      O46822   5.386   9.639   1.139
15527WAT     H146823   5.324   9.561   1.125
15527WAT     H246824   5.430   9.630   1.228
15528WAT      O46825   5.781   0.760   6.117
15528WAT     H146826   5.848   0.754   6.043
15528WAT     H246827   5.802   0.840   6.173
15529WAT      O46828   7.379   2.818   4.956
15529WAT     H146829   7.401   2.747   4.889
15529WAT     H246830   7.449   2.890   4.953
15530WAT      O46831   2.828   2.181   8.234
15530WAT     H146832   2.815   2.265   8.181
15530WAT     H246833   2.798   2.196   8.328
15531WAT      O46834   5.177   5.445   8.918
15531WAT     H146835   5.261   5.498   8.907
15531WAT     H246836   5.102   5.507   8.942
15532WAT      O46837   9.121   4.176   6.620
15532WAT     H146838   9.026   4.145   6.614
15532WAT     H246839   9.162   4.142   6.705
15533WAT      O46840   8.614   6.851   9.347
15533WAT     H146841   8.646   6.885   9.258
15533WAT     H246842   8.535   6.791   9.333
15534WAT      O46843   6.438   6.373   3.307
15534WAT     H146844   6.399   6.281   3.311
15534WAT     H246845   6.368   6.440   3.332
15535WAT      O46846   4.907   3.961   7.514
15535WAT     H146847   4.893   3.865   7.538
15535WAT     H246848   4.819   4.002   7.489
15536WAT      O46849   3.417   7.024   0.747
15536WAT     H146850   3.441   7.034   0.844
15536WAT     H246851   3.329   6.978   0.740
15537WAT      O46852   3.666   1.931   6.104
15537WAT     H146853   3.592   1.875   6.139
15537WAT     H246854   3.680   1.912   6.007
15538WAT      O46855   5.011   2.301   7.596
15538WAT     H146856   5.041   2.311   7.502
15538WAT     H246857   5.078   2.247   7.647
15539WAT      O46858   3.974   6.234   9.174
15539WAT     H146859   3.924   6.242   9.087
15539WAT     H246860   4.050   6.169   9.163
15540WAT      O46861   7.623   3.184   5.847
15540WAT     H146862   7.700   3.240   5.816
15540WAT     H246863   7.567   3.236   5.911
15541WAT      O46864   7.754   9.175   4.787
15541WAT     H146865   7.753   9.076   4.773
15541WAT     H246866   7.676   9.216   4.739
15542WAT      O46867   7.416   6.419   6.516
15542WAT     H146868   7.487   6.489   6.512
15542WAT     H246869   7.412   6.372   6.428
15543WAT      O46870   7.606   3.068   2.328
15543WAT     H146871   7.687   3.125   2.315
15543WAT     H246872   7.633   2.972   2.334
15544WAT      O46873   5.352   9.293   9.514
15544WAT     H146874   5.362   9.233   9.434
15544WAT     H246875   5.292   9.369   9.490
15545WAT      O46876   8.346   7.141   8.212
15545WAT     H146877   8.310   7.060   8.164
15545WAT     H246878   8.443   7.126   8.233
15546WAT      O46879   7.568   5.829   8.764
15546WAT     H146880   7.489   5.823   8.703
15546WAT     H246881   7.536   5.843   8.858
15547WAT      O46882   2.747   1.720   6.512
15547WAT     H146883   2.769   1.806   6.466
15547WAT     H246884   2.827   1.659   6.510
15548WAT      O46885   1.328   7.868   8.771
15548WAT     H146886   1.230   7.846   8.775
15548WAT     H246887   1.381   7.785   8.789
15549WAT      O46888   5.308   5.832   8.933
15549WAT     H146889   5.349   5.750   8.894
15549WAT     H246890   5.229   5.859   8.878
15550WAT      O46891   3.395   1.090   3.621
15550WAT     H146892   3.314   1.112   3.674
15550WAT     H246893   3.389   0.996   3.587
15551WAT      O46894   9.456   4.993   5.908
15551WAT     H146895   9.399   4.989   5.990
15551WAT     H246896   9.484   5.087   5.892
15552WAT      O46897   0.296   6.781   2.797
15552WAT     H146898   0.334   6.815   2.883
15552WAT     H246899   0.332   6.836   2.721
15553WAT      O46900   9.086   6.745   9.278
15553WAT     H146901   9.114   6.838   9.254
15553WAT     H246902   9.165   6.695   9.314
15554WAT      O46903   3.064   6.832   9.357
15554WAT     H146904   3.003   6.910   9.341
15554WAT     H246905   3.114   6.847   9.443
15555WAT      O46906   0.694   8.209   0.321
15555WAT     H146907   0.708   8.130   0.262
15555WAT     H246908   0.597   8.219   0.341
15556WAT      O46909   4.990   3.986   2.740
15556WAT     H146910   4.926   4.026   2.675
15556WAT     H246911   4.939   3.945   2.816
15557WAT      O46912   6.021   4.115   6.295
15557WAT     H146913   6.005   4.019   6.318
15557WAT     H246914   6.120   4.132   6.294
15558WAT      O46915   8.170   5.690   5.310
15558WAT     H146916   8.248   5.752   5.313
15558WAT     H246917   8.116   5.701   5.394
15559WAT      O46918   7.120   8.151   1.795
15559WAT     H146919   7.118   8.250   1.776
15559WAT     H246920   7.155   8.135   1.887
15560WAT      O46921   8.714   4.463   2.731
15560WAT     H146922   8.720   4.561   2.715
15560WAT     H246923   8.636   4.443   2.790
15561WAT      O46924   0.696   6.901   7.350
15561WAT     H146925   0.768   6.966   7.375
15561WAT     H246926   0.638   6.883   7.429
15562WAT      O46927   0.891   9.393   8.281
15562WAT     H146928   0.901   9.308   8.229
15562WAT     H246929   0.922   9.470   8.225
15563WAT      O46930   8.716   8.811   1.509
15563WAT     H146931   8.656   8.779   1.583
15563WAT     H246932   8.781   8.739   1.486
15564WAT      O46933   9.640   8.121   0.886
15564WAT     H146934   9.718   8.177   0.857
15564WAT     H246935   9.624   8.136   0.984
15565WAT      O46936   3.855   4.301   8.067
15565WAT     H146937   3.946   4.278   8.034
15565WAT     H246938   3.853   4.292   8.167
15566WAT      O46939   7.326   6.725   0.409
15566WAT     H146940   7.316   6.821   0.437
15566WAT     H246941   7.291   6.714   0.317
15567WAT      O46942   7.258   0.940   6.438
15567WAT     H146943   7.281   0.861   6.382
15567WAT     H246944   7.313   0.938   6.522
15568WAT      O46945   6.961   0.228   2.318
15568WAT     H146946   6.942   0.326   2.327
15568WAT     H246947   7.010   0.197   2.400
15569WAT      O46948   8.413   2.220   3.237
15569WAT     H146949   8.343   2.189   3.172
15569WAT     H246950   8.368   2.251   3.321
15570WAT      O46951   1.629   6.522   8.931
15570WAT     H146952   1.671   6.495   8.845
15570WAT     H246953   1.700   6.533   9.001
15571WAT      O46954   6.418   9.719   6.213
15571WAT     H146955   6.356   9.751   6.284
15571WAT     H246956   6.364   9.693   6.132
15572WAT      O46957   8.537   9.308   4.831
15572WAT     H146958   8.526   9.380   4.899
15572WAT     H246959   8.498   9.338   4.744
15573WAT      O46960   0.839   5.787   0.687
15573WAT     H146961   0.789   5.722   0.745
15573WAT     H246962   0.934   5.792   0.717
15574WAT      O46963   2.453   7.906   0.668
15574WAT     H146964   2.549   7.876   0.666
15574WAT     H246965   2.399   7.850   0.605
15575WAT      O46966   2.481   3.019   2.710
15575WAT     H146967   2.473   2.920   2.714
15575WAT     H246968   2.414   3.055   2.644
15576WAT      O46969   3.957   8.561   6.808
15576WAT     H146970   4.021   8.566   6.884
15576WAT     H246971   3.864   8.548   6.843
15577WAT      O46972   8.576   0.703   5.140
15577WAT     H146973   8.565   0.790   5.189
15577WAT     H246974   8.656   0.708   5.081
15578WAT      O46975   5.870   8.659   2.451
15578WAT     H146976   5.800   8.730   2.455
15578WAT     H246977   5.835   8.580   2.400
15579WAT      O46978   6.158   4.599   8.089
15579WAT     H146979   6.177   4.563   7.997
15579WAT     H246980   6.207   4.685   8.102
15580WAT      O46981   4.599   7.991   2.822
15580WAT     H146982   4.573   7.895   2.833
15580WAT     H246983   4.528   8.050   2.859
15581WAT      O46984   3.864   0.819   8.522
15581WAT     H146985   3.888   0.916   8.531
15581WAT     H246986   3.785   0.799   8.581
15582WAT      O46987   0.615   0.557   0.182
15582WAT     H146988   0.641   0.584   0.275
15582WAT     H246989   0.683   0.494   0.146
15583WAT      O46990   1.822   0.186   1.903
15583WAT     H146991   1.749   0.196   1.835
15583WAT     H246992   1.839   0.089   1.920
15584WAT      O46993   4.176   5.116   3.763
15584WAT     H146994   4.122   5.090   3.683
15584WAT     H246995   4.145   5.065   3.843
15585WAT      O46996   4.129   8.870   8.409
15585WAT     H146997   4.057   8.899   8.472
15585WAT     H246998   4.178   8.791   8.447
15586WAT      O46999   5.594   2.033   4.378
15586WAT     H147000   5.502   2.069   4.362
15586WAT     H247001   5.658   2.110   4.388
15587WAT      O47002   7.390   7.348   6.617
15587WAT     H147003   7.482   7.314   6.600
15587WAT     H247004   7.395   7.438   6.662
15588WAT      O47005   3.566   1.759   8.914
15588WAT     H147006   3.534   1.680   8.966
15588WAT     H247007   3.656   1.787   8.947
15589WAT      O47008   5.489   6.088   3.100
15589WAT     H147009   5.486   6.011   3.036
15589WAT     H247010   5.579   6.091   3.144
15590WAT      O47011   5.403   2.274   4.569
15590WAT     H147012   5.331   2.287   4.500
15590WAT     H247013   5.492   2.295   4.529
15591WAT      O47014   0.905   3.639   2.688
15591WAT     H147015   0.999   3.606   2.672
15591WAT     H247016   0.862   3.583   2.759
15592WAT      O47017   3.187   2.505   1.779
15592WAT     H147018   3.225   2.529   1.690
15592WAT     H247019   3.181   2.588   1.836
15593WAT      O47020   1.529   9.544   6.297
15593WAT     H147021   1.604   9.478   6.290
15593WAT     H247022   1.484   9.534   6.385
15594WAT      O47023   6.460   1.823   6.514
15594WAT     H147024   6.423   1.915   6.499
15594WAT     H247025   6.386   1.763   6.544
15595WAT      O47026   6.433   8.156   5.505
15595WAT     H147027   6.340   8.179   5.536
15595WAT     H247028   6.429   8.129   5.409
15596WAT      O47029   4.863   2.708   0.506
15596WAT     H147030   4.928   2.693   0.431
15596WAT     H247031   4.853   2.806   0.523
15597WAT      O47032   6.979   8.542   6.629
15597WAT     H147033   7.071   8.502   6.623
15597WAT     H247034   6.928   8.520   6.546
15598WAT      O47035   2.116   3.192   1.714
15598WAT     H147036   2.048   3.249   1.668
15598WAT     H247037   2.102   3.196   1.813
15599WAT      O47038   9.121   2.715   9.106
15599WAT     H147039   9.187   2.780   9.068
15599WAT     H247040   9.114   2.636   9.045
15600WAT      O47041   4.249   8.113   8.949
15600WAT     H147042   4.304   8.131   9.030
15600WAT     H247043   4.167   8.061   8.974
15601WAT      O47044   6.005   7.473   6.168
15601WAT     H147045   5.977   7.568   6.154
15601WAT     H247046   5.932   7.412   6.138
15602WAT      O47047   7.406   1.549   8.138
15602WAT     H147048   7.414   1.478   8.208
15602WAT     H247049   7.407   1.639   8.180
15603WAT      O47050   5.912   2.780   4.690
15603WAT     H147051   5.826   2.806   4.734
15603WAT     H247052   5.938   2.852   4.625
15604WAT      O47053   3.543   0.345   1.248
15604WAT     H147054   3.640   0.324   1.245
15604WAT     H247055   3.513   0.383   1.161
15605WAT      O47056   2.788   4.567   2.618
15605WAT     H147057   2.691   4.544   2.629
15605WAT     H247058   2.820   4.537   2.528
15606WAT      O47059   8.804   6.061   7.021
15606WAT     H147060   8.851   5.976   6.996
15606WAT     H247061   8.833   6.089   7.113
15607WAT      O47062   2.081   1.324   8.837
15607WAT     H147063   2.090   1.230   8.868
15607WAT     H247064   2.109   1.386   8.911
15608WAT      O47065   6.457   5.382   8.323
15608WAT     H147066   6.423   5.476   8.326
15608WAT     H247067   6.456   5.350   8.228
15609WAT      O47068   2.783   8.655   3.966
15609WAT     H147069   2.820   8.659   4.059
15609WAT     H247070   2.753   8.562   3.946
15610WAT      O47071   2.292   7.526   8.649
15610WAT     H147072   2.347   7.449   8.681
15610WAT     H247073   2.331   7.611   8.685
15611WAT      O47074   6.704   7.056   0.768
15611WAT     H147075   6.794   7.094   0.751
15611WAT     H247076   6.659   7.034   0.681
15612WAT      O47077   9.191   7.374   2.459
15612WAT     H147078   9.235   7.330   2.381
15612WAT     H247079   9.261   7.407   2.523
15613WAT      O47080   5.033   6.578   7.224
15613WAT     H147081   5.064   6.611   7.135
15613WAT     H247082   4.935   6.595   7.233
15614WAT      O47083   9.207   2.316   3.064
15614WAT     H147084   9.269   2.331   3.141
15614WAT     H247085   9.173   2.222   3.066
15615WAT      O47086   7.025   1.388   2.743
15615WAT     H147087   7.009   1.420   2.836
15615WAT     H247088   7.001   1.291   2.736
15616WAT      O47089   2.267   7.344   8.899
15616WAT     H147090   2.353   7.333   8.949
15616WAT     H247091   2.248   7.441   8.887
15617WAT      O47092   7.052   9.584   1.879
15617WAT     H147093   7.109   9.664   1.897
15617WAT     H247094   7.004   9.557   1.962
15618WAT      O47095   7.283   7.316   4.013
15618WAT     H147096   7.358   7.278   3.959
15618WAT     H247097   7.240   7.391   3.961
15619WAT      O47098   2.481   6.200   9.751
15619WAT     H147099   2.487   6.299   9.747
15619WAT     H247100   2.573   6.161   9.754
15620WAT      O47101   3.067   1.514   3.816
15620WAT     H147102   2.979   1.552   3.787
15620WAT     H247103   3.059   1.475   3.907
15621WAT      O47104   1.096   7.900   4.402
15621WAT     H147105   1.093   7.818   4.460
15621WAT     H247106   1.157   7.968   4.443
15622WAT      O47107   9.350   2.933   5.632
15622WAT     H147108   9.280   2.976   5.689
15622WAT     H247109   9.371   2.993   5.554
15623WAT      O47110   2.036   3.375   5.182
15623WAT     H147111   2.132   3.373   5.208
15623WAT     H247112   2.028   3.358   5.083
15624WAT      O47113   7.587   5.513   6.678
15624WAT     H147114   7.496   5.475   6.659
15624WAT     H247115   7.643   5.443   6.722
15625WAT      O47116   3.611   6.849   9.227
15625WAT     H147117   3.621   6.750   9.226
15625WAT     H247118   3.697   6.891   9.254
15626WAT      O47119   2.112   8.540   2.670
15626WAT     H147120   2.102   8.441   2.682
15626WAT     H247121   2.024   8.579   2.642
15627WAT      O47122   4.162   5.471   5.104
15627WAT     H147123   4.213   5.424   5.176
15627WAT     H247124   4.102   5.540   5.145
15628WAT      O47125   5.026   2.498   4.600
15628WAT     H147126   5.046   2.452   4.686
15628WAT     H247127   4.928   2.493   4.582
15629WAT      O47128   3.433   7.739   9.781
15629WAT     H147129   3.439   7.642   9.805
15629WAT     H247130   3.502   7.790   9.833
15630WAT      O47131   1.001   6.626   1.828
15630WAT     H147132   1.071   6.684   1.869
15630WAT     H247133   0.911   6.652   1.864
15631WAT      O47134   9.800   0.710   1.242
15631WAT     H147135   9.745   0.638   1.201
15631WAT     H247136   9.777   0.717   1.340
15632WAT      O47137   4.775   6.840   0.836
15632WAT     H147138   4.847   6.776   0.865
15632WAT     H247139   4.789   6.864   0.740
15633WAT      O47140   2.724   3.100   7.229
15633WAT     H147141   2.784   3.144   7.161
15633WAT     H247142   2.776   3.030   7.277
15634WAT      O47143   4.891   8.609   1.017
15634WAT     H147144   4.974   8.567   1.054
15634WAT     H247145   4.824   8.619   1.091
15635WAT      O47146   1.283   7.168   6.727
15635WAT     H147147   1.316   7.250   6.773
15635WAT     H247148   1.317   7.167   6.633
15636WAT      O47149   8.292   7.404   3.315
15636WAT     H147150   8.209   7.358   3.285
15636WAT     H247151   8.360   7.336   3.343
15637WAT      O47152   6.474   1.917   8.438
15637WAT     H147153   6.569   1.889   8.427
15637WAT     H247154   6.435   1.872   8.518
15638WAT      O47155   5.881   5.765   8.088
15638WAT     H147156   5.937   5.772   8.170
15638WAT     H247157   5.797   5.819   8.100
15639WAT      O47158   9.619   3.183   5.165
15639WAT     H147159   9.717   3.203   5.165
15639WAT     H247160   9.568   3.268   5.148
15640WAT      O47161   8.212   0.988   0.655
15640WAT     H147162   8.177   0.903   0.615
15640WAT     H247163   8.243   0.972   0.748
15641WAT      O47164   6.850   6.467   3.572
15641WAT     H147165   6.930   6.441   3.626
15641WAT     H247166   6.767   6.453   3.625
15642WAT      O47167   1.891   0.737   8.265
15642WAT     H147168   1.828   0.685   8.323
15642WAT     H247169   1.905   0.828   8.304
15643WAT      O47170   5.099   4.929   9.549
15643WAT     H147171   5.106   4.832   9.525
15643WAT     H247172   5.021   4.942   9.610
15644WAT      O47173   3.794   8.079   0.792
15644WAT     H147174   3.855   8.004   0.819
15644WAT     H247175   3.744   8.111   0.872
15645WAT      O47176   3.367   5.278   9.503
15645WAT     H147177   3.283   5.248   9.547
15645WAT     H247178   3.360   5.376   9.481
15646WAT      O47179   1.273   4.152   3.926
15646WAT     H147180   1.283   4.057   3.956
15646WAT     H247181   1.363   4.195   3.920
15647WAT      O47182   9.514   1.661   8.488
15647WAT     H147183   9.595   1.611   8.518
15647WAT     H247184   9.432   1.605   8.505
15648WAT      O47185   6.854   9.796   9.444
15648WAT     H147186   6.943   9.755   9.466
15648WAT     H247187   6.790   9.780   9.520
15649WAT      O47188   5.200   2.044   2.402
15649WAT     H147189   5.205   1.980   2.325
15649WAT     H247190   5.112   2.034   2.448
15650WAT      O47191   0.663   3.598   9.596
15650WAT     H147192   0.572   3.637   9.582
15650WAT     H247193   0.715   3.657   9.657
15651WAT      O47194   4.536   3.428   3.068
15651WAT     H147195   4.609   3.360   3.058
15651WAT     H247196   4.571   3.519   3.047
15652WAT      O47197   3.339   8.773   7.182
15652WAT     H147198   3.315   8.706   7.252
15652WAT     H247199   3.259   8.829   7.162
15653WAT      O47200   6.529   1.592   7.756
15653WAT     H147201   6.446   1.568   7.808
15653WAT     H247202   6.519   1.683   7.717
15654WAT      O47203   1.283   6.058   0.649
15654WAT     H147204   1.290   6.127   0.722
15654WAT     H247205   1.187   6.034   0.636
15655WAT      O47206   6.795   6.299   2.851
15655WAT     H147207   6.762   6.215   2.808
15655WAT     H247208   6.729   6.329   2.921
15656WAT      O47209   3.794   0.346   5.504
15656WAT     H147210   3.779   0.439   5.538
15656WAT     H247211   3.803   0.283   5.581
15657WAT      O47212   7.130   7.748   9.217
15657WAT     H147213   7.224   7.741   9.183
15657WAT     H247214   7.131   7.756   9.317
15658WAT      O47215   9.833   6.172   1.300
15658WAT     H147216   9.885   6.253   1.272
15658WAT     H247217   9.777   6.140   1.224
15659WAT      O47218   6.768   2.614   1.692
15659WAT     H147219   6.740   2.520   1.709
15659WAT     H247220   6.868   2.619   1.697
15660WAT      O47221   5.135   2.497   5.914
15660WAT     H147222   5.148   2.570   5.848
15660WAT     H247223   5.220   2.445   5.924
15661WAT      O47224   6.711   6.051   0.389
15661WAT     H147225   6.781   6.028   0.321
15661WAT     H247226   6.735   6.008   0.476
15662WAT      O47227   4.111   9.125   0.614
15662WAT     H147228   4.190   9.132   0.675
15662WAT     H247229   4.119   9.042   0.558
15663WAT      O47230   1.606   0.005   1.980
15663WAT     H147231   1.596   0.053   2.067
15663WAT     H247232   1.516  -0.010   1.939
15664WAT      O47233   5.390   4.085   6.536
15664WAT     H147234   5.311   4.027   6.517
15664WAT     H247235   5.473   4.038   6.505
15665WAT      O47236   8.356   3.680   1.185
15665WAT     H147237   8.302   3.764   1.180
15665WAT     H247238   8.315   3.610   1.126
15666WAT      O47239   1.253   5.333   3.229
15666WAT     H147240   1.184   5.294   3.168
15666WAT     H247241   1.260   5.431   3.212
15667WAT      O47242   0.763   8.477   7.051
15667WAT     H147243   0.776   8.559   7.107
15667WAT     H247244   0.798   8.494   6.959
15668WAT      O47245   9.640   7.106   3.264
15668WAT     H147246   9.667   7.065   3.177
15668WAT     H247247   9.651   7.040   3.338
15669WAT      O47248   2.270   4.010   0.593
15669WAT     H147249   2.262   3.957   0.508
15669WAT     H247250   2.198   3.981   0.656
15670WAT      O47251   6.813   5.844   5.051
15670WAT     H147252   6.900   5.795   5.040
15670WAT     H247253   6.813   5.891   5.139
15671WAT      O47254   6.955   5.428   7.769
15671WAT     H147255   6.992   5.448   7.860
15671WAT     H247256   6.911   5.510   7.732
15672WAT      O47257   9.658   0.175   9.505
15672WAT     H147258   9.740   0.191   9.560
15672WAT     H247259   9.670   0.217   9.415
15673WAT      O47260   6.860   3.960   7.305
15673WAT     H147261   6.804   4.043   7.307
15673WAT     H247262   6.954   3.984   7.281
15674WAT      O47263   8.244   7.614   0.121
15674WAT     H147264   8.237   7.606   0.022
15674WAT     H247265   8.222   7.526   0.164
15675WAT      O47266   1.200   0.469   5.552
15675WAT     H147267   1.281   0.443   5.605
15675WAT     H247268   1.169   0.391   5.497
15676WAT      O47269   2.869   0.632   8.164
15676WAT     H147270   2.913   0.720   8.182
15676WAT     H247271   2.771   0.640   8.182
15677WAT      O47272   7.530   6.550   3.986
15677WAT     H147273   7.458   6.548   3.916
15677WAT     H247274   7.534   6.461   4.031
15678WAT      O47275   7.952   1.186   0.345
15678WAT     H147276   7.981   1.111   0.405
15678WAT     H247277   7.940   1.151   0.252
15679WAT      O47278   2.085   1.531   2.212
15679WAT     H147279   2.111   1.434   2.217
15679WAT     H247280   2.126   1.581   2.288
15680WAT      O47281   5.460   8.070   8.552
15680WAT     H147282   5.381   8.026   8.595
15680WAT     H247283   5.496   8.011   8.480
15681WAT      O47284   0.401   2.075   1.181
15681WAT     H147285   0.425   2.141   1.253
15681WAT     H247286   0.302   2.062   1.180
15682WAT      O47287   8.110   7.049   8.346
15682WAT     H147288   8.101   6.965   8.293
15682WAT     H247289   8.187   7.103   8.312
15683WAT      O47290   9.460   6.368   4.665
15683WAT     H147291   9.433   6.390   4.759
15683WAT     H247292   9.455   6.451   4.610
15684WAT      O47293   9.149   4.684   2.281
15684WAT     H147294   9.105   4.699   2.369
15684WAT     H247295   9.213   4.607   2.288
15685WAT      O47296   5.720   4.368   3.909
15685WAT     H147297   5.637   4.379   3.854
15685WAT     H247298   5.723   4.276   3.948
15686WAT      O47299   3.319   3.283   2.751
15686WAT     H147300   3.306   3.230   2.667
15686WAT     H247301   3.288   3.377   2.736
15687WAT      O47302   6.318   7.750   9.043
15687WAT     H147303   6.389   7.796   8.990
15687WAT     H247304   6.349   7.738   9.137
15688WAT      O47305   1.292   2.588   4.869
15688WAT     H147306   1.265   2.574   4.774
15688WAT     H247307   1.282   2.502   4.920
15689WAT      O47308   0.679   0.931   0.160
15689WAT     H147309   0.608   0.868   0.127
15689WAT     H247310   0.637   1.000   0.220
15690WAT      O47311   3.761   5.332   1.145
15690WAT     H147312   3.842   5.384   1.169
15690WAT     H247313   3.701   5.387   1.088
15691WAT      O47314   6.979   8.502   2.831
15691WAT     H147315   7.079   8.509   2.823
15691WAT     H247316   6.951   8.407   2.819
15692WAT      O47317   4.993   5.074   7.541
15692WAT     H147318   4.949   5.143   7.599
15692WAT     H247319   4.933   5.052   7.464
15693WAT      O47320   9.443   1.164   2.922
15693WAT     H147321   9.541   1.145   2.915
15693WAT     H247322   9.426   1.261   2.906
15694WAT      O47323   7.981   4.589   7.095
15694WAT     H147324   8.041   4.647   7.150
15694WAT     H247325   7.998   4.493   7.118
15695WAT      O47326   1.730   1.694   6.639
15695WAT     H147327   1.637   1.701   6.602
15695WAT     H247328   1.752   1.598   6.655
15696WAT      O47329   0.595   0.372   6.644
15696WAT     H147330   0.564   0.420   6.726
15696WAT     H247331   0.653   0.433   6.590
15697WAT      O47332   5.496   3.415   3.798
15697WAT     H147333   5.456   3.406   3.707
15697WAT     H247334   5.510   3.512   3.819
15698WAT      O47335   4.681   7.249   8.078
15698WAT     H147336   4.686   7.270   7.980
15698WAT     H247337   4.592   7.278   8.113
15699WAT      O47338   1.210   3.117   6.140
15699WAT     H147339   1.167   3.164   6.063
15699WAT     H247340   1.230   3.022   6.114
15700WAT      O47341   1.043   9.007   9.192
15700WAT     H147342   1.063   8.941   9.120
15700WAT     H247343   1.092   8.981   9.275
15701WAT      O47344   2.530   9.710   5.660
15701WAT     H147345   2.517   9.623   5.613
15701WAT     H247346   2.593   9.699   5.736
15702WAT      O47347   4.642   2.809   3.950
15702WAT     H147348   4.592   2.870   4.011
15702WAT     H247349   4.707   2.862   3.896
15703WAT      O47350   3.620   4.994   7.493
15703WAT     H147351   3.693   5.003   7.561
15703WAT     H247352   3.630   5.064   7.423
15704WAT      O47353   1.901   0.623   4.137
15704WAT     H147354   1.881   0.531   4.171
15704WAT     H247355   1.990   0.622   4.090
15705WAT      O47356   9.554   3.021   3.279
15705WAT     H147357   9.570   3.080   3.200
15705WAT     H247358   9.513   3.075   3.353
15706WAT      O47359   8.493   4.967   7.330
15706WAT     H147360   8.519   4.948   7.235
15706WAT     H247361   8.556   5.035   7.368
15707WAT      O47362   2.809   3.316   5.298
15707WAT     H147363   2.877   3.267   5.353
15707WAT     H247364   2.849   3.401   5.263
15708WAT      O47365   6.487   8.374   3.960
15708WAT     H147366   6.548   8.451   3.940
15708WAT     H247367   6.405   8.381   3.904
15709WAT      O47368   0.692   6.426   1.090
15709WAT     H147369   0.657   6.335   1.069
15709WAT     H247370   0.617   6.492   1.085
15710WAT      O47371   5.258   6.816   9.417
15710WAT     H147372   5.193   6.788   9.488
15710WAT     H247373   5.317   6.738   9.394
15711WAT      O47374   1.316   9.115   4.249
15711WAT     H147375   1.271   9.052   4.312
15711WAT     H247376   1.333   9.069   4.162
15712WAT      O47377   5.232   0.410   4.260
15712WAT     H147378   5.182   0.326   4.237
15712WAT     H247379   5.246   0.414   4.359
15713WAT      O47380   6.647   2.520   4.851
15713WAT     H147381   6.666   2.485   4.943
15713WAT     H247382   6.582   2.460   4.806
15714WAT      O47383   6.298   6.399   8.725
15714WAT     H147384   6.360   6.471   8.757
15714WAT     H247385   6.204   6.433   8.725
15715WAT      O47386   7.610   6.842   3.920
15715WAT     H147387   7.558   6.757   3.934
15715WAT     H247388   7.679   6.851   3.992
15716WAT      O47389   2.419   7.489   2.975
15716WAT     H147390   2.444   7.521   3.066
15716WAT     H247391   2.438   7.561   2.908
15717WAT      O47392   5.539   0.485   3.143
15717WAT     H147393   5.615   0.506   3.204
15717WAT     H247394   5.573   0.470   3.050
15718WAT      O47395   7.493   0.155   6.676
15718WAT     H147396   7.552   0.123   6.602
15718WAT     H247397   7.467   0.078   6.734
15719WAT      O47398   8.042   4.435   0.071
15719WAT     H147399   8.087   4.516   0.033
15719WAT     H247400   7.954   4.461   0.111
15720WAT      O47401   1.559   1.010   4.717
15720WAT     H147402   1.596   0.931   4.668
15720WAT     H247403   1.608   1.022   4.803
15721WAT      O47404   6.103   0.406   0.865
15721WAT     H147405   6.058   0.460   0.795
15721WAT     H247406   6.194   0.444   0.884
15722WAT      O47407   6.752   8.246   6.939
15722WAT     H147408   6.660   8.237   6.976
15722WAT     H247409   6.751   8.304   6.858
15723WAT      O47410   3.908   7.890   4.206
15723WAT     H147411   3.957   7.976   4.190
15723WAT     H247412   3.851   7.898   4.287
15724WAT      O47413   8.450   0.038   3.813
15724WAT     H147414   8.400   0.085   3.741
15724WAT     H247415   8.530  -0.008   3.774
15725WAT      O47416   7.321   6.369   1.970
15725WAT     H147417   7.407   6.419   1.963
15725WAT     H247418   7.245   6.432   1.951
15726WAT      O47419   7.090   7.219   1.268
15726WAT     H147420   7.143   7.163   1.331
15726WAT     H247421   7.152   7.261   1.201
15727WAT      O47422   7.764   5.567   5.137
15727WAT     H147423   7.770   5.472   5.168
15727WAT     H247424   7.848   5.591   5.088
15728WAT      O47425   2.837   8.166   7.662
15728WAT     H147426   2.878   8.249   7.623
15728WAT     H247427   2.899   8.089   7.649
15729WAT      O47428   0.229   1.666   5.865
15729WAT     H147429   0.310   1.707   5.907
15729WAT     H247430   0.192   1.729   5.797
15730WAT      O47431   1.382   1.232   4.673
15730WAT     H147432   1.290   1.202   4.699
15730WAT     H247433   1.447   1.158   4.693
15731WAT      O47434   4.069   1.343   2.560
15731WAT     H147435   4.071   1.437   2.594
15731WAT     H247436   3.977   1.306   2.570
15732WAT      O47437   6.967   7.752   4.237
15732WAT     H147438   7.000   7.658   4.223
15732WAT     H247439   6.920   7.758   4.326
15733WAT      O47440   4.435   6.065   3.116
15733WAT     H147441   4.336   6.052   3.124
15733WAT     H247442   4.465   6.132   3.184
15734WAT      O47443   5.073   8.001   2.755
15734WAT     H147444   5.021   8.079   2.720
15734WAT     H247445   5.034   7.916   2.718
15735WAT      O47446   4.156   0.075   4.754
15735WAT     H147447   4.057   0.071   4.767
15735WAT     H247448   4.180   0.166   4.719
15736WAT      O47449   0.042   8.519   3.326
15736WAT     H147450   0.010   8.612   3.311
15736WAT     H247451   0.126   8.504   3.274
15737WAT      O47452   5.867   5.723   5.113
15737WAT     H147453   5.939   5.714   5.181
15737WAT     H247454   5.861   5.819   5.084
15738WAT      O47455   6.927   7.263   2.429
15738WAT     H147456   6.950   7.359   2.416
15738WAT     H247457   6.855   7.237   2.365
15739WAT      O47458   2.979   9.381   7.519
15739WAT     H147459   2.998   9.314   7.590
15739WAT     H247460   2.922   9.454   7.556
15740WAT      O47461   3.894   1.700   5.406
15740WAT     H147462   3.845   1.705   5.493
15740WAT     H247463   3.876   1.782   5.352
15741WAT      O47464   7.240   5.051   7.417
15741WAT     H147465   7.182   5.013   7.488
15741WAT     H247466   7.336   5.034   7.438
15742WAT      O47467   8.402   8.829   5.079
15742WAT     H147468   8.477   8.871   5.029
15742WAT     H247469   8.329   8.896   5.093
15743WAT      O47470   3.196   8.672   9.700
15743WAT     H147471   3.141   8.738   9.750
15743WAT     H247472   3.150   8.583   9.700
15744WAT      O47473   3.694   0.673   8.343
15744WAT     H147474   3.687   0.687   8.244
15744WAT     H247475   3.738   0.753   8.384
15745WAT      O47476   6.244   2.842   2.752
15745WAT     H147477   6.154   2.868   2.786
15745WAT     H247478   6.292   2.923   2.719
15746WAT      O47479   7.411   4.983   3.009
15746WAT     H147480   7.351   5.016   3.082
15746WAT     H247481   7.494   4.944   3.049
15747WAT      O47482   1.414   2.701   4.531
15747WAT     H147483   1.446   2.711   4.437
15747WAT     H247484   1.346   2.771   4.552
15748WAT      O47485   1.998   5.796   7.799
15748WAT     H147486   2.097   5.800   7.812
15748WAT     H247487   1.962   5.888   7.786
15749WAT      O47488   8.648   3.989   5.955
15749WAT     H147489   8.699   3.927   6.015
15749WAT     H247490   8.656   4.083   5.989
15750WAT      O47491   7.377   4.465   8.078
15750WAT     H147492   7.413   4.381   8.038
15750WAT     H247493   7.315   4.442   8.154
15751WAT      O47494   2.067   5.119   2.987
15751WAT     H147495   2.141   5.070   2.940
15751WAT     H247496   2.105   5.200   3.033
15752WAT      O47497   0.887   7.950   4.205
15752WAT     H147498   0.946   7.982   4.279
15752WAT     H247499   0.934   7.959   4.117
15753WAT      O47500   5.799   4.831   8.229
15753WAT     H147501   5.785   4.784   8.142
15753WAT     H247502   5.891   4.810   8.263
15754WAT      O47503   8.218   9.816   1.712
15754WAT     H147504   8.257   9.758   1.784
15754WAT     H247505   8.125   9.843   1.737
15755WAT      O47506   0.359   1.692   4.262
15755WAT     H147507   0.356   1.697   4.162
15755WAT     H247508   0.454   1.693   4.293
15756WAT      O47509   8.548   6.700   5.776
15756WAT     H147510   8.472   6.726   5.717
15756WAT     H247511   8.529   6.610   5.815
15757WAT      O47512   6.925   2.284   5.687
15757WAT     H147513   6.938   2.233   5.772
15757WAT     H247514   6.983   2.246   5.615
15758WAT      O47515   8.664   4.200   2.168
15758WAT     H147516   8.612   4.285   2.162
15758WAT     H247517   8.762   4.222   2.163
15759WAT      O47518   5.729   4.335   7.059
15759WAT     H147519   5.670   4.399   7.109
15759WAT     H247520   5.801   4.386   7.013
15760WAT      O47521   3.270   1.732   5.061
15760WAT     H147522   3.330   1.653   5.072
15760WAT     H247523   3.209   1.738   5.140
15761WAT      O47524   6.732   5.967   9.083
15761WAT     H147525   6.657   6.014   9.128
15761WAT     H247526   6.727   5.869   9.103
15762WAT      O47527   0.861   4.324   1.608
15762WAT     H147528   0.925   4.354   1.678
15762WAT     H247529   0.818   4.238   1.636
15763WAT      O47530   1.232   3.377   5.048
15763WAT     H147531   1.303   3.308   5.040
15763WAT     H247532   1.262   3.449   5.111
15764WAT      O47533   8.132   5.737   1.442
15764WAT     H147534   8.087   5.823   1.469
15764WAT     H247535   8.126   5.672   1.518
15765WAT      O47536   8.453   1.756   0.466
15765WAT     H147537   8.381   1.707   0.514
15765WAT     H247538   8.532   1.696   0.452
15766WAT      O47539   6.757   0.050   3.465
15766WAT     H147540   6.804   0.107   3.398
15766WAT     H247541   6.808  -0.036   3.477
15767WAT      O47542   0.988   7.803   1.778
15767WAT     H147543   1.007   7.862   1.700
15767WAT     H247544   0.907   7.835   1.826
15768WAT      O47545   2.850   4.577   3.347
15768WAT     H147546   2.801   4.518   3.283
15768WAT     H247547   2.897   4.521   3.415
15769WAT      O47548   9.879   6.096   6.033
15769WAT     H147549   9.798   6.118   5.979
15769WAT     H247550   9.919   6.011   6.000
15770WAT      O47551   9.329   4.625   3.021
15770WAT     H147552   9.368   4.559   2.957
15770WAT     H247553   9.232   4.637   3.000
15771WAT      O47554   0.466   1.625   5.660
15771WAT     H147555   0.465   1.583   5.751
15771WAT     H247556   0.530   1.575   5.601
15772WAT      O47557   4.640   8.906   8.017
15772WAT     H147558   4.681   8.996   8.007
15772WAT     H247559   4.545   8.915   8.045
15773WAT      O47560   7.036   5.667   4.339
15773WAT     H147561   7.041   5.706   4.432
15773WAT     H247562   7.044   5.741   4.272
15774WAT      O47563   7.595   0.639   2.539
15774WAT     H147564   7.670   0.704   2.530
15774WAT     H247565   7.508   0.686   2.518
15775WAT      O47566   4.506   4.107   6.890
15775WAT     H147567   4.599   4.109   6.927
15775WAT     H247568   4.498   4.034   6.823
15776WAT      O47569   4.004   2.549   7.004
15776WAT     H147570   3.924   2.501   7.042
15776WAT     H247571   4.077   2.483   6.986
15777WAT      O47572   7.769   8.675   4.460
15777WAT     H147573   7.830   8.623   4.520
15777WAT     H247574   7.719   8.742   4.514
15778WAT      O47575   3.154   5.223   7.600
15778WAT     H147576   3.104   5.151   7.552
15778WAT     H247577   3.226   5.182   7.656
15779WAT      O47578   5.428   3.882   3.710
15779WAT     H147579   5.494   3.934   3.655
15779WAT     H247580   5.349   3.940   3.730
15780WAT      O47581   5.232   8.542   6.229
15780WAT     H147582   5.203   8.634   6.258
15780WAT     H247583   5.242   8.540   6.130
15781WAT      O47584   5.164   9.645   6.863
15781WAT     H147585   5.250   9.696   6.856
15781WAT     H247586   5.172   9.576   6.934
15782WAT      O47587   7.584   9.751   5.267
15782WAT     H147588   7.554   9.670   5.317
15782WAT     H247589   7.593   9.828   5.330
15783WAT      O47590   9.775   7.850   4.753
15783WAT     H147591   9.695   7.892   4.796
15783WAT     H247592   9.835   7.813   4.823
15784WAT      O47593   6.916   4.587   6.147
15784WAT     H147594   6.922   4.686   6.159
15784WAT     H247595   6.851   4.566   6.074
15785WAT      O47596   6.911   4.322   6.382
15785WAT     H147597   6.971   4.271   6.443
15785WAT     H247598   6.864   4.394   6.433
15786WAT      O47599   8.251   3.185   4.303
15786WAT     H147600   8.224   3.244   4.227
15786WAT     H247601   8.324   3.124   4.273
15787WAT      O47602   0.995   9.619   5.209
15787WAT     H147603   0.979   9.521   5.206
15787WAT     H247604   1.053   9.646   5.133
15788WAT      O47605   6.162   5.415   2.801
15788WAT     H147606   6.105   5.497   2.814
15788WAT     H247607   6.206   5.420   2.711
15789WAT      O47608   6.092   9.076   9.410
15789WAT     H147609   6.131   9.139   9.477
15789WAT     H247610   6.005   9.112   9.377
15790WAT      O47611   4.333   9.526   3.462
15790WAT     H147612   4.376   9.593   3.401
15790WAT     H247613   4.322   9.440   3.413
15791WAT      O47614   2.149   9.377   7.655
15791WAT     H147615   2.226   9.336   7.607
15791WAT     H247616   2.124   9.320   7.734
15792WAT      O47617   2.342   9.732   4.478
15792WAT     H147618   2.324   9.720   4.575
15792WAT     H247619   2.440   9.718   4.461
15793WAT      O47620   6.109   9.766   3.106
15793WAT     H147621   6.023   9.745   3.152
15793WAT     H247622   6.180   9.706   3.141
15794WAT      O47623   6.351   8.402   6.428
15794WAT     H147624   6.331   8.460   6.348
15794WAT     H247625   6.417   8.332   6.402
15795WAT      O47626   1.793   4.568   6.808
15795WAT     H147627   1.878   4.610   6.777
15795WAT     H247628   1.767   4.494   6.746
15796WAT      O47629   1.436   1.625   5.486
15796WAT     H147630   1.452   1.661   5.578
15796WAT     H247631   1.392   1.696   5.430
15797WAT      O47632   5.574   9.768   6.692
15797WAT     H147633   5.531   9.757   6.602
15797WAT     H247634   5.568   9.682   6.743
15798WAT      O47635   6.745   4.506   6.482
15798WAT     H147636   6.653   4.475   6.505
15798WAT     H247637   6.741   4.595   6.438
15799WAT      O47638   3.352   4.922   7.495
15799WAT     H147639   3.446   4.954   7.509
15799WAT     H247640   3.310   4.973   7.420
15800WAT      O47641   9.243   1.023   5.698
15800WAT     H147642   9.323   0.971   5.729
15800WAT     H247643   9.269   1.081   5.621
15801WAT      O47644   5.502   9.136   6.749
15801WAT     H147645   5.406   9.162   6.762
15801WAT     H247646   5.518   9.120   6.651
15802WAT      O47647   9.312   0.138   3.446
15802WAT     H147648   9.265   0.112   3.361
15802WAT     H247649   9.370   0.063   3.476
15803WAT      O47650   5.150   6.613   3.565
15803WAT     H147651   5.235   6.571   3.535
15803WAT     H247652   5.162   6.653   3.656
15804WAT      O47653   1.058   6.841   0.615
15804WAT     H147654   1.152   6.807   0.624
15804WAT     H247655   0.994   6.768   0.638
15805WAT      O47656   0.327   8.482   0.366
15805WAT     H147657   0.410   8.522   0.326
15805WAT     H247658   0.313   8.518   0.458
15806WAT      O47659   0.202   1.821   6.589
15806WAT     H147660   0.267   1.811   6.663
15806WAT     H247661   0.123   1.875   6.620
15807WAT      O47662   7.316   1.185   9.439
15807WAT     H147663   7.376   1.138   9.503
15807WAT     H247664   7.224   1.192   9.479
15808WAT      O47665   8.311   4.374   7.219
15808WAT     H147666   8.268   4.450   7.171
15808WAT     H247667   8.243   4.326   7.274
15809WAT      O47668   2.321   9.397   3.237
15809WAT     H147669   2.270   9.384   3.152
15809WAT     H247670   2.368   9.312   3.261
15810WAT      O47671   4.962   7.552   8.916
15810WAT     H147672   4.966   7.639   8.867
15810WAT     H247673   4.979   7.477   8.853
15811WAT      O47674   3.546   8.618   0.650
15811WAT     H147675   3.495   8.701   0.629
15811WAT     H247676   3.577   8.575   0.565
15812WAT      O47677   9.600   1.105   7.355
15812WAT     H147678   9.645   1.165   7.421
15812WAT     H247679   9.617   1.140   7.262
15813WAT      O47680   4.632   3.700   9.000
15813WAT     H147681   4.651   3.608   9.035
15813WAT     H247682   4.607   3.760   9.077
15814WAT      O47683   4.635   4.267   9.442
15814WAT     H147684   4.722   4.317   9.445
15814WAT     H247685   4.621   4.229   9.351
15815WAT      O47686   1.332   4.064   7.578
15815WAT     H147687   1.299   4.158   7.578
15815WAT     H247688   1.270   4.007   7.631
15816WAT      O47689   0.613   4.623   4.200
15816WAT     H147690   0.658   4.542   4.240
15816WAT     H247691   0.515   4.606   4.193
15817WAT      O47692   7.165   4.843   9.317
15817WAT     H147693   7.141   4.938   9.302
15817WAT     H247694   7.169   4.825   9.416
15818WAT      O47695   7.164   3.289   5.460
15818WAT     H147696   7.066   3.308   5.466
15818WAT     H247697   7.214   3.373   5.440
15819WAT      O47698   1.095   1.946   8.559
15819WAT     H147699   1.001   1.918   8.577
15819WAT     H247700   1.098   1.998   8.473
15820WAT      O47701   5.801   7.214   7.247
15820WAT     H147702   5.781   7.141   7.312
15820WAT     H247703   5.748   7.199   7.163
15821WAT      O47704   3.179   2.527   1.070
15821WAT     H147705   3.142   2.617   1.049
15821WAT     H247706   3.125   2.485   1.143
15822WAT      O47707   2.240   2.639   1.641
15822WAT     H147708   2.311   2.669   1.704
15822WAT     H247709   2.217   2.543   1.659
15823WAT      O47710   6.903   8.765   7.970
15823WAT     H147711   6.805   8.787   7.974
15823WAT     H247712   6.954   8.832   8.023
15824WAT      O47713   7.937   1.822   2.329
15824WAT     H147714   7.893   1.894   2.384
15824WAT     H247715   7.877   1.742   2.325
15825WAT      O47716   6.419   5.081   2.627
15825WAT     H147717   6.480   5.128   2.691
15825WAT     H247718   6.410   4.985   2.653
15826WAT      O47719   4.503   1.100   9.416
15826WAT     H147720   4.562   1.179   9.434
15826WAT     H247721   4.555   1.016   9.427
15827WAT      O47722   6.188   9.378   3.048
15827WAT     H147723   6.178   9.473   3.077
15827WAT     H247724   6.227   9.323   3.122
15828WAT      O47725   3.514   1.484   4.690
15828WAT     H147726   3.459   1.411   4.651
15828WAT     H247727   3.455   1.547   4.740
15829WAT      O47728   8.705   0.668   1.928
15829WAT     H147729   8.767   0.590   1.928
15829WAT     H247730   8.616   0.640   1.893
15830WAT      O47731   5.142   2.934   1.121
15830WAT     H147732   5.155   2.852   1.063
15830WAT     H247733   5.171   2.913   1.214
15831WAT      O47734   7.883   1.134   3.806
15831WAT     H147735   7.806   1.151   3.745
15831WAT     H247736   7.923   1.222   3.833
15832WAT      O47737   6.847   4.471   0.896
15832WAT     H147738   6.755   4.484   0.860
15832WAT     H247739   6.851   4.507   0.990
15833WAT      O47740   1.525   7.021   4.757
15833WAT     H147741   1.512   7.002   4.659
15833WAT     H247742   1.488   6.946   4.811
15834WAT      O47743   7.407   8.899   2.290
15834WAT     H147744   7.484   8.934   2.344
15834WAT     H247745   7.389   8.960   2.213
15835WAT      O47746   1.598   2.427   3.841
15835WAT     H147747   1.632   2.412   3.933
15835WAT     H247748   1.509   2.382   3.830
15836WAT      O47749   3.706   5.024   0.144
15836WAT     H147750   3.656   5.087   0.203
15836WAT     H247751   3.787   4.989   0.192
15837WAT      O47752   0.834   5.931   8.534
15837WAT     H147753   0.812   6.008   8.594
15837WAT     H247754   0.928   5.901   8.551
15838WAT      O47755   2.992   6.144   1.075
15838WAT     H147756   3.043   6.124   1.159
15838WAT     H247757   3.044   6.208   1.019
15839WAT      O47758   7.642   4.670   0.268
15839WAT     H147759   7.684   4.743   0.321
15839WAT     H247760   7.660   4.685   0.171
15840WAT      O47761   0.912   8.055   1.234
15840WAT     H147762   0.992   8.007   1.199
15840WAT     H247763   0.894   8.135   1.177
15841WAT      O47764   1.917   3.108   8.292
15841WAT     H147765   1.851   3.159   8.347
15841WAT     H247766   1.868   3.044   8.232
15842WAT      O47767   4.350   1.181   1.869
15842WAT     H147768   4.289   1.117   1.821
15842WAT     H247769   4.329   1.274   1.840
15843WAT      O47770   9.381   8.106   0.434
15843WAT     H147771   9.294   8.082   0.478
15843WAT     H247772   9.441   8.149   0.501
15844WAT      O47773   3.458   4.810   4.394
15844WAT     H147774   3.467   4.882   4.464
15844WAT     H247775   3.521   4.830   4.319
15845WAT      O47776   3.533   9.603   8.441
15845WAT     H147777   3.488   9.599   8.352
15845WAT     H247778   3.624   9.643   8.431
15846WAT      O47779   3.743   7.548   1.693
15846WAT     H147780   3.701   7.636   1.669
15846WAT     H247781   3.795   7.558   1.777
15847WAT      O47782   5.417   9.574   9.300
15847WAT     H147783   5.408   9.547   9.204
15847WAT     H247784   5.343   9.532   9.354
15848WAT      O47785   1.198   2.198   2.016
15848WAT     H147786   1.112   2.148   2.004
15848WAT     H247787   1.232   2.185   2.109
15849WAT      O47788   9.733   7.904   3.418
15849WAT     H147789   9.801   7.875   3.351
15849WAT     H247790   9.642   7.883   3.384
15850WAT      O47791   0.942   0.994   6.684
15850WAT     H147792   1.019   1.031   6.735
15850WAT     H247793   0.963   0.996   6.586
15851WAT      O47794   5.204   8.795   8.176
15851WAT     H147795   5.237   8.861   8.243
15851WAT     H247796   5.151   8.842   8.106
15852WAT      O47797   6.326   6.677   8.818
15852WAT     H147798   6.342   6.712   8.725
15852WAT     H247799   6.409   6.634   8.852
15853WAT      O47800   9.632   8.330   3.590
15853WAT     H147801   9.728   8.302   3.581
15853WAT     H247802   9.607   8.385   3.510
15854WAT      O47803   7.958   0.498   1.094
15854WAT     H147804   7.921   0.559   1.165
15854WAT     H247805   7.904   0.414   1.090
15855WAT      O47806   2.489   0.334   8.197
15855WAT     H147807   2.583   0.302   8.197
15855WAT     H247808   2.455   0.339   8.291
15856WAT      O47809   4.005   0.129   1.954
15856WAT     H147810   3.919   0.172   1.927
15856WAT     H247811   3.992   0.030   1.963
15857WAT      O47812   8.740   5.315   3.911
15857WAT     H147813   8.805   5.248   3.947
15857WAT     H247814   8.714   5.290   3.818
15858WAT      O47815   6.722   8.688   8.870
15858WAT     H147816   6.700   8.741   8.952
15858WAT     H247817   6.698   8.741   8.789
15859WAT      O47818   8.750   5.380   6.776
15859WAT     H147819   8.688   5.304   6.753
15859WAT     H247820   8.753   5.444   6.699
15860WAT      O47821   4.231   2.690   9.578
15860WAT     H147822   4.235   2.618   9.508
15860WAT     H247823   4.283   2.770   9.547
15861WAT      O47824   6.912   6.970   1.534
15861WAT     H147825   6.880   6.999   1.443
15861WAT     H247826   6.989   6.907   1.523
15862WAT      O47827   9.043   7.302   6.615
15862WAT     H147828   9.055   7.258   6.704
15862WAT     H247829   9.026   7.400   6.628
15863WAT      O47830   8.752   0.338   8.240
15863WAT     H147831   8.822   0.403   8.271
15863WAT     H247832   8.704   0.376   8.161
15864WAT      O47833   0.115   9.134   0.662
15864WAT     H147834   0.095   9.215   0.606
15864WAT     H247835   0.030   9.103   0.705
15865WAT      O47836   9.644   7.492   8.091
15865WAT     H147837   9.733   7.511   8.132
15865WAT     H247838   9.583   7.570   8.105
15866WAT      O47839   2.236   5.203   4.929
15866WAT     H147840   2.257   5.243   4.840
15866WAT     H247841   2.320   5.168   4.970
15867WAT      O47842   1.497   0.885   8.838
15867WAT     H147843   1.569   0.948   8.810
15867WAT     H247844   1.453   0.847   8.757
15868WAT      O47845   8.435   2.004   6.937
15868WAT     H147846   8.356   1.942   6.932
15868WAT     H247847   8.515   1.954   6.969
15869WAT      O47848   2.274   3.563   6.950
15869WAT     H147849   2.364   3.521   6.941
15869WAT     H247850   2.205   3.505   6.905
15870WAT      O47851   5.975   6.261   6.758
15870WAT     H147852   6.074   6.250   6.767
15870WAT     H247853   5.933   6.173   6.738
15871WAT      O47854   8.574   2.667   7.458
15871WAT     H147855   8.476   2.665   7.475
15871WAT     H247856   8.595   2.741   7.394
15872WAT      O47857   3.532   5.601   5.274
15872WAT     H147858   3.583   5.537   5.216
15872WAT     H247859   3.560   5.590   5.369
15873WAT      O47860   3.876   1.213   9.775
15873WAT     H147861   3.889   1.218   9.676
15873WAT     H247862   3.964   1.203   9.821
15874WAT      O47863   4.804   4.232   5.833
15874WAT     H147864   4.815   4.142   5.790
15874WAT     H247865   4.707   4.248   5.853
15875WAT      O47866   8.388   8.103   9.743
15875WAT     H147867   8.350   8.107   9.835
15875WAT     H247868   8.474   8.154   9.740
15876WAT      O47869   3.620   6.165   5.340
15876WAT     H147870   3.653   6.154   5.434
15876WAT     H247871   3.659   6.093   5.283
15877WAT      O47872   8.515   5.678   4.321
15877WAT     H147873   8.549   5.598   4.370
15877WAT     H247874   8.462   5.735   4.384
15878WAT      O47875   1.630   3.766   7.883
15878WAT     H147876   1.664   3.703   7.813
15878WAT     H247877   1.701   3.782   7.951
15879WAT      O47878   8.805   8.015   5.905
15879WAT     H147879   8.708   7.993   5.895
15879WAT     H247880   8.815   8.114   5.919
15880WAT      O47881   1.013   0.039   4.809
15880WAT     H147882   1.072   0.119   4.805
15880WAT     H247883   0.984   0.014   4.717
15881WAT      O47884   9.329   2.472   4.879
15881WAT     H147885   9.359   2.516   4.964
15881WAT     H247886   9.255   2.526   4.838
15882WAT      O47887   7.681   1.420   7.831
15882WAT     H147888   7.653   1.497   7.888
15882WAT     H247889   7.730   1.455   7.750
15883WAT      O47890   7.777   4.277   9.061
15883WAT     H147891   7.842   4.247   8.992
15883WAT     H247892   7.826   4.308   9.142
15884WAT      O47893   8.390   3.164   0.038
15884WAT     H147894   8.464   3.216  -0.005
15884WAT     H247895   8.312   3.225   0.056
15885WAT      O47896   5.572   3.016   1.172
15885WAT     H147897   5.550   3.106   1.135
15885WAT     H247898   5.670   2.999   1.162
15886WAT      O47899   7.497   1.485   2.564
15886WAT     H147900   7.421   1.436   2.607
15886WAT     H247901   7.522   1.439   2.479
15887WAT      O47902   9.521   7.206   0.853
15887WAT     H147903   9.434   7.253   0.870
15887WAT     H247904   9.508   7.133   0.786
15888WAT      O47905   0.956   8.672   0.857
15888WAT     H147906   0.912   8.760   0.838
15888WAT     H247907   0.905   8.624   0.929
15889WAT      O47908   6.966   2.346   6.672
15889WAT     H147909   6.872   2.373   6.692
15889WAT     H247910   6.968   2.295   6.586
15890WAT      O47911   0.445   3.625   5.117
15890WAT     H147912   0.501   3.557   5.164
15890WAT     H247913   0.470   3.627   5.020
15891WAT      O47914   2.779   6.502   5.634
15891WAT     H147915   2.816   6.594   5.645
15891WAT     H247916   2.682   6.502   5.658
15892WAT      O47917   1.702   2.991   8.604
15892WAT     H147918   1.704   2.952   8.696
15892WAT     H247919   1.739   3.084   8.606
15893WAT      O47920   0.514   1.381   8.236
15893WAT     H147921   0.440   1.337   8.286
15893WAT     H247922   0.478   1.457   8.182
15894WAT      O47923   2.415   5.001   7.044
15894WAT     H147924   2.419   5.101   7.046
15894WAT     H247925   2.417   4.966   7.137
15895WAT      O47926   2.918   6.224   5.786
15895WAT     H147927   2.983   6.197   5.714
15895WAT     H247928   2.911   6.324   5.788
15896WAT      O47929   5.244   8.861   6.679
15896WAT     H147930   5.255   8.938   6.742
15896WAT     H247931   5.291   8.881   6.593
15897WAT      O47932   1.636   9.687   7.930
15897WAT     H147933   1.661   9.675   8.026
15897WAT     H247934   1.623   9.597   7.888
15898WAT      O47935   1.317   2.622   6.122
15898WAT     H147936   1.394   2.560   6.103
15898WAT     H247937   1.232   2.581   6.088
15899WAT      O47938   7.139   0.149   2.505
15899WAT     H147939   7.087   0.104   2.577
15899WAT     H247940   7.234   0.119   2.508
15900WAT      O47941   9.652   6.243   5.441
15900WAT     H147942   9.703   6.222   5.358
15900WAT     H247943   9.608   6.333   5.431
15901WAT      O47944   3.153   1.480   4.913
15901WAT     H147945   3.099   1.564   4.920
15901WAT     H247946   3.092   1.402   4.907
15902WAT      O47947   0.310   4.087   7.552
15902WAT     H147948   0.212   4.103   7.544
15902WAT     H247949   0.360   4.170   7.528
15903WAT      O47950   1.000   1.112   1.760
15903WAT     H147951   1.045   1.035   1.713
15903WAT     H247952   0.971   1.083   1.851
15904WAT      O47953   0.304   8.474   8.499
15904WAT     H147954   0.359   8.426   8.567
15904WAT     H247955   0.343   8.459   8.408
15905WAT      O47956   5.623   9.600   8.161
15905WAT     H147957   5.694   9.644   8.105
15905WAT     H247958   5.591   9.664   8.230
15906WAT      O47959   8.506   3.975   5.319
15906WAT     H147960   8.545   4.028   5.394
15906WAT     H247961   8.413   4.008   5.299
15907WAT      O47962   6.531   6.526   8.463
15907WAT     H147963   6.627   6.548   8.452
15907WAT     H247964   6.496   6.485   8.378
15908WAT      O47965   0.159   9.589   4.748
15908WAT     H147966   0.258   9.598   4.738
15908WAT     H247967   0.117   9.680   4.750
15909WAT      O47968   7.045   6.753   1.357
15909WAT     H147969   7.138   6.786   1.344
15909WAT     H247970   7.047   6.658   1.391
15910WAT      O47971   5.818   2.628   8.788
15910WAT     H147972   5.808   2.581   8.701
15910WAT     H247973   5.819   2.727   8.774
15911WAT      O47974   4.722   8.556   6.932
15911WAT     H147975   4.792   8.517   6.991
15911WAT     H247976   4.765   8.594   6.850
15912WAT      O47977   7.767   8.288   9.746
15912WAT     H147978   7.741   8.383   9.729
15912WAT     H247979   7.704   8.248   9.813
15913WAT      O47980   0.932   8.558   5.670
15913WAT     H147981   0.888   8.612   5.741
15913WAT     H247982   0.888   8.575   5.582
15914WAT      O47983   1.350   3.549   0.331
15914WAT     H147984   1.445   3.524   0.310
15914WAT     H247985   1.330   3.527   0.426
15915WAT      O47986   9.507   8.708   0.025
15915WAT     H147987   9.603   8.737   0.025
15915WAT     H247988   9.486   8.663   0.112
15916WAT      O47989   1.929   2.331   7.769
15916WAT     H147990   1.853   2.269   7.788
15916WAT     H247991   1.982   2.296   7.692
15917WAT      O47992   6.647   5.497   5.738
15917WAT     H147993   6.609   5.562   5.805
15917WAT     H247994   6.736   5.465   5.769
15918WAT      O47995   4.227   9.221   2.009
15918WAT     H147996   4.152   9.285   2.028
15918WAT     H247997   4.196   9.127   2.029
15919WAT      O47998   8.323   9.569   3.955
15919WAT     H147999   8.421   9.588   3.946
15919WAT     H248000   8.305   9.532   4.046
15920WAT      O48001   5.585   7.805   8.641
15920WAT     H148002   5.680   7.835   8.647
15920WAT     H248003   5.578   7.709   8.666
15921WAT      O48004   0.141   5.590   6.146
15921WAT     H148005   0.123   5.507   6.198
15921WAT     H248006   0.068   5.657   6.164
15922WAT      O48007   1.825   8.125   9.598
15922WAT     H148008   1.752   8.121   9.529
15922WAT     H248009   1.812   8.051   9.664
15923WAT      O48010   1.387   8.094   3.949
15923WAT     H148011   1.354   8.015   3.898
15923WAT     H248012   1.310   8.155   3.969
15924WAT      O48013   3.766   4.196   8.694
15924WAT     H148014   3.714   4.196   8.779
15924WAT     H248015   3.860   4.225   8.712
15925WAT      O48016   8.673   7.450   7.737
15925WAT     H148017   8.655   7.440   7.835
15925WAT     H248018   8.675   7.547   7.713
15926WAT      O48019   2.781   7.175   0.985
15926WAT     H148020   2.804   7.237   1.061
15926WAT     H248021   2.802   7.220   0.898
15927WAT      O48022   6.196   2.215   5.108
15927WAT     H148023   6.210   2.302   5.062
15927WAT     H248024   6.177   2.231   5.204
15928WAT      O48025   0.134   5.460   1.850
15928WAT     H148026   0.201   5.526   1.885
15928WAT     H248027   0.133   5.379   1.908
15929WAT      O48028   6.201   2.255   5.452
15929WAT     H148029   6.299   2.263   5.434
15929WAT     H248030   6.183   2.265   5.550
15930WAT      O48031   0.338   3.449   6.707
15930WAT     H148032   0.319   3.433   6.610
15930WAT     H248033   0.296   3.536   6.734
15931WAT      O48034   6.868   1.577   1.887
15931WAT     H148035   6.786   1.619   1.926
15931WAT     H248036   6.903   1.508   1.950
15932WAT      O48037   2.331   6.764   6.692
15932WAT     H148038   2.343   6.771   6.593
15932WAT     H248039   2.294   6.674   6.715
15933WAT      O48040   1.695   1.956   2.727
15933WAT     H148041   1.634   2.003   2.791
15933WAT     H248042   1.643   1.928   2.646
15934WAT      O48043   3.832   0.222   4.514
15934WAT     H148044   3.760   0.156   4.492
15934WAT     H248045   3.917   0.196   4.468
15935WAT      O48046   9.226   0.929   4.232
15935WAT     H148047   9.276   1.013   4.249
15935WAT     H248048   9.206   0.884   4.320
15936WAT      O48049   5.655   2.556   0.145
15936WAT     H148050   5.734   2.520   0.095
15936WAT     H248051   5.610   2.480   0.193
15937WAT      O48052   5.303   4.590   8.994
15937WAT     H148053   5.366   4.662   9.023
15937WAT     H248054   5.354   4.506   8.974
15938WAT      O48055   7.280   2.035   6.561
15938WAT     H148056   7.236   2.085   6.486
15938WAT     H248057   7.213   1.976   6.606
15939WAT      O48058   8.512   1.388   8.842
15939WAT     H148059   8.467   1.366   8.928
15939WAT     H248060   8.459   1.457   8.793
15940WAT      O48061   2.346   9.612   8.899
15940WAT     H148062   2.433   9.614   8.949
15940WAT     H248063   2.361   9.646   8.806
15941WAT      O48064   7.609   3.526   1.797
15941WAT     H148065   7.707   3.517   1.779
15941WAT     H248066   7.591   3.510   1.894
15942WAT      O48067   4.248   0.226   9.859
15942WAT     H148068   4.295   0.289   9.921
15942WAT     H248069   4.179   0.276   9.807
15943WAT      O48070   0.812   8.863   6.037
15943WAT     H148071   0.729   8.897   6.081
15943WAT     H248072   0.807   8.881   5.938
15944WAT      O48073   8.504   1.548   3.729
15944WAT     H148074   8.435   1.587   3.668
15944WAT     H248075   8.547   1.470   3.685
15945WAT      O48076   3.434   6.628   3.542
15945WAT     H148077   3.342   6.633   3.504
15945WAT     H248078   3.440   6.683   3.625
15946WAT      O48079   9.355   5.207   1.444
15946WAT     H148080   9.403   5.120   1.443
15946WAT     H248081   9.393   5.267   1.374
15947WAT      O48082   7.583   5.359   6.974
15947WAT     H148083   7.575   5.340   7.072
15947WAT     H248084   7.500   5.327   6.928
15948WAT      O48085   7.307   4.923   7.890
15948WAT     H148086   7.383   4.860   7.902
15948WAT     H248087   7.238   4.881   7.831
15949WAT      O48088   2.217   8.973   0.753
15949WAT     H148089   2.175   8.937   0.836
15949WAT     H248090   2.172   8.935   0.672
15950WAT      O48091   9.023   5.945   9.839
15950WAT     H148092   9.051   5.864   9.892
15950WAT     H248093   9.097   5.973   9.779
15951WAT      O48094   2.851   7.138   2.316
15951WAT     H148095   2.854   7.066   2.248
15951WAT     H248096   2.871   7.100   2.407
15952WAT      O48097   3.622   3.045   1.643
15952WAT     H148098   3.603   2.949   1.621
15952WAT     H248099   3.665   3.090   1.565
15953WAT      O48100   2.999   2.535   5.463
15953WAT     H148101   2.963   2.575   5.379
15953WAT     H248102   3.064   2.599   5.505
15954WAT      O48103   7.969   7.126   0.799
15954WAT     H148104   7.955   7.056   0.869
15954WAT     H248105   7.950   7.088   0.709
15955WAT      O48106   4.209   9.727   4.054
15955WAT     H148107   4.115   9.694   4.061
15955WAT     H248108   4.272   9.649   4.057
15956WAT      O48109   3.805   6.002   6.194
15956WAT     H148110   3.839   5.909   6.183
15956WAT     H248111   3.769   6.035   6.107
15957WAT      O48112   4.409   7.430   5.690
15957WAT     H148113   4.467   7.459   5.766
15957WAT     H248114   4.382   7.509   5.635
15958WAT      O48115   3.073   8.754   7.358
15958WAT     H148116   3.145   8.700   7.313
15958WAT     H248117   2.990   8.752   7.302
15959WAT      O48118   4.070   4.064   2.525
15959WAT     H148119   4.098   4.003   2.452
15959WAT     H248120   4.056   4.156   2.488
15960WAT      O48121   5.895   4.289   0.919
15960WAT     H148122   5.876   4.263   1.014
15960WAT     H248123   5.975   4.239   0.886
15961WAT      O48124   6.694   3.881   0.157
15961WAT     H148125   6.740   3.889   0.069
15961WAT     H248126   6.608   3.934   0.154
15962WAT      O48127   2.611   3.484   6.537
15962WAT     H148128   2.570   3.549   6.600
15962WAT     H248129   2.617   3.394   6.581
15963WAT      O48130   5.663   8.988   3.076
15963WAT     H148131   5.685   9.078   3.113
15963WAT     H248132   5.685   8.985   2.979
15964WAT      O48133   3.999   6.256   4.614
15964WAT     H148134   4.062   6.190   4.572
15964WAT     H248135   4.011   6.345   4.570
15965WAT      O48136   9.674   1.920   2.742
15965WAT     H148137   9.617   1.945   2.820
15965WAT     H248138   9.647   1.975   2.663
15966WAT      O48139   1.669   5.170   0.122
15966WAT     H148140   1.740   5.229   0.085
15966WAT     H248141   1.608   5.223   0.180
15967WAT      O48142   4.130   9.228   8.610
15967WAT     H148143   4.093   9.258   8.522
15967WAT     H248144   4.229   9.213   8.601
15968WAT      O48145   6.337   6.501   6.837
15968WAT     H148146   6.295   6.478   6.925
15968WAT     H248147   6.282   6.570   6.791
15969WAT      O48148   7.357   1.715   4.085
15969WAT     H148149   7.450   1.723   4.119
15969WAT     H248150   7.308   1.801   4.098
15970WAT      O48151   6.670   8.538   7.973
15970WAT     H148152   6.583   8.571   7.936
15970WAT     H248153   6.673   8.553   8.072
15971WAT      O48154   9.678   1.908   0.658
15971WAT     H148155   9.716   1.988   0.612
15971WAT     H248156   9.725   1.894   0.745
15972WAT      O48157   5.449   5.146   4.792
15972WAT     H148158   5.420   5.074   4.729
15972WAT     H248159   5.485   5.224   4.741
15973WAT      O48160   5.300   3.762   7.885
15973WAT     H148161   5.347   3.836   7.932
15973WAT     H248162   5.367   3.693   7.855
15974WAT      O48163   3.384   3.416   3.471
15974WAT     H148164   3.381   3.347   3.399
15974WAT     H248165   3.399   3.506   3.430
15975WAT      O48166   3.228   2.508   3.335
15975WAT     H148167   3.320   2.485   3.302
15975WAT     H248168   3.230   2.515   3.435
15976WAT      O48169   7.896   1.651   7.409
15976WAT     H148170   7.849   1.576   7.456
15976WAT     H248171   7.983   1.669   7.454
15977WAT      O48172   1.609   9.006   0.579
15977WAT     H148173   1.559   8.978   0.661
15977WAT     H248174   1.705   9.022   0.602
15978WAT      O48175   7.037   8.284   8.593
15978WAT     H148176   7.030   8.226   8.511
15978WAT     H248177   7.074   8.231   8.669
15979WAT      O48178   8.649   7.548   4.347
15979WAT     H148179   8.728   7.517   4.401
15979WAT     H248180   8.593   7.610   4.403
15980WAT      O48181   1.877   3.163   5.282
15980WAT     H148182   1.874   3.097   5.207
15980WAT     H248183   1.916   3.249   5.250
15981WAT      O48184   9.443   6.598   6.530
15981WAT     H148185   9.432   6.614   6.432
15981WAT     H248186   9.390   6.666   6.581
15982WAT      O48187   6.638   1.616   0.157
15982WAT     H148188   6.551   1.659   0.181
15982WAT     H248189   6.703   1.686   0.128
15983WAT      O48190   0.367   8.161   4.337
15983WAT     H148191   0.403   8.247   4.301
15983WAT     H248192   0.391   8.152   4.434
15984WAT      O48193   6.005   2.931   9.468
15984WAT     H148194   5.929   2.899   9.524
15984WAT     H248195   5.993   3.028   9.447
15985WAT      O48196   9.480   6.076   3.702
15985WAT     H148197   9.461   6.066   3.800
15985WAT     H248198   9.414   6.022   3.650
15986WAT      O48199   8.542   5.055   0.431
15986WAT     H148200   8.579   5.140   0.468
15986WAT     H248201   8.592   5.030   0.348
15987WAT      O48202   4.628   9.288   3.019
15987WAT     H148203   4.547   9.261   3.072
15987WAT     H248204   4.693   9.212   3.018
15988WAT      O48205   1.604   2.689   4.698
15988WAT     H148206   1.569   2.681   4.791
15988WAT     H248207   1.528   2.705   4.635
15989WAT      O48208   6.457   2.954   8.690
15989WAT     H148209   6.415   2.959   8.599
15989WAT     H248210   6.434   3.036   8.742
15990WAT      O48211   7.298   0.816   4.657
15990WAT     H148212   7.359   0.866   4.718
15990WAT     H248213   7.341   0.806   4.567
15991WAT      O48214   4.056   9.262   3.341
15991WAT     H148215   4.025   9.267   3.437
15991WAT     H248216   3.985   9.299   3.282
15992WAT      O48217   7.133   9.290   7.803
15992WAT     H148218   7.041   9.252   7.794
15992WAT     H248219   7.197   9.236   7.749
15993WAT      O48220   0.917   3.142   6.965
15993WAT     H148221   0.999   3.135   7.021
15993WAT     H248222   0.843   3.089   7.007
15994WAT      O48223   3.597   9.088   2.717
15994WAT     H148224   3.637   9.154   2.653
15994WAT     H248225   3.612   9.120   2.811
15995WAT      O48226   4.651   2.070   4.006
15995WAT     H148227   4.677   2.126   3.927
15995WAT     H248228   4.730   2.057   4.066
15996WAT      O48229   8.623   0.185   2.740
15996WAT     H148230   8.621   0.092   2.703
15996WAT     H248231   8.711   0.201   2.784
15997WAT      O48232   9.734   4.228   5.559
15997WAT     H148233   9.696   4.319   5.578
15997WAT     H248234   9.817   4.214   5.613
15998WAT      O48235   1.763   2.792   6.451
15998WAT     H148236   1.797   2.879   6.487
15998WAT     H248237   1.674   2.806   6.408
15999WAT      O48238   3.598   2.367   9.319
15999WAT     H148239   3.688   2.358   9.275
15999WAT     H248240   3.540   2.428   9.265
16000WAT      O48241   8.476   4.832   5.813
16000WAT     H148242   8.533   4.792   5.741
16000WAT     H248243   8.455   4.762   5.881
16001WAT      O48244   9.461   8.463   9.473
16001WAT     H148245   9.534   8.531   9.476
16001WAT     H248246   9.481   8.389   9.537
16002WAT      O48247   0.103   0.590   2.182
16002WAT     H148248   0.160   0.670   2.201
16002WAT     H248249   0.059   0.558   2.266
16003WAT      O48250   4.100   0.402   9.695
16003WAT     H148251   4.097   0.502   9.699
16003WAT     H248252   4.008   0.365   9.706
16004WAT      O48253   3.210   9.538   3.878
16004WAT     H148254   3.203   9.606   3.805
16004WAT     H248255   3.223   9.447   3.837
16005WAT      O48256   6.424   5.770   9.737
16005WAT     H148257   6.349   5.740   9.797
16005WAT     H248258   6.478   5.839   9.784
16006WAT      O48259   1.623   6.017   2.820
16006WAT     H148260   1.702   6.011   2.882
16006WAT     H248261   1.550   6.069   2.864
16007WAT      O48262   7.987   9.097   5.983
16007WAT     H148263   8.031   9.165   5.925
16007WAT     H248264   7.934   9.142   6.055
16008WAT      O48265   2.461   5.918   5.175
16008WAT     H148266   2.528   5.897   5.104
16008WAT     H248267   2.406   5.836   5.193
16009WAT      O48268   2.172   7.913   8.827
16009WAT     H148269   2.241   7.867   8.772
16009WAT     H248270   2.211   7.995   8.869
16010WAT      O48271   8.775   0.319   1.233
16010WAT     H148272   8.818   0.407   1.214
16010WAT     H248273   8.679   0.322   1.204
16011WAT      O48274   9.409   4.077   1.845
16011WAT     H148275   9.310   4.092   1.852
16011WAT     H248276   9.457   4.164   1.847
16012WAT      O48277   9.628   4.256   5.868
16012WAT     H148278   9.600   4.165   5.836
16012WAT     H248279   9.569   4.285   5.943
16013WAT      O48280   8.337   1.302   6.527
16013WAT     H148281   8.278   1.381   6.542
16013WAT     H248282   8.433   1.331   6.527
16014WAT      O48283   8.741   3.089   3.591
16014WAT     H148284   8.702   3.151   3.523
16014WAT     H248285   8.779   3.009   3.546
16015WAT      O48286   5.654   6.203   3.927
16015WAT     H148287   5.557   6.182   3.945
16015WAT     H248288   5.660   6.289   3.876
16016WAT      O48289   7.037   6.416   4.060
16016WAT     H148290   7.063   6.319   4.058
16016WAT     H248291   7.039   6.453   3.967
16017WAT      O48292   3.247   4.882   0.231
16017WAT     H148293   3.278   4.914   0.142
16017WAT     H248294   3.299   4.929   0.303
16018WAT      O48295   8.619   3.252   1.935
16018WAT     H148296   8.556   3.181   1.905
16018WAT     H248297   8.569   3.338   1.948
16019WAT      O48298   2.002   3.638   1.703
16019WAT     H148299   2.055   3.614   1.622
16019WAT     H248300   1.978   3.735   1.701
16020WAT      O48301   2.094   0.200   1.068
16020WAT     H148302   2.175   0.253   1.093
16020WAT     H248303   2.107   0.105   1.095
16021WAT      O48304   6.389   0.440   3.901
16021WAT     H148305   6.320   0.445   3.829
16021WAT     H248306   6.352   0.389   3.979
16022WAT      O48307   6.400   3.460   8.418
16022WAT     H148308   6.451   3.537   8.379
16022WAT     H248309   6.303   3.470   8.398
16023WAT      O48310   9.212   3.569   9.065
16023WAT     H148311   9.306   3.574   9.098
16023WAT     H248312   9.166   3.490   9.107
16024WAT      O48313   2.184   7.512   3.638
16024WAT     H148314   2.096   7.524   3.592
16024WAT     H248315   2.225   7.601   3.657
16025WAT      O48316   3.916   1.302   7.100
16025WAT     H148317   3.987   1.247   7.057
16025WAT     H248318   3.829   1.285   7.055
16026WAT      O48319   9.159   6.887   7.769
16026WAT     H148320   9.125   6.981   7.762
16026WAT     H248321   9.223   6.869   7.694
16027WAT      O48322   9.479   0.305   8.208
16027WAT     H148323   9.409   0.327   8.275
16027WAT     H248324   9.448   0.331   8.117
16028WAT      O48325   5.860   3.044   0.939
16028WAT     H148326   5.816   3.048   0.849
16028WAT     H248327   5.957   3.026   0.928
16029WAT      O48328   6.175   8.157   5.638
16029WAT     H148329   6.123   8.237   5.667
16029WAT     H248330   6.206   8.107   5.719
16030WAT      O48331   8.579   5.748   1.908
16030WAT     H148332   8.644   5.775   1.979
16030WAT     H248333   8.628   5.702   1.834
16031WAT      O48334   2.710   7.869   0.623
16031WAT     H148335   2.757   7.828   0.701
16031WAT     H248336   2.777   7.891   0.552
16032WAT      O48337   1.691   2.961   8.896
16032WAT     H148338   1.784   2.992   8.916
16032WAT     H248339   1.674   2.875   8.945
16033WAT      O48340   5.567   6.863   7.969
16033WAT     H148341   5.651   6.854   8.021
16033WAT     H248342   5.493   6.816   8.017
16034WAT      O48343   7.590   4.529   1.347
16034WAT     H148344   7.587   4.552   1.250
16034WAT     H248345   7.643   4.597   1.397
16035WAT      O48346   2.899   3.581   1.149
16035WAT     H148347   2.882   3.492   1.190
16035WAT     H248348   2.930   3.645   1.220
16036WAT      O48349   3.824   7.899   9.531
16036WAT     H148350   3.729   7.912   9.559
16036WAT     H248351   3.832   7.811   9.484
16037WAT      O48352   9.289   8.930   3.681
16037WAT     H148353   9.355   8.991   3.724
16037WAT     H248354   9.205   8.930   3.736
16038WAT      O48355   6.530   1.093   2.833
16038WAT     H148356   6.589   1.029   2.881
16038WAT     H248357   6.486   1.155   2.898
16039WAT      O48358   5.404   5.193   1.721
16039WAT     H148359   5.349   5.197   1.805
16039WAT     H248360   5.372   5.117   1.664
16040WAT      O48361   9.650   4.187   1.044
16040WAT     H148362   9.712   4.193   1.123
16040WAT     H248363   9.580   4.118   1.062
16041WAT      O48364   5.345   1.469   5.822
16041WAT     H148365   5.332   1.414   5.904
16041WAT     H248366   5.348   1.410   5.741
16042WAT      O48367   2.067   3.597   6.370
16042WAT     H148368   1.985   3.649   6.347
16042WAT     H248369   2.141   3.659   6.393
16043WAT      O48370   8.810   4.869   8.739
16043WAT     H148371   8.729   4.820   8.707
16043WAT     H248372   8.798   4.894   8.835
16044WAT      O48373   3.224   1.576   0.605
16044WAT     H148374   3.127   1.587   0.627
16044WAT     H248375   3.239   1.600   0.509
16045WAT      O48376   2.878   4.837   3.388
16045WAT     H148377   2.955   4.852   3.325
16045WAT     H248378   2.860   4.739   3.396
16046WAT      O48379   3.755   6.367   9.786
16046WAT     H148380   3.655   6.355   9.786
16046WAT     H248381   3.777   6.464   9.796
16047WAT      O48382   2.721   0.562   2.714
16047WAT     H148383   2.744   0.491   2.780
16047WAT     H248384   2.633   0.603   2.738
16048WAT      O48385   6.045   5.744   7.317
16048WAT     H148386   6.059   5.843   7.319
16048WAT     H248387   5.951   5.724   7.290
16049WAT      O48388   8.992   4.421   2.411
16049WAT     H148389   8.958   4.508   2.446
16049WAT     H248390   9.091   4.415   2.427
16050WAT      O48391   2.487   6.304   6.896
16050WAT     H148392   2.475   6.205   6.883
16050WAT     H248393   2.584   6.326   6.902
16051WAT      O48394   5.819   1.683   1.769
16051WAT     H148395   5.725   1.653   1.756
16051WAT     H248396   5.880   1.603   1.769
16052WAT      O48397   5.422   9.603   7.408
16052WAT     H148398   5.358   9.660   7.355
16052WAT     H248399   5.505   9.587   7.354
16053WAT      O48400   5.070   9.833   7.690
16053WAT     H148401   5.153   9.808   7.739
16053WAT     H248402   5.027   9.912   7.734
16054WAT      O48403   1.112   2.813   0.997
16054WAT     H148404   1.114   2.742   1.067
16054WAT     H248405   1.199   2.813   0.947
16055WAT      O48406   7.707   6.412   2.039
16055WAT     H148407   7.668   6.414   2.131
16055WAT     H248408   7.760   6.496   2.023
16056WAT      O48409   7.032   4.422   7.170
16056WAT     H148410   6.932   4.414   7.174
16056WAT     H248411   7.070   4.404   7.261
16057WAT      O48412   8.336   0.518   4.698
16057WAT     H148413   8.317   0.610   4.732
16057WAT     H248414   8.299   0.450   4.762
16058WAT      O48415   6.988   7.813   3.468
16058WAT     H148416   7.039   7.790   3.386
16058WAT     H248417   6.988   7.913   3.480
16059WAT      O48418   5.876   4.056   4.800
16059WAT     H148419   5.811   4.004   4.855
16059WAT     H248420   5.870   4.153   4.825
16060WAT      O48421   6.270   3.925   6.600
16060WAT     H148422   6.331   3.993   6.559
16060WAT     H248423   6.239   3.958   6.689
16061WAT      O48424   5.140   6.824   8.865
16061WAT     H148425   5.170   6.733   8.893
16061WAT     H248426   5.207   6.892   8.894
16062WAT      O48427   0.016   7.163   2.097
16062WAT     H148428  -0.017   7.092   2.035
16062WAT     H248429  -0.004   7.137   2.191
16063WAT      O48430   2.313   8.526   8.758
16063WAT     H148431   2.380   8.460   8.793
16063WAT     H248432   2.272   8.576   8.835
16064WAT      O48433   1.799   3.189   2.776
16064WAT     H148434   1.842   3.108   2.816
16064WAT     H248435   1.700   3.177   2.774
16065WAT      O48436   8.906   5.174   8.181
16065WAT     H148437   8.923   5.272   8.187
16065WAT     H248438   8.984   5.124   8.219
16066WAT      O48439   4.669   3.441   9.135
16066WAT     H148440   4.762   3.427   9.168
16066WAT     H248441   4.611   3.364   9.164
16067WAT      O48442   7.344   5.379   6.673
16067WAT     H148443   7.288   5.452   6.634
16067WAT     H248444   7.317   5.291   6.634
16068WAT      O48445   4.210   0.133   8.750
16068WAT     H148446   4.134   0.170   8.697
16068WAT     H248447   4.283   0.202   8.757
16069WAT      O48448   6.061   7.834   8.276
16069WAT     H148449   6.145   7.780   8.277
16069WAT     H248450   6.074   7.912   8.214
16070WAT      O48451   8.152   4.290   0.823
16070WAT     H148452   8.244   4.251   0.814
16070WAT     H248453   8.097   4.262   0.744
16071WAT      O48454   3.681   1.861   4.982
16071WAT     H148455   3.706   1.769   5.015
16071WAT     H248456   3.737   1.929   5.028
16072WAT      O48457   5.931   5.947   8.599
16072WAT     H148458   6.013   5.891   8.611
16072WAT     H248459   5.851   5.898   8.634
16073WAT      O48460   0.535   3.968   1.709
16073WAT     H148461   0.450   3.948   1.758
16073WAT     H248462   0.601   3.896   1.728
16074WAT      O48463   8.768   6.138   0.114
16074WAT     H148464   8.845   6.176   0.063
16074WAT     H248465   8.803   6.084   0.191
16075WAT      O48466   4.565   1.554   6.430
16075WAT     H148467   4.567   1.545   6.331
16075WAT     H248468   4.499   1.490   6.468
16076WAT      O48469   8.194   5.443   0.094
16076WAT     H148470   8.196   5.364   0.156
16076WAT     H248471   8.103   5.484   0.095
16077WAT      O48472   1.443   6.668   8.114
16077WAT     H148473   1.540   6.650   8.095
16077WAT     H248474   1.416   6.755   8.073
16078WAT      O48475   8.379   4.925   3.755
16078WAT     H148476   8.360   4.926   3.854
16078WAT     H248477   8.404   4.833   3.726
16079WAT      O48478   5.430   7.490   2.129
16079WAT     H148479   5.364   7.563   2.149
16079WAT     H248480   5.503   7.527   2.071
16080WAT      O48481   9.293   1.335   1.008
16080WAT     H148482   9.361   1.404   0.984
16080WAT     H248483   9.290   1.264   0.937
16081WAT      O48484   9.550   5.314   3.224
16081WAT     H148485   9.617   5.371   3.178
16081WAT     H248486   9.540   5.228   3.174
16082WAT      O48487   4.443   6.171   5.098
16082WAT     H148488   4.437   6.079   5.060
16082WAT     H248489   4.465   6.236   5.025
16083WAT      O48490   8.756   8.267   8.402
16083WAT     H148491   8.739   8.270   8.303
16083WAT     H248492   8.853   8.246   8.418
16084WAT      O48493   8.460   6.064   3.053
16084WAT     H148494   8.481   6.135   3.120
16084WAT     H248495   8.432   6.106   2.967
16085WAT      O48496   0.998   8.907   2.808
16085WAT     H148497   0.979   8.810   2.796
16085WAT     H248498   0.917   8.953   2.844
16086WAT      O48499   3.213   0.895   4.203
16086WAT     H148500   3.247   0.934   4.288
16086WAT     H248501   3.269   0.929   4.127
16087WAT      O48502   5.177   8.708   3.112
16087WAT     H148503   5.176   8.807   3.102
16087WAT     H248504   5.141   8.665   3.029
16088WAT      O48505   3.514   8.701   7.736
16088WAT     H148506   3.439   8.766   7.721
16088WAT     H248507   3.600   8.742   7.705
16089WAT      O48508   7.533   8.908   8.269
16089WAT     H148509   7.441   8.878   8.247
16089WAT     H248510   7.566   8.859   8.350
16090WAT      O48511   6.189   0.095   6.066
16090WAT     H148512   6.091   0.085   6.080
16090WAT     H248513   6.219   0.182   6.105
16091WAT      O48514   8.982   0.692   9.310
16091WAT     H148515   8.941   0.747   9.237
16091WAT     H248516   8.920   0.619   9.336
16092WAT      O48517   6.736   8.923   8.380
16092WAT     H148518   6.675   8.902   8.304
16092WAT     H248519   6.799   8.996   8.353
16093WAT      O48520   7.118   5.612   3.810
16093WAT     H148521   7.189   5.541   3.801
16093WAT     H248522   7.072   5.601   3.898
16094WAT      O48523   5.139   0.949   7.373
16094WAT     H148524   5.085   0.889   7.432
16094WAT     H248525   5.117   0.932   7.277
16095WAT      O48526   9.297   4.066   8.723
16095WAT     H148527   9.205   4.090   8.755
16095WAT     H248528   9.333   3.990   8.776
16096WAT      O48529   2.264   6.865   2.326
16096WAT     H148530   2.214   6.926   2.387
16096WAT     H248531   2.263   6.903   2.233
16097WAT      O48532   7.892   6.301   6.345
16097WAT     H148533   7.824   6.302   6.418
16097WAT     H248534   7.890   6.212   6.300
16098WAT      O48535   1.405   2.662   7.437
16098WAT     H148536   1.363   2.753   7.434
16098WAT     H248537   1.474   2.660   7.509
16099WAT      O48538   8.212   8.731   1.766
16099WAT     H148539   8.166   8.749   1.853
16099WAT     H248540   8.299   8.684   1.783
16100WAT      O48541   5.709   6.394   1.711
16100WAT     H148542   5.679   6.383   1.806
16100WAT     H248543   5.779   6.325   1.690
16101WAT      O48544   1.465   3.965   0.691
16101WAT     H148545   1.562   3.956   0.713
16101WAT     H248546   1.437   4.061   0.699
16102WAT      O48547   6.363   4.008   4.741
16102WAT     H148548   6.394   3.922   4.699
16102WAT     H248549   6.268   4.025   4.716
16103WAT      O48550   5.409   6.513   3.551
16103WAT     H148551   5.451   6.440   3.604
16103WAT     H248552   5.426   6.498   3.454
16104WAT      O48553   5.922   5.003   1.713
16104WAT     H148554   5.909   5.016   1.615
16104WAT     H248555   5.879   5.078   1.763
16105WAT      O48556   7.462   2.084   7.501
16105WAT     H148557   7.384   2.047   7.451
16105WAT     H248558   7.490   2.171   7.461
16106WAT      O48559   3.351   5.209   5.698
16106WAT     H148560   3.440   5.246   5.674
16106WAT     H248561   3.285   5.231   5.627
16107WAT      O48562   5.097   0.441   2.988
16107WAT     H148563   5.089   0.365   2.924
16107WAT     H248564   5.048   0.521   2.951
16108WAT      O48565   9.706   0.022   2.621
16108WAT     H148566   9.644   0.082   2.571
16108WAT     H248567   9.791   0.070   2.640
16109WAT      O48568   7.956   7.769   9.828
16109WAT     H148569   8.038   7.721   9.798
16109WAT     H248570   7.979   7.826   9.908
16110WAT      O48571   8.332   7.833   5.294
16110WAT     H148572   8.428   7.807   5.279
16110WAT     H248573   8.308   7.906   5.230
16111WAT      O48574   0.080   5.468   2.300
16111WAT     H148575   0.079   5.428   2.208
16111WAT     H248576   0.152   5.426   2.354
16112WAT      O48577   7.478   8.526   4.794
16112WAT     H148578   7.534   8.449   4.766
16112WAT     H248579   7.492   8.544   4.892
16113WAT      O48580   1.969   0.521   7.673
16113WAT     H148581   1.956   0.620   7.668
16113WAT     H248582   1.939   0.489   7.764
16114WAT      O48583   1.013   7.136   3.552
16114WAT     H148584   0.920   7.128   3.518
16114WAT     H248585   1.057   7.046   3.549
16115WAT      O48586   5.637   7.436   1.121
16115WAT     H148587   5.650   7.445   1.219
16115WAT     H248588   5.540   7.443   1.099
16116WAT      O48589   9.182   0.592   7.539
16116WAT     H148590   9.125   0.570   7.461
16116WAT     H248591   9.257   0.526   7.545
16117WAT      O48592   2.329   2.525   8.326
16117WAT     H148593   2.308   2.538   8.229
16117WAT     H248594   2.422   2.489   8.335
16118WAT      O48595   2.304   1.367   9.804
16118WAT     H148596   2.371   1.355   9.877
16118WAT     H248597   2.331   1.443   9.745
16119WAT      O48598   7.877   3.975   0.270
16119WAT     H148599   7.813   3.904   0.239
16119WAT     H248600   7.892   3.965   0.368
16120WAT      O48601   4.229   7.876   2.909
16120WAT     H148602   4.306   7.813   2.916
16120WAT     H248603   4.221   7.909   2.815
16121WAT      O48604   7.412   0.999   5.650
16121WAT     H148605   7.471   0.983   5.729
16121WAT     H248606   7.354   1.079   5.668
16122WAT      O48607   4.133   6.049   5.401
16122WAT     H148608   4.050   5.993   5.401
16122WAT     H248609   4.205   6.002   5.451
16123WAT      O48610   5.405   8.887   3.442
16123WAT     H148611   5.441   8.881   3.348
16123WAT     H248612   5.352   8.971   3.452
16124WAT      O48613   6.267   9.174   3.196
16124WAT     H148614   6.186   9.122   3.172
16124WAT     H248615   6.346   9.139   3.146
16125WAT      O48616   5.608   8.979   6.948
16125WAT     H148617   5.600   9.023   7.037
16125WAT     H248618   5.561   9.033   6.879
16126WAT      O48619   1.603   2.454   1.940
16126WAT     H148620   1.551   2.390   1.884
16126WAT     H248621   1.558   2.465   2.029
16127WAT      O48622   6.800   8.277   2.959
16127WAT     H148623   6.834   8.252   3.050
16127WAT     H248624   6.742   8.358   2.966
16128WAT      O48625   6.624   6.902   3.606
16128WAT     H148626   6.530   6.900   3.574
16128WAT     H248627   6.635   6.838   3.682
16129WAT      O48628   6.406   5.307   3.701
16129WAT     H148629   6.466   5.245   3.752
16129WAT     H248630   6.388   5.388   3.757
16130WAT      O48631   0.236   8.336   5.201
16130WAT     H148632   0.303   8.264   5.182
16130WAT     H248633   0.198   8.322   5.293
16131WAT      O48634   2.674   6.183   0.553
16131WAT     H148635   2.755   6.188   0.612
16131WAT     H248636   2.617   6.106   0.581
16132WAT      O48637   1.545   7.343   2.055
16132WAT     H148638   1.506   7.312   1.968
16132WAT     H248639   1.594   7.267   2.099
16133WAT      O48640   1.021   6.424   7.344
16133WAT     H148641   1.074   6.426   7.259
16133WAT     H248642   1.019   6.331   7.380
16134WAT      O48643   1.441   2.930   9.270
16134WAT     H148644   1.531   2.975   9.262
16134WAT     H248645   1.436   2.854   9.206
16135WAT      O48646   9.403   7.094   9.868
16135WAT     H148647   9.490   7.073   9.823
16135WAT     H248648   9.383   7.192   9.857
16136WAT      O48649   6.159   5.254   0.280
16136WAT     H148650   6.136   5.206   0.195
16136WAT     H248651   6.116   5.344   0.279
16137WAT      O48652   6.458   1.396   8.885
16137WAT     H148653   6.421   1.345   8.963
16137WAT     H248654   6.382   1.434   8.832
16138WAT      O48655   8.944   9.761   9.514
16138WAT     H148656   8.905   9.721   9.596
16138WAT     H248657   8.966   9.857   9.531
16139WAT      O48658   5.968   8.569   1.643
16139WAT     H148659   6.013   8.532   1.562
16139WAT     H248660   6.018   8.542   1.725
16140WAT      O48661   3.965   5.351   3.635
16140WAT     H148662   3.928   5.439   3.665
16140WAT     H248663   3.953   5.283   3.708
16141WAT      O48664   1.122   0.592   3.619
16141WAT     H148665   1.165   0.598   3.709
16141WAT     H248666   1.023   0.601   3.629
16142WAT      O48667   1.452   2.637   0.337
16142WAT     H148668   1.479   2.732   0.324
16142WAT     H248669   1.436   2.595   0.247
16143WAT      O48670   8.694   6.038   3.748
16143WAT     H148671   8.723   5.949   3.711
16143WAT     H248672   8.626   6.079   3.686
16144WAT      O48673   3.231   5.748   6.523
16144WAT     H148674   3.329   5.748   6.546
16144WAT     H248675   3.206   5.659   6.485
16145WAT      O48676   0.725   4.985   2.753
16145WAT     H148677   0.663   4.973   2.675
16145WAT     H248678   0.702   4.918   2.824
16146WAT      O48679   9.797   4.282   1.578
16146WAT     H148680   9.793   4.230   1.663
16146WAT     H248681   9.886   4.328   1.571
16147WAT      O48682   3.206   8.395   1.115
16147WAT     H148683   3.253   8.461   1.055
16147WAT     H248684   3.204   8.431   1.208
16148WAT      O48685   8.289   9.461   3.199
16148WAT     H148686   8.192   9.477   3.181
16148WAT     H248687   8.331   9.546   3.230
16149WAT      O48688   1.057   7.878   0.710
16149WAT     H148689   1.105   7.818   0.775
16149WAT     H248690   1.080   7.973   0.729
16150WAT      O48691   0.392   3.491   2.983
16150WAT     H148692   0.303   3.537   2.983
16150WAT     H248693   0.451   3.533   2.915
16151WAT      O48694   4.072   0.844   7.625
16151WAT     H148695   4.059   0.910   7.699
16151WAT     H248696   4.014   0.869   7.548
16152WAT      O48697   4.153   9.282   1.208
16152WAT     H148698   4.166   9.306   1.304
16152WAT     H248699   4.079   9.216   1.199
16153WAT      O48700   0.455   0.361   3.101
16153WAT     H148701   0.407   0.310   3.029
16153WAT     H248702   0.423   0.330   3.190
16154WAT      O48703   1.255   2.842   8.901
16154WAT     H148704   1.161   2.873   8.910
16154WAT     H248705   1.314   2.920   8.881
16155WAT      O48706   9.092   8.111   6.924
16155WAT     H148707   9.026   8.062   6.981
16155WAT     H248708   9.045   8.182   6.872
16156WAT      O48709   0.939   6.332   1.812
16156WAT     H148710   1.011   6.282   1.763
16156WAT     H248711   0.958   6.430   1.808
16157WAT      O48712   7.912   2.436   3.963
16157WAT     H148713   7.888   2.471   3.872
16157WAT     H248714   7.874   2.497   4.033
16158WAT      O48715   6.349   4.476   6.312
16158WAT     H148716   6.416   4.526   6.257
16158WAT     H248717   6.389   4.453   6.401
16159WAT      O48718   9.583   2.261   2.353
16159WAT     H148719   9.671   2.305   2.371
16159WAT     H248720   9.520   2.327   2.313
16160WAT      O48721   8.675   9.238   8.032
16160WAT     H148722   8.634   9.146   8.025
16160WAT     H248723   8.765   9.231   8.074
16161WAT      O48724   8.841   1.248   2.139
16161WAT     H148725   8.783   1.262   2.059
16161WAT     H248726   8.934   1.281   2.120
16162WAT      O48727   4.874   3.494   1.422
16162WAT     H148728   4.914   3.534   1.339
16162WAT     H248729   4.830   3.407   1.399
16163WAT      O48730   7.431   0.049   9.523
16163WAT     H148731   7.499  -0.011   9.483
16163WAT     H248732   7.374  -0.003   9.586
16164WAT      O48733   4.480   0.772   7.418
16164WAT     H148734   4.549   0.719   7.466
16164WAT     H248735   4.493   0.869   7.437
16165WAT      O48736   1.451   2.332   3.541
16165WAT     H148737   1.421   2.424   3.515
16165WAT     H248738   1.504   2.338   3.626
16166WAT      O48739   6.977   6.904   7.230
16166WAT     H148740   6.893   6.878   7.182
16166WAT     H248741   7.020   6.822   7.267
16167WAT      O48742   9.612   5.870   7.894
16167WAT     H148743   9.520   5.835   7.876
16167WAT     H248744   9.667   5.862   7.812
16168WAT      O48745   8.785   1.226   9.479
16168WAT     H148746   8.783   1.147   9.418
16168WAT     H248747   8.802   1.196   9.572
16169WAT      O48748   5.784   9.763   0.730
16169WAT     H148749   5.864   9.703   0.735
16169WAT     H248750   5.720   9.740   0.804
16170WAT      O48751   4.305   8.359   9.415
16170WAT     H148752   4.324   8.266   9.447
16170WAT     H248753   4.215   8.388   9.447
16171WAT      O48754   3.620   8.491   1.375
16171WAT     H148755   3.544   8.547   1.343
16171WAT     H248756   3.683   8.548   1.430
16172WAT      O48757   1.364   8.878   2.762
16172WAT     H148758   1.436   8.937   2.725
16172WAT     H248759   1.278   8.898   2.715
16173WAT      O48760   6.764   1.682   2.721
16173WAT     H148761   6.770   1.583   2.735
16173WAT     H248762   6.701   1.721   2.789
16174WAT      O48763   7.845   1.694   1.419
16174WAT     H148764   7.763   1.670   1.472
16174WAT     H248765   7.921   1.711   1.482
16175WAT      O48766   4.838   2.824   8.139
16175WAT     H148767   4.806   2.877   8.218
16175WAT     H248768   4.841   2.727   8.162
16176WAT      O48769   0.630   3.223   2.790
16176WAT     H148770   0.614   3.292   2.719
16176WAT     H248771   0.543   3.195   2.830
16177WAT      O48772   7.126   2.939   3.535
16177WAT     H148773   7.110   2.894   3.623
16177WAT     H248774   7.221   2.923   3.506
16178WAT      O48775   2.832   8.663   2.811
16178WAT     H148776   2.793   8.594   2.751
16178WAT     H248777   2.914   8.626   2.855
16179WAT      O48778   6.559   1.104   9.096
16179WAT     H148779   6.475   1.141   9.058
16179WAT     H248780   6.615   1.179   9.133
16180WAT      O48781   8.284   4.846   2.540
16180WAT     H148782   8.334   4.902   2.475
16180WAT     H248783   8.252   4.903   2.616
16181WAT      O48784   7.387   3.472   2.420
16181WAT     H148785   7.366   3.374   2.421
16181WAT     H248786   7.442   3.492   2.339
16182WAT      O48787   9.509   9.376   7.918
16182WAT     H148788   9.552   9.465   7.936
16182WAT     H248789   9.538   9.310   7.988
16183WAT      O48790   4.725   2.435   7.581
16183WAT     H148791   4.737   2.338   7.599
16183WAT     H248792   4.796   2.467   7.518
16184WAT      O48793   0.416   7.369   5.107
16184WAT     H148794   0.374   7.289   5.066
16184WAT     H248795   0.379   7.452   5.064
16185WAT      O48796   4.216   2.932   7.472
16185WAT     H148797   4.263   3.009   7.516
16185WAT     H248798   4.273   2.850   7.477
16186WAT      O48799   1.964   9.674   4.540
16186WAT     H148800   2.062   9.686   4.558
16186WAT     H248801   1.944   9.697   4.445
16187WAT      O48802   7.535   0.779   0.895
16187WAT     H148803   7.516   0.813   0.803
16187WAT     H248804   7.615   0.718   0.893
16188WAT      O48805   4.844   8.001   6.649
16188WAT     H148806   4.790   7.940   6.708
16188WAT     H248807   4.817   7.987   6.554
16189WAT      O48808   7.708   5.657   4.397
16189WAT     H148809   7.664   5.737   4.438
16189WAT     H248810   7.679   5.575   4.447
16190WAT      O48811   6.521   4.788   9.630
16190WAT     H148812   6.576   4.815   9.551
16190WAT     H248813   6.539   4.692   9.652
16191WAT      O48814   0.808   8.320   8.410
16191WAT     H148815   0.721   8.290   8.450
16191WAT     H248816   0.860   8.240   8.380
16192WAT      O48817   3.326   6.928   6.336
16192WAT     H148818   3.418   6.898   6.311
16192WAT     H248819   3.313   7.022   6.306
16193WAT      O48820   7.810   1.659   3.862
16193WAT     H148821   7.780   1.752   3.841
16193WAT     H248822   7.804   1.645   3.961
16194WAT      O48823   9.389   7.041   6.207
16194WAT     H148824   9.311   6.982   6.226
16194WAT     H248825   9.376   7.087   6.119
16195WAT      O48826   5.430   6.916   9.893
16195WAT     H148827   5.424   6.964   9.805
16195WAT     H248828   5.515   6.942   9.940
16196WAT      O48829   1.051   4.039   1.290
16196WAT     H148830   1.074   4.033   1.193
16196WAT     H248831   1.102   4.114   1.332
16197WAT      O48832   1.175   3.471   9.308
16197WAT     H148833   1.214   3.425   9.388
16197WAT     H248834   1.099   3.530   9.337
16198WAT      O48835   1.710   4.327   4.185
16198WAT     H148836   1.756   4.350   4.271
16198WAT     H248837   1.773   4.275   4.128
16199WAT      O48838   7.408   1.717   5.373
16199WAT     H148839   7.327   1.680   5.329
16199WAT     H248840   7.410   1.816   5.362
16200WAT      O48841   2.940   9.670   5.731
16200WAT     H148842   2.856   9.669   5.786
16200WAT     H248843   3.009   9.614   5.775
16201WAT      O48844   6.943   6.631   3.155
16201WAT     H148845   7.043   6.636   3.151
16201WAT     H248846   6.916   6.544   3.197
16202WAT      O48847   2.748   4.446   1.064
16202WAT     H148848   2.649   4.447   1.073
16202WAT     H248849   2.783   4.540   1.067
16203WAT      O48850   5.111   8.013   1.601
16203WAT     H148851   5.014   8.031   1.586
16203WAT     H248852   5.134   7.923   1.565
16204WAT      O48853   1.143   4.974   2.946
16204WAT     H148854   1.214   4.983   2.877
16204WAT     H248855   1.084   4.896   2.923
16205WAT      O48856   2.162   5.519   1.337
16205WAT     H148857   2.128   5.603   1.294
16205WAT     H248858   2.155   5.443   1.273
16206WAT      O48859   3.900   6.301   5.289
16206WAT     H148860   3.910   6.235   5.215
16206WAT     H248861   3.808   6.294   5.328
16207WAT      O48862   8.463   9.023   3.647
16207WAT     H148863   8.398   8.959   3.607
16207WAT     H248864   8.455   9.021   3.747
16208WAT      O48865   6.685   5.739   8.647
16208WAT     H148866   6.599   5.702   8.682
16208WAT     H248867   6.704   5.826   8.692
16209WAT      O48868   3.827   4.377   0.730
16209WAT     H148869   3.758   4.307   0.714
16209WAT     H248870   3.905   4.337   0.777
16210WAT      O48871   4.338   4.908   1.306
16210WAT     H148872   4.325   4.994   1.256
16210WAT     H248873   4.343   4.928   1.404
16211WAT      O48874   3.453   5.039   4.603
16211WAT     H148875   3.531   5.087   4.645
16211WAT     H248876   3.368   5.086   4.628
16212WAT      O48877   0.516   4.886   3.958
16212WAT     H148878   0.560   4.942   3.887
16212WAT     H248879   0.585   4.828   4.001
16213WAT      O48880   5.351   9.502   0.734
16213WAT     H148881   5.401   9.578   0.775
16213WAT     H248882   5.341   9.429   0.801
16214WAT      O48883   0.632   9.556   5.393
16214WAT     H148884   0.554   9.570   5.453
16214WAT     H248885   0.612   9.484   5.327
16215WAT      O48886   7.039   6.225   5.850
16215WAT     H148887   7.084   6.299   5.902
16215WAT     H248888   6.944   6.251   5.832
16216WAT      O48889   5.389   3.137   6.652
16216WAT     H148890   5.370   3.199   6.728
16216WAT     H248891   5.336   3.053   6.664
16217WAT      O48892   2.473   1.031   1.008
16217WAT     H148893   2.382   0.991   1.020
16217WAT     H248894   2.468   1.130   1.019
16218WAT      O48895   3.482   2.733   1.894
16218WAT     H148896   3.577   2.763   1.885
16218WAT     H248897   3.480   2.634   1.905
16219WAT      O48898   0.282   5.412   3.500
16219WAT     H148899   0.193   5.405   3.544
16219WAT     H248900   0.338   5.481   3.546
16220WAT      O48901   7.095   1.648   9.737
16220WAT     H148902   7.169   1.707   9.705
16220WAT     H248903   7.008   1.679   9.699
16221WAT      O48904   3.296   7.780   9.412
16221WAT     H148905   3.235   7.765   9.334
16221WAT     H248906   3.250   7.836   9.481
16222WAT      O48907   5.708   0.554   3.659
16222WAT     H148908   5.731   0.481   3.595
16222WAT     H248909   5.649   0.518   3.731
16223WAT      O48910   7.941   9.019   3.697
16223WAT     H148911   8.019   9.071   3.663
16223WAT     H248912   7.878   8.999   3.622
16224WAT      O48913   1.937   8.846   2.377
16224WAT     H148914   1.933   8.823   2.280
16224WAT     H248915   1.980   8.935   2.389
16225WAT      O48916   5.536   8.031   2.964
16225WAT     H148917   5.468   8.011   2.893
16225WAT     H248918   5.590   7.949   2.982
16226WAT      O48919   8.049   5.642   6.839
16226WAT     H148920   8.011   5.647   6.932
16226WAT     H248921   8.147   5.622   6.845
16227WAT      O48922   2.005   1.907   9.354
16227WAT     H148923   1.966   1.815   9.347
16227WAT     H248924   2.092   1.910   9.306
16228WAT      O48925   5.146   2.778   6.421
16228WAT     H148926   5.106   2.866   6.397
16228WAT     H248927   5.090   2.735   6.492
16229WAT      O48928   1.717   8.803   2.986
16229WAT     H148929   1.727   8.897   2.952
16229WAT     H248930   1.778   8.789   3.063
16230WAT      O48931   5.415   8.878   3.150
16230WAT     H148932   5.489   8.920   3.098
16230WAT     H248933   5.328   8.920   3.125
16231WAT      O48934   5.463   9.008   0.345
16231WAT     H148935   5.558   9.030   0.322
16231WAT     H248936   5.447   8.910   0.330
16232WAT      O48937   0.876   8.375   3.270
16232WAT     H148938   0.975   8.371   3.281
16232WAT     H248939   0.842   8.286   3.240
16233WAT      O48940   4.055   3.214   7.655
16233WAT     H148941   3.969   3.264   7.650
16233WAT     H248942   4.041   3.126   7.701
16234WAT      O48943   1.440   4.968   0.881
16234WAT     H148944   1.435   5.037   0.808
16234WAT     H248945   1.411   4.880   0.845
16235WAT      O48946   5.312   7.801   0.423
16235WAT     H148947   5.370   7.849   0.358
16235WAT     H248948   5.363   7.780   0.506
16236WAT      O48949   3.040   2.620   4.819
16236WAT     H148950   2.949   2.625   4.860
16236WAT     H248951   3.067   2.524   4.810
16237WAT      O48952   1.075   2.684   1.726
16237WAT     H148953   1.173   2.668   1.738
16237WAT     H248954   1.024   2.615   1.778
16238WAT      O48955   4.008   6.255   8.843
16238WAT     H148956   3.916   6.230   8.812
16238WAT     H248957   4.020   6.354   8.834
16239WAT      O48958   7.439   8.551   2.994
16239WAT     H148959   7.481   8.538   3.084
16239WAT     H248960   7.387   8.636   2.993
16240WAT      O48961   8.295   1.240   7.065
16240WAT     H148962   8.255   1.238   6.973
16240WAT     H248963   8.385   1.198   7.064
16241WAT      O48964   8.558   2.536   9.017
16241WAT     H148965   8.583   2.580   8.931
16241WAT     H248966   8.615   2.455   9.031
16242WAT      O48967   5.411   5.693   3.108
16242WAT     H148968   5.496   5.711   3.058
16242WAT     H248969   5.402   5.594   3.121
16243WAT      O48970   1.598   8.231   0.792
16243WAT     H148971   1.586   8.281   0.878
16243WAT     H248972   1.621   8.136   0.812
16244WAT      O48973   6.933   1.939   5.393
16244WAT     H148974   6.978   2.014   5.441
16244WAT     H248975   6.965   1.852   5.430
16245WAT      O48976   6.092   9.756   2.379
16245WAT     H148977   6.088   9.696   2.458
16245WAT     H248978   6.145   9.713   2.307
16246WAT      O48979   1.199   6.372   5.821
16246WAT     H148980   1.172   6.346   5.728
16246WAT     H248981   1.140   6.325   5.887
16247WAT      O48982   0.790   8.055   8.141
16247WAT     H148983   0.838   8.088   8.223
16247WAT     H248984   0.692   8.075   8.150
16248WAT      O48985   5.812   6.334   6.352
16248WAT     H148986   5.797   6.277   6.433
16248WAT     H248987   5.902   6.377   6.358
16249WAT      O48988   3.088   4.586   0.888
16249WAT     H148989   3.007   4.611   0.942
16249WAT     H248990   3.161   4.651   0.905
16250WAT      O48991   4.013   7.680   3.866
16250WAT     H148992   3.982   7.660   3.959
16250WAT     H248993   3.935   7.708   3.810
16251WAT      O48994   2.379   6.467   5.298
16251WAT     H148995   2.327   6.383   5.286
16251WAT     H248996   2.404   6.504   5.209
16252WAT      O48997   8.409   5.858   9.594
16252WAT     H148998   8.330   5.823   9.644
16252WAT     H248999   8.488   5.799   9.609
16253WAT      O49000   5.722   3.487   1.184
16253WAT     H149001   5.727   3.448   1.276
16253WAT     H249002   5.797   3.452   1.129
16254WAT      O49003   7.267   8.006   9.369
16254WAT     H149004   7.259   7.972   9.463
16254WAT     H249005   7.182   7.988   9.320
16255WAT      O49006   4.577   5.309   8.015
16255WAT     H149007   4.620   5.242   8.076
16255WAT     H249008   4.485   5.329   8.047
16256WAT      O49009   0.776   3.202   0.217
16256WAT     H149010   0.686   3.242   0.200
16256WAT     H249011   0.773   3.149   0.301
16257WAT      O49012   5.979   9.597   0.812
16257WAT     H149013   5.894   9.590   0.864
16257WAT     H249014   6.046   9.651   0.863
16258WAT      O49015   5.031   2.647   6.102
16258WAT     H149016   5.078   2.580   6.044
16258WAT     H249017   5.064   2.739   6.080
16259WAT      O49018   1.371   2.604   3.441
16259WAT     H149019   1.306   2.574   3.372
16259WAT     H249020   1.322   2.644   3.518
16260WAT      O49021   0.466   1.670   2.671
16260WAT     H149022   0.405   1.616   2.728
16260WAT     H249023   0.437   1.766   2.673
16261WAT      O49024   6.300   9.031   5.258
16261WAT     H149025   6.323   9.099   5.188
16261WAT     H249026   6.282   8.943   5.215
16262WAT      O49027   2.271   3.411   1.609
16262WAT     H149028   2.244   3.331   1.555
16262WAT     H249029   2.221   3.412   1.696
16263WAT      O49030   2.095   1.791   7.209
16263WAT     H149031   2.126   1.702   7.175
16263WAT     H249032   2.156   1.821   7.282
16264WAT      O49033   3.461   4.471   6.642
16264WAT     H149034   3.519   4.413   6.699
16264WAT     H249035   3.455   4.562   6.683
16265WAT      O49036   5.324   7.724   5.772
16265WAT     H149037   5.364   7.657   5.835
16265WAT     H249038   5.286   7.800   5.825
16266WAT      O49039   9.497   7.873   7.876
16266WAT     H149040   9.591   7.903   7.894
16266WAT     H249041   9.478   7.882   7.778
16267WAT      O49042   3.896   5.327   3.366
16267WAT     H149043   3.920   5.330   3.463
16267WAT     H249044   3.849   5.411   3.340
16268WAT      O49045   9.233   8.025   7.967
16268WAT     H149046   9.330   8.014   7.946
16268WAT     H249047   9.194   7.936   7.992
16269WAT      O49048   8.666   0.829   1.651
16269WAT     H149049   8.732   0.891   1.693
16269WAT     H249050   8.620   0.776   1.722
16270WAT      O49051   7.194   2.947   7.873
16270WAT     H149052   7.139   2.906   7.801
16270WAT     H249053   7.135   2.980   7.946
16271WAT      O49054   1.959   5.579   3.823
16271WAT     H149055   1.926   5.544   3.735
16271WAT     H249056   2.013   5.508   3.869
16272WAT      O49057   0.729   2.052   1.419
16272WAT     H149058   0.689   1.987   1.353
16272WAT     H249059   0.741   2.006   1.507
16273WAT      O49060   3.207   4.575   8.154
16273WAT     H149061   3.288   4.517   8.155
16273WAT     H249062   3.180   4.594   8.060
16274WAT      O49063   9.640   6.143   5.900
16274WAT     H149064   9.572   6.217   5.901
16274WAT     H249065   9.604   6.064   5.949
16275WAT      O49066   1.567   1.484   1.547
16275WAT     H149067   1.522   1.421   1.611
16275WAT     H249068   1.550   1.453   1.453
16276WAT      O49069   7.849   8.750   9.468
16276WAT     H149070   7.778   8.805   9.512
16276WAT     H249071   7.891   8.689   9.535
16277WAT      O49072   6.765   4.088   3.810
16277WAT     H149073   6.821   4.006   3.810
16277WAT     H249074   6.761   4.126   3.902
16278WAT      O49075   6.045   3.245   5.931
16278WAT     H149076   5.952   3.280   5.914
16278WAT     H249077   6.044   3.145   5.928
16279WAT      O49078   8.037   0.197   2.437
16279WAT     H149079   8.035   0.133   2.360
16279WAT     H249080   7.944   0.220   2.464
16280WAT      O49081   1.993   7.946   4.769
16280WAT     H149082   2.079   7.994   4.789
16280WAT     H249083   1.920   7.982   4.828
16281WAT      O49084   7.058   7.872   7.101
16281WAT     H149085   6.969   7.905   7.069
16281WAT     H249086   7.081   7.915   7.188
16282WAT      O49087   9.483   6.406   6.798
16282WAT     H149088   9.484   6.476   6.727
16282WAT     H249089   9.392   6.404   6.841
16283WAT      O49090   3.145   8.909   7.081
16283WAT     H149091   3.061   8.920   7.027
16283WAT     H249092   3.217   8.967   7.042
16284WAT      O49093   1.866   2.596   1.491
16284WAT     H149094   1.897   2.669   1.552
16284WAT     H249095   1.876   2.508   1.537
16285WAT      O49096   6.938   8.435   7.057
16285WAT     H149097   6.902   8.476   6.973
16285WAT     H249098   6.868   8.378   7.099
16286WAT      O49099   3.185   4.025   2.582
16286WAT     H149100   3.248   3.949   2.567
16286WAT     H249101   3.230   4.096   2.636
16287WAT      O49102   5.776   0.979   8.860
16287WAT     H149103   5.740   1.062   8.903
16287WAT     H249104   5.849   0.941   8.916
16288WAT      O49105   8.612   8.962   5.794
16288WAT     H149106   8.548   9.003   5.729
16288WAT     H249107   8.705   8.971   5.759
16289WAT      O49108   1.501   4.068   5.070
16289WAT     H149109   1.558   3.987   5.082
16289WAT     H249110   1.558   4.144   5.037
16290WAT      O49111   2.914   7.259   6.535
16290WAT     H149112   2.931   7.298   6.444
16290WAT     H249113   2.819   7.279   6.561
16291WAT      O49114   6.809   1.203   2.398
16291WAT     H149115   6.757   1.277   2.442
16291WAT     H249116   6.753   1.163   2.325
16292WAT      O49117   0.792   3.765   5.347
16292WAT     H149118   0.827   3.695   5.410
16292WAT     H249119   0.836   3.853   5.366
16293WAT      O49120   1.836   0.058   3.531
16293WAT     H149121   1.893   0.102   3.600
16293WAT     H249122   1.868   0.084   3.440
16294WAT      O49123   2.801   1.019   4.015
16294WAT     H149124   2.816   1.116   4.032
16294WAT     H249125   2.823   0.967   4.098
16295WAT      O49126   2.005   6.296   4.632
16295WAT     H149127   2.104   6.300   4.645
16295WAT     H249128   1.982   6.325   4.539
16296WAT      O49129   7.613   3.690   0.586
16296WAT     H149130   7.521   3.689   0.547
16296WAT     H249131   7.617   3.624   0.662
16297WAT      O49132   5.399   8.995   3.754
16297WAT     H149133   5.361   9.087   3.744
16297WAT     H249134   5.420   8.958   3.664
16298WAT      O49135   2.612   2.803   4.955
16298WAT     H149136   2.615   2.771   4.860
16298WAT     H249137   2.518   2.801   4.988
16299WAT      O49138   1.518   6.749   6.717
16299WAT     H149139   1.560   6.661   6.738
16299WAT     H249140   1.471   6.743   6.629
16300WAT      O49141   6.478   4.789   2.936
16300WAT     H149142   6.516   4.697   2.927
16300WAT     H249143   6.380   4.786   2.918
16301WAT      O49144   1.837   8.636   2.553
16301WAT     H149145   1.869   8.703   2.486
16301WAT     H249146   1.737   8.633   2.552
16302WAT      O49147   8.262   4.594   6.198
16302WAT     H149148   8.287   4.538   6.277
16302WAT     H249149   8.163   4.591   6.184
16303WAT      O49150   5.337   7.264   5.625
16303WAT     H149151   5.279   7.308   5.693
16303WAT     H249152   5.281   7.226   5.552
16304WAT      O49153   9.326   3.211   0.064
16304WAT     H149154   9.377   3.210  -0.022
16304WAT     H249155   9.282   3.123   0.078
16305WAT      O49156   0.723   6.635   3.883
16305WAT     H149157   0.786   6.691   3.830
16305WAT     H249158   0.731   6.540   3.855
16306WAT      O49159   3.593   5.047   1.060
16306WAT     H149160   3.676   5.095   1.089
16306WAT     H249161   3.615   4.950   1.044
16307WAT      O49162   4.104   5.171   9.255
16307WAT     H149163   4.033   5.240   9.239
16307WAT     H249164   4.194   5.216   9.261
16308WAT      O49165   0.370   9.646   2.377
16308WAT     H149166   0.296   9.701   2.340
16308WAT     H249167   0.440   9.633   2.307
16309WAT      O49168   9.438   0.955   4.480
16309WAT     H149169   9.373   0.967   4.556
16309WAT     H249170   9.509   1.024   4.486
16310WAT      O49171   2.255   9.826   3.302
16310WAT     H149172   2.167   9.779   3.289
16310WAT     H249173   2.305   9.826   3.216
16311WAT      O49174   2.251   7.530   6.292
16311WAT     H149175   2.216   7.512   6.384
16311WAT     H249176   2.348   7.506   6.288
16312WAT      O49177   3.143   3.936   5.742
16312WAT     H149178   3.054   3.924   5.787
16312WAT     H249179   3.208   3.976   5.806
16313WAT      O49180   9.035   7.751   7.027
16313WAT     H149181   9.062   7.794   7.113
16313WAT     H249182   9.105   7.684   7.001
16314WAT      O49183   8.489   6.292   7.783
16314WAT     H149184   8.449   6.204   7.758
16314WAT     H249185   8.579   6.301   7.742
16315WAT      O49186   4.053   2.099   3.266
16315WAT     H149187   4.036   2.144   3.354
16315WAT     H249188   3.967   2.092   3.215
16316WAT      O49189   4.677   9.621   2.473
16316WAT     H149190   4.591   9.620   2.524
16316WAT     H249191   4.738   9.689   2.514
16317WAT      O49192   1.471   6.620   6.106
16317WAT     H149193   1.384   6.615   6.155
16317WAT     H249194   1.547   6.609   6.171
16318WAT      O49195   3.475   5.998   3.730
16318WAT     H149196   3.432   6.078   3.688
16318WAT     H249197   3.425   5.973   3.813
16319WAT      O49198   4.068   0.619   6.037
16319WAT     H149199   3.998   0.629   6.107
16319WAT     H249200   4.139   0.556   6.068
16320WAT      O49201   0.614   2.774   8.265
16320WAT     H149202   0.662   2.759   8.179
16320WAT     H249203   0.523   2.810   8.247
16321WAT      O49204   8.984   9.140   9.021
16321WAT     H149205   8.919   9.173   8.952
16321WAT     H249206   8.944   9.061   9.068
16322WAT      O49207   0.022   3.438   2.342
16322WAT     H149208  -0.061   3.427   2.286
16322WAT     H249209   0.094   3.378   2.307
16323WAT      O49210   5.439   4.484   6.623
16323WAT     H149211   5.341   4.491   6.637
16323WAT     H249212   5.463   4.522   6.533
16324WAT      O49213   0.626   6.247   9.638
16324WAT     H149214   0.577   6.284   9.559
16324WAT     H249215   0.691   6.315   9.672
16325WAT      O49216   7.155   0.686   0.687
16325WAT     H149217   7.247   0.654   0.665
16325WAT     H249218   7.160   0.756   0.758
16326WAT      O49219   9.127   3.681   8.590
16326WAT     H149220   9.150   3.773   8.559
16326WAT     H249221   9.201   3.644   8.646
16327WAT      O49222   6.232   0.669   5.571
16327WAT     H149223   6.192   0.727   5.641
16327WAT     H249224   6.236   0.719   5.484
16328WAT      O49225   5.773   5.406   2.497
16328WAT     H149226   5.807   5.488   2.451
16328WAT     H249227   5.843   5.335   2.494
16329WAT      O49228   9.869   9.375   9.239
16329WAT     H149229   9.811   9.301   9.275
16329WAT     H249230   9.880   9.445   9.310
16330WAT      O49231   8.662   7.927   0.687
16330WAT     H149232   8.586   7.993   0.687
16330WAT     H249233   8.657   7.872   0.770
16331WAT      O49234   7.930   7.228   4.942
16331WAT     H149235   8.025   7.232   4.975
16331WAT     H249236   7.896   7.321   4.929
16332WAT      O49237   8.650   0.892   0.989
16332WAT     H149238   8.609   0.879   1.080
16332WAT     H249239   8.696   0.808   0.961
16333WAT      O49240   6.985   8.522   9.689
16333WAT     H149241   6.939   8.595   9.640
16333WAT     H249242   6.945   8.434   9.664
16334WAT      O49243   9.100   9.262   7.870
16334WAT     H149244   9.134   9.219   7.954
16334WAT     H249245   9.053   9.193   7.815
16335WAT      O49246   8.324   4.377   9.566
16335WAT     H149247   8.361   4.446   9.628
16335WAT     H249248   8.273   4.421   9.493
16336WAT      O49249   1.319   4.731   7.248
16336WAT     H149250   1.226   4.704   7.220
16336WAT     H249251   1.322   4.830   7.259
16337WAT      O49252   6.763   5.505   1.965
16337WAT     H149253   6.702   5.428   1.986
16337WAT     H249254   6.718   5.591   1.992
16338WAT      O49255   9.442   6.905   6.859
16338WAT     H149256   9.382   6.983   6.875
16338WAT     H249257   9.517   6.907   6.926
16339WAT      O49258   4.325   1.669   8.715
16339WAT     H149259   4.371   1.689   8.629
16339WAT     H249260   4.385   1.617   8.775
16340WAT      O49261   3.704   7.596   3.098
16340WAT     H149262   3.606   7.610   3.115
16340WAT     H249263   3.752   7.595   3.186
16341WAT      O49264   2.304   9.064   6.933
16341WAT     H149265   2.396   9.105   6.939
16341WAT     H249266   2.299   8.985   6.995
16342WAT      O49267   2.235   7.364   5.879
16342WAT     H149268   2.319   7.333   5.924
16342WAT     H249269   2.254   7.448   5.829
16343WAT      O49270   4.522   7.217   5.070
16343WAT     H149271   4.576   7.213   5.154
16343WAT     H249272   4.534   7.306   5.026
16344WAT      O49273   6.183   6.861   1.996
16344WAT     H149274   6.244   6.933   2.029
16344WAT     H249275   6.188   6.782   2.057
16345WAT      O49276   2.480   2.243   4.647
16345WAT     H149277   2.386   2.278   4.646
16345WAT     H249278   2.499   2.204   4.737
16346WAT      O49279   6.972   2.346   8.238
16346WAT     H149280   7.059   2.393   8.256
16346WAT     H249281   6.920   2.397   8.170
16347WAT      O49282   0.810   3.329   9.371
16347WAT     H149283   0.832   3.249   9.427
16347WAT     H249284   0.850   3.411   9.412
16348WAT      O49285   7.987   5.987   1.918
16348WAT     H149286   7.898   5.943   1.912
16348WAT     H249287   7.979   6.073   1.970
16349WAT      O49288   7.543   2.150   7.771
16349WAT     H149289   7.467   2.148   7.705
16349WAT     H249290   7.534   2.074   7.835
16350WAT      O49291   6.663   5.165   7.424
16350WAT     H149292   6.610   5.249   7.409
16350WAT     H249293   6.760   5.183   7.404
16351WAT      O49294   9.504   4.040   5.285
16351WAT     H149295   9.464   4.007   5.199
16351WAT     H249296   9.435   4.041   5.356
16352WAT      O49297   8.059   5.474   9.510
16352WAT     H149298   7.975   5.463   9.562
16352WAT     H249299   8.105   5.386   9.500
16353WAT      O49300   2.217   6.077   1.610
16353WAT     H149301   2.172   6.139   1.546
16353WAT     H249302   2.157   5.999   1.628
16354WAT      O49303   6.647   6.716   4.275
16354WAT     H149304   6.578   6.645   4.260
16354WAT     H249305   6.731   6.691   4.226
16355WAT      O49306   9.567   5.870   5.985
16355WAT     H149307   9.489   5.808   5.979
16355WAT     H249308   9.633   5.833   6.051
16356WAT      O49309   9.540   3.974   8.519
16356WAT     H149310   9.493   3.908   8.579
16356WAT     H249311   9.571   3.928   8.436
16357WAT      O49312   4.729   1.683   4.955
16357WAT     H149313   4.724   1.644   4.863
16357WAT     H249314   4.787   1.764   4.954
16358WAT      O49315   5.704   9.387   0.778
16358WAT     H149316   5.714   9.459   0.847
16358WAT     H249317   5.682   9.429   0.690
16359WAT      O49318   7.955   2.216   8.198
16359WAT     H149319   7.861   2.222   8.231
16359WAT     H249320   7.955   2.194   8.101
16360WAT      O49321   9.751   2.891   2.925
16360WAT     H149322   9.664   2.851   2.957
16360WAT     H249323   9.827   2.846   2.971
16361WAT      O49324   6.429   4.920   5.054
16361WAT     H149325   6.470   4.902   4.964
16361WAT     H249326   6.436   4.839   5.111
16362WAT      O49327   1.833   4.595   3.649
16362WAT     H149328   1.872   4.683   3.622
16362WAT     H249329   1.884   4.521   3.604
16363WAT      O49330   2.316   1.372   5.019
16363WAT     H149331   2.278   1.281   5.007
16363WAT     H249332   2.273   1.417   5.097
16364WAT      O49333   4.514   2.845   2.095
16364WAT     H149334   4.514   2.777   2.022
16364WAT     H249335   4.589   2.909   2.081
16365WAT      O49336   0.330   7.279   5.482
16365WAT     H149337   0.353   7.228   5.565
16365WAT     H249338   0.408   7.336   5.455
16366WAT      O49339   0.610   0.455   7.719
16366WAT     H149340   0.568   0.504   7.643
16366WAT     H249341   0.710   0.465   7.714
16367WAT      O49342   6.920   8.748   5.443
16367WAT     H149343   6.824   8.731   5.421
16367WAT     H249344   6.925   8.804   5.526
16368WAT      O49345   0.398   6.565   9.678
16368WAT     H149346   0.432   6.497   9.743
16368WAT     H249347   0.431   6.655   9.705
16369WAT      O49348   0.567   4.569   2.335
16369WAT     H149349   0.638   4.612   2.391
16369WAT     H249350   0.497   4.530   2.394
16370WAT      O49351   9.413   0.461   7.561
16370WAT     H149352   9.450   0.412   7.639
16370WAT     H249353   9.479   0.530   7.530
16371WAT      O49354   0.799   7.781   0.639
16371WAT     H149355   0.888   7.822   0.657
16371WAT     H249356   0.745   7.844   0.583
16372WAT      O49357   4.493   7.167   9.216
16372WAT     H149358   4.444   7.243   9.172
16372WAT     H249359   4.584   7.197   9.244
16373WAT      O49360   7.452   2.674   7.349
16373WAT     H149361   7.445   2.581   7.313
16373WAT     H249362   7.386   2.733   7.303
16374WAT      O49363   4.314   1.490   5.821
16374WAT     H149364   4.235   1.534   5.864
16374WAT     H249365   4.304   1.492   5.722
16375WAT      O49366   9.030   6.284   9.054
16375WAT     H149367   8.988   6.286   8.963
16375WAT     H249368   9.123   6.248   9.048
16376WAT      O49369   1.492   1.068   9.510
16376WAT     H149370   1.437   1.118   9.577
16376WAT     H249371   1.488   0.971   9.529
16377WAT      O49372   6.514   5.386   7.695
16377WAT     H149373   6.532   5.391   7.596
16377WAT     H249374   6.487   5.477   7.728
16378WAT      O49375   1.407   0.828   7.321
16378WAT     H149376   1.427   0.911   7.374
16378WAT     H249377   1.423   0.747   7.377
16379WAT      O49378   8.513   7.746   8.384
16379WAT     H149379   8.424   7.712   8.413
16379WAT     H249380   8.565   7.776   8.464
16380WAT      O49381   1.945   8.649   5.196
16380WAT     H149382   2.034   8.629   5.156
16380WAT     H249383   1.897   8.563   5.216
16381WAT      O49384   3.534   5.911   0.729
16381WAT     H149385   3.492   5.912   0.638
16381WAT     H249386   3.462   5.922   0.799
16382WAT      O49387   7.776   4.905   5.051
16382WAT     H149388   7.779   4.851   5.135
16382WAT     H249389   7.808   4.998   5.070
16383WAT      O49390   8.102   4.204   8.582
16383WAT     H149391   8.074   4.295   8.612
16383WAT     H249392   8.163   4.212   8.502
16384WAT      O49393   3.976   2.531   6.183
16384WAT     H149394   3.916   2.609   6.167
16384WAT     H249395   3.925   2.458   6.228
16385WAT      O49396   1.033   8.315   9.818
16385WAT     H149397   1.066   8.399   9.861
16385WAT     H249398   0.937   8.302   9.841
16386WAT      O49399   7.002   8.229   4.704
16386WAT     H149400   7.014   8.196   4.798
16386WAT     H249401   6.930   8.298   4.702
16387WAT      O49402   8.586   3.316   6.506
16387WAT     H149403   8.535   3.238   6.469
16387WAT     H249404   8.683   3.292   6.512
16388WAT      O49405   5.983   1.526   4.189
16388WAT     H149406   6.021   1.477   4.268
16388WAT     H249407   6.032   1.613   4.177
16389WAT      O49408   8.237   7.518   0.985
16389WAT     H149409   8.283   7.430   0.977
16389WAT     H249410   8.229   7.559   0.894
16390WAT      O49411   0.261   8.099   2.353
16390WAT     H149412   0.268   8.192   2.389
16390WAT     H249413   0.208   8.043   2.416
16391WAT      O49414   7.538   2.886   6.858
16391WAT     H149415   7.549   2.933   6.770
16391WAT     H249416   7.467   2.933   6.911
16392WAT      O49417   4.651   5.152   3.822
16392WAT     H149418   4.706   5.096   3.884
16392WAT     H249419   4.579   5.097   3.781
16393WAT      O49420   0.707   5.637   0.264
16393WAT     H149421   0.621   5.672   0.226
16393WAT     H249422   0.749   5.707   0.322
16394WAT      O49423   7.830   5.599   7.309
16394WAT     H149424   7.749   5.541   7.320
16394WAT     H249425   7.864   5.627   7.399
16395WAT      O49426   1.851   7.248   8.327
16395WAT     H149427   1.925   7.296   8.280
16395WAT     H249428   1.767   7.301   8.322
16396WAT      O49429   1.695   0.286   6.006
16396WAT     H149430   1.626   0.216   6.024
16396WAT     H249431   1.786   0.247   6.018
16397WAT      O49432   3.729   2.751   1.677
16397WAT     H149433   3.780   2.781   1.597
16397WAT     H249434   3.727   2.651   1.679
16398WAT      O49435   0.647   7.866   4.323
16398WAT     H149436   0.735   7.900   4.290
16398WAT     H249437   0.580   7.870   4.249
16399WAT      O49438   5.236   1.926   5.531
16399WAT     H149439   5.194   2.009   5.568
16399WAT     H249440   5.267   1.869   5.607
16400WAT      O49441   9.402   3.231   2.304
16400WAT     H149442   9.410   3.327   2.330
16400WAT     H249443   9.353   3.223   2.218
16401WAT      O49444   8.202   7.178   5.604
16401WAT     H149445   8.216   7.272   5.572
16401WAT     H249446   8.133   7.178   5.677
16402WAT      O49447   6.498   4.071   5.509
16402WAT     H149448   6.534   4.055   5.417
16402WAT     H249449   6.543   4.150   5.550
16403WAT      O49450   8.750   7.755   7.303
16403WAT     H149451   8.678   7.689   7.326
16403WAT     H249452   8.839   7.719   7.333
16404WAT      O49453   7.253   9.802   6.307
16404WAT     H149454   7.253   9.705   6.330
16404WAT     H249455   7.227   9.813   6.211
16405WAT      O49456   2.427   2.658   9.141
16405WAT     H149457   2.510   2.605   9.124
16405WAT     H249458   2.451   2.748   9.176
16406WAT      O49459   4.501   8.811   4.080
16406WAT     H149460   4.529   8.734   4.024
16406WAT     H249461   4.571   8.832   4.148
16407WAT      O49462   3.286   6.141   0.948
16407WAT     H149463   3.360   6.075   0.941
16407WAT     H249464   3.306   6.221   0.891
16408WAT      O49465   0.152   7.685   4.099
16408WAT     H149466   0.195   7.741   4.170
16408WAT     H249467   0.127   7.743   4.021
16409WAT      O49468   3.317   5.459   1.769
16409WAT     H149469   3.345   5.364   1.784
16409WAT     H249470   3.230   5.475   1.814
16410WAT      O49471   6.586   6.663   4.738
16410WAT     H149472   6.647   6.636   4.664
16410WAT     H249473   6.611   6.614   4.821
16411WAT      O49474   1.074   1.421   4.006
16411WAT     H149475   1.009   1.402   4.080
16411WAT     H249476   1.059   1.357   3.931
16412WAT      O49477   2.314   1.314   1.446
16412WAT     H149478   2.294   1.216   1.444
16412WAT     H249479   2.409   1.329   1.474
16413WAT      O49480   0.119   5.116   4.610
16413WAT     H149481   0.053   5.191   4.605
16413WAT     H249482   0.185   5.135   4.683
16414WAT      O49483   9.340   2.457   9.882
16414WAT     H149484   9.303   2.391   9.817
16414WAT     H249485   9.425   2.422   9.922
16415WAT      O49486   3.853   8.313   9.823
16415WAT     H149487   3.800   8.398   9.834
16415WAT     H249488   3.827   8.269   9.737
16416WAT      O49489   4.722   4.550   7.610
16416WAT     H149490   4.783   4.627   7.597
16416WAT     H249491   4.676   4.557   7.699
16417WAT      O49492   0.147   6.426   6.307
16417WAT     H149493   0.187   6.513   6.336
16417WAT     H249494   0.138   6.365   6.386
16418WAT      O49495   6.615   1.347   0.157
16418WAT     H149496   6.622   1.447   0.153
16418WAT     H249497   6.621   1.309   0.065
16419WAT      O49498   0.160   4.544   0.052
16419WAT     H149499   0.256   4.516   0.057
16419WAT     H249500   0.140   4.604   0.130
16420WAT      O49501   9.861   8.433   8.289
16420WAT     H149502   9.907   8.401   8.372
16420WAT     H249503   9.875   8.531   8.278
16421WAT      O49504   3.071   7.276   3.571
16421WAT     H149505   3.020   7.349   3.617
16421WAT     H249506   3.154   7.256   3.622
16422WAT      O49507   0.575   0.527   7.267
16422WAT     H149508   0.488   0.505   7.223
16422WAT     H249509   0.609   0.447   7.316
16423WAT      O49510   8.247   2.686   1.669
16423WAT     H149511   8.262   2.648   1.760
16423WAT     H249512   8.301   2.770   1.659
16424WAT      O49513   5.251   7.440   5.240
16424WAT     H149514   5.201   7.519   5.275
16424WAT     H249515   5.349   7.456   5.249
16425WAT      O49516   0.075   1.595   3.571
16425WAT     H149517   0.036   1.511   3.611
16425WAT     H249518   0.124   1.572   3.487
16426WAT      O49519   4.881   6.334   6.629
16426WAT     H149520   4.851   6.402   6.696
16426WAT     H249521   4.964   6.289   6.662
16427WAT      O49522   7.387   6.140   5.068
16427WAT     H149523   7.406   6.050   5.106
16427WAT     H249524   7.473   6.190   5.056
16428WAT      O49525   3.516   2.678   3.827
16428WAT     H149526   3.430   2.729   3.825
16428WAT     H249527   3.509   2.602   3.891
16429WAT      O49528   8.829   2.226   2.215
16429WAT     H149529   8.879   2.162   2.272
16429WAT     H249530   8.829   2.317   2.258
16430WAT      O49531   4.254   9.185   6.897
16430WAT     H149532   4.166   9.232   6.899
16430WAT     H249533   4.286   9.170   6.991
16431WAT      O49534   2.747   1.007   7.533
16431WAT     H149535   2.808   0.957   7.472
16431WAT     H249536   2.796   1.030   7.617
16432WAT      O49537   3.849   9.703   0.321
16432WAT     H149538   3.848   9.636   0.395
16432WAT     H249539   3.864   9.794   0.359
16433WAT      O49540   6.543   6.339   2.407
16433WAT     H149541   6.541   6.302   2.500
16433WAT     H249542   6.453   6.374   2.382
16434WAT      O49543   3.692   5.124   2.059
16434WAT     H149544   3.661   5.181   1.983
16434WAT     H249545   3.773   5.166   2.101
16435WAT      O49546   2.274   4.296   3.384
16435WAT     H149547   2.329   4.228   3.433
16435WAT     H249548   2.180   4.263   3.375
16436WAT      O49549   1.298   0.529   1.822
16436WAT     H149550   1.235   0.556   1.895
16436WAT     H249551   1.371   0.473   1.861
16437WAT      O49552   0.389   1.204   3.600
16437WAT     H149553   0.461   1.273   3.609
16437WAT     H249554   0.316   1.222   3.667
16438WAT      O49555   6.292   6.450   2.319
16438WAT     H149556   6.252   6.515   2.254
16438WAT     H249557   6.219   6.406   2.371
16439WAT      O49558   4.583   8.735   5.907
16439WAT     H149559   4.535   8.809   5.860
16439WAT     H249560   4.551   8.731   6.002
16440WAT      O49561   7.721   8.098   0.166
16440WAT     H149562   7.805   8.103   0.112
16440WAT     H249563   7.745   8.094   0.263
16441WAT      O49564   3.761   3.892   3.489
16441WAT     H149565   3.698   3.919   3.561
16441WAT     H249566   3.820   3.818   3.522
16442WAT      O49567   3.933   1.300   0.301
16442WAT     H149568   3.895   1.318   0.392
16442WAT     H249569   4.032   1.302   0.305
16443WAT      O49570   5.285   8.703   2.413
16443WAT     H149571   5.294   8.751   2.500
16443WAT     H249572   5.256   8.768   2.342
16444WAT      O49573   6.243   4.448   0.724
16444WAT     H149574   6.171   4.442   0.655
16444WAT     H249575   6.330   4.421   0.684
16445WAT      O49576   0.391   5.753   8.495
16445WAT     H149577   0.485   5.718   8.500
16445WAT     H249578   0.391   5.852   8.507
16446WAT      O49579   1.417   5.264   1.418
16446WAT     H149580   1.495   5.231   1.365
16446WAT     H249581   1.352   5.310   1.358
16447WAT      O49582   9.324   6.349   9.417
16447WAT     H149583   9.360   6.265   9.458
16447WAT     H249584   9.229   6.334   9.390
16448WAT      O49585   1.068   5.545   7.411
16448WAT     H149586   1.015   5.534   7.327
16448WAT     H249587   1.014   5.594   7.478
16449WAT      O49588   4.825   4.023   4.545
16449WAT     H149589   4.777   3.944   4.583
16449WAT     H249590   4.766   4.069   4.479
16450WAT      O49591   8.698   6.467   8.141
16450WAT     H149592   8.664   6.460   8.235
16450WAT     H249593   8.766   6.396   8.125
16451WAT      O49594   0.006   7.595   4.307
16451WAT     H149595   0.024   7.620   4.212
16451WAT     H249596  -0.074   7.535   4.310
16452WAT      O49597   7.364   1.152   2.821
16452WAT     H149598   7.427   1.120   2.891
16452WAT     H249599   7.389   1.113   2.732
16453WAT      O49600   7.355   2.497   8.023
16453WAT     H149601   7.431   2.468   7.964
16453WAT     H249602   7.271   2.498   7.969
16454WAT      O49603   9.303   5.112   3.752
16454WAT     H149604   9.257   5.116   3.664
16454WAT     H249605   9.368   5.187   3.760
16455WAT      O49606   1.505   7.561   8.516
16455WAT     H149607   1.464   7.544   8.605
16455WAT     H249608   1.546   7.652   8.514
16456WAT      O49609   9.451   7.573   9.488
16456WAT     H149610   9.452   7.473   9.486
16456WAT     H249611   9.407   7.607   9.405
16457WAT      O49612   9.365   6.072   7.389
16457WAT     H149613   9.385   6.169   7.379
16457WAT     H249614   9.301   6.044   7.317
16458WAT      O49615   1.892   6.585   7.070
16458WAT     H149616   1.812   6.527   7.083
16458WAT     H249617   1.933   6.565   6.981
16459WAT      O49618   2.160   1.657   2.445
16459WAT     H149619   2.089   1.715   2.406
16459WAT     H249620   2.118   1.589   2.505
16460WAT      O49621   3.267   5.400   6.527
16460WAT     H149622   3.275   5.404   6.626
16460WAT     H249623   3.196   5.464   6.497
16461WAT      O49624   0.900   4.621   3.004
16461WAT     H149625   0.920   4.528   2.973
16461WAT     H249626   0.937   4.687   2.938
16462WAT      O49627   9.838   1.370   7.308
16462WAT     H149628   9.921   1.414   7.342
16462WAT     H249629   9.761   1.433   7.320
16463WAT      O49630   8.039   2.828   2.904
16463WAT     H149631   7.984   2.748   2.927
16463WAT     H249632   8.136   2.804   2.905
16464WAT      O49633   5.422   8.298   1.170
16464WAT     H149634   5.424   8.362   1.093
16464WAT     H249635   5.356   8.225   1.151
16465WAT      O49636   2.335   1.008   0.319
16465WAT     H149637   2.392   1.014   0.237
16465WAT     H249638   2.306   1.100   0.347
16466WAT      O49639   9.352   2.562   1.762
16466WAT     H149640   9.332   2.633   1.695
16466WAT     H249641   9.298   2.480   1.740
16467WAT      O49642   6.478   9.222   9.289
16467WAT     H149643   6.490   9.123   9.287
16467WAT     H249644   6.549   9.264   9.345
16468WAT      O49645   8.613   0.368   0.067
16468WAT     H149646   8.591   0.298   0.135
16468WAT     H249647   8.684   0.335   0.006
16469WAT      O49648   3.169   5.347   3.855
16469WAT     H149649   3.268   5.332   3.858
16469WAT     H249650   3.123   5.274   3.906
16470WAT      O49651   3.369   4.974   0.442
16470WAT     H149652   3.403   5.064   0.471
16470WAT     H249653   3.443   4.907   0.450
16471WAT      O49654   8.713   3.146   5.856
16471WAT     H149655   8.638   3.085   5.834
16471WAT     H249656   8.729   3.147   5.954
16472WAT      O49657   3.944   6.891   1.856
16472WAT     H149658   3.960   6.818   1.922
16472WAT     H249659   4.031   6.933   1.830
16473WAT      O49660   2.392   9.622   0.754
16473WAT     H149661   2.333   9.566   0.695
16473WAT     H249662   2.363   9.717   0.750
16474WAT      O49663   1.505   5.186   5.643
16474WAT     H149664   1.414   5.161   5.677
16474WAT     H249665   1.571   5.115   5.670
16475WAT      O49666   2.466   1.337   4.590
16475WAT     H149667   2.531   1.279   4.541
16475WAT     H249668   2.492   1.433   4.579
16476WAT      O49669   2.049   7.021   1.842
16476WAT     H149670   2.005   6.972   1.918
16476WAT     H249671   2.114   7.088   1.879
16477WAT      O49672   3.272   9.659   1.081
16477WAT     H149673   3.248   9.648   1.177
16477WAT     H249674   3.189   9.678   1.028
16478WAT      O49675   3.841   7.653   9.021
16478WAT     H149676   3.846   7.571   8.965
16478WAT     H249677   3.802   7.728   8.966
16479WAT      O49678   5.550   0.444   0.027
16479WAT     H149679   5.515   0.383  -0.043
16479WAT     H249680   5.608   0.392   0.091
16480WAT      O49681   9.307   8.793   8.861
16480WAT     H149682   9.335   8.711   8.910
16480WAT     H249683   9.375   8.866   8.876
16481WAT      O49684   0.770   8.615   3.966
16481WAT     H149685   0.785   8.710   3.993
16481WAT     H249686   0.699   8.610   3.896
16482WAT      O49687   5.241   9.085   3.480
16482WAT     H149688   5.204   9.177   3.488
16482WAT     H249689   5.170   9.019   3.504
16483WAT      O49690   3.172   4.806   3.531
16483WAT     H149691   3.266   4.840   3.526
16483WAT     H249692   3.126   4.824   3.444
16484WAT      O49693   8.458   5.481   9.380
16484WAT     H149694   8.513   5.484   9.464
16484WAT     H249695   8.450   5.573   9.342
16485WAT      O49696   6.916   8.678   3.026
16485WAT     H149697   6.821   8.696   3.052
16485WAT     H249698   6.919   8.616   2.948
16486WAT      O49699   8.083   4.782   5.258
16486WAT     H149700   8.139   4.845   5.204
16486WAT     H249701   8.143   4.723   5.313
16487WAT      O49702   8.590   0.848   6.114
16487WAT     H149703   8.598   0.907   6.195
16487WAT     H249704   8.679   0.806   6.095
16488WAT      O49705   1.168   8.928   4.379
16488WAT     H149706   1.117   8.881   4.452
16488WAT     H249707   1.104   8.963   4.311
16489WAT      O49708   5.063   0.239   2.808
16489WAT     H149709   4.990   0.174   2.826
16489WAT     H249710   5.142   0.191   2.771
16490WAT      O49711   4.010   1.921   5.725
16490WAT     H149712   3.934   1.948   5.666
16490WAT     H249713   3.998   1.826   5.752
16491WAT      O49714   2.846   4.111   6.437
16491WAT     H149715   2.860   4.086   6.342
16491WAT     H249716   2.931   4.096   6.488
16492WAT      O49717   6.188   3.243   4.976
16492WAT     H149718   6.179   3.163   5.036
16492WAT     H249719   6.280   3.280   4.983
16493WAT      O49720   3.340   1.362   3.966
16493WAT     H149721   3.367   1.380   4.060
16493WAT     H249722   3.416   1.385   3.905
16494WAT      O49723   6.742   0.900   4.808
16494WAT     H149724   6.744   0.904   4.708
16494WAT     H249725   6.653   0.931   4.841
16495WAT      O49726   1.770   4.130   2.661
16495WAT     H149727   1.788   4.055   2.597
16495WAT     H249728   1.678   4.165   2.647
16496WAT      O49729   6.099   2.053   3.682
16496WAT     H149730   6.080   2.036   3.585
16496WAT     H249731   6.110   2.151   3.697
16497WAT      O49732   3.052   6.166   9.167
16497WAT     H149733   3.003   6.217   9.238
16497WAT     H249734   3.150   6.165   9.189
16498WAT      O49735   3.585   6.397   6.232
16498WAT     H149736   3.517   6.466   6.256
16498WAT     H249737   3.619   6.353   6.315
16499WAT      O49738   8.490   1.884   5.702
16499WAT     H149739   8.434   1.962   5.673
16499WAT     H249740   8.507   1.824   5.624
16500WAT      O49741   6.709   1.745   0.544
16500WAT     H149742   6.741   1.788   0.460
16500WAT     H249743   6.672   1.654   0.522
16501WAT      O49744   6.432   1.250   0.326
16501WAT     H149745   6.359   1.318   0.325
16501WAT     H249746   6.500   1.273   0.256
16502WAT      O49747   6.636   3.625   6.903
16502WAT     H149748   6.548   3.578   6.904
16502WAT     H249749   6.702   3.575   6.959
16503WAT      O49750   9.287   2.160   6.760
16503WAT     H149751   9.357   2.231   6.761
16503WAT     H249752   9.226   2.173   6.839
16504WAT      O49753   1.686   1.832   0.827
16504WAT     H149754   1.637   1.752   0.862
16504WAT     H249755   1.621   1.897   0.788
16505WAT      O49756   7.014   8.324   3.554
16505WAT     H149757   6.995   8.408   3.503
16505WAT     H249758   7.058   8.347   3.641
16506WAT      O49759   7.266   5.800   6.755
16506WAT     H149760   7.170   5.810   6.728
16506WAT     H249761   7.322   5.787   6.673
16507WAT      O49762   4.022   8.126   4.935
16507WAT     H149763   4.024   8.190   4.859
16507WAT     H249764   4.061   8.169   5.016
16508WAT      O49765   4.441   0.003   4.204
16508WAT     H149766   4.512   0.029   4.137
16508WAT     H249767   4.371  -0.051   4.158
16509WAT      O49768   6.545   9.152   3.094
16509WAT     H149769   6.643   9.149   3.080
16509WAT     H249770   6.522   9.231   3.151
16510WAT      O49771   3.573   2.880   6.532
16510WAT     H149772   3.498   2.819   6.508
16510WAT     H249773   3.591   2.874   6.631
16511WAT      O49774   5.868   3.547   4.253
16511WAT     H149775   5.897   3.562   4.347
16511WAT     H249776   5.949   3.538   4.195
16512WAT      O49777   1.691   4.865   5.429
16512WAT     H149778   1.733   4.923   5.359
16512WAT     H249779   1.594   4.853   5.407
16513WAT      O49780   0.399   8.561   0.959
16513WAT     H149781   0.322   8.607   1.003
16513WAT     H249782   0.462   8.527   1.029
16514WAT      O49783   7.832   9.205   2.295
16514WAT     H149784   7.844   9.127   2.357
16514WAT     H249785   7.911   9.266   2.303
16515WAT      O49786   7.254   4.939   5.694
16515WAT     H149787   7.271   5.004   5.620
16515WAT     H249788   7.196   4.865   5.661
16516WAT      O49789   0.203   9.453   3.129
16516WAT     H149790   0.301   9.435   3.129
16516WAT     H249791   0.159   9.403   3.055
16517WAT      O49792   9.693   4.414   6.974
16517WAT     H149793   9.620   4.363   7.020
16517WAT     H249794   9.682   4.512   6.991
16518WAT      O49795   8.933   7.403   1.998
16518WAT     H149796   8.919   7.456   1.915
16518WAT     H249797   8.903   7.309   1.983
16519WAT      O49798   8.448   6.619   9.599
16519WAT     H149799   8.414   6.667   9.518
16519WAT     H249800   8.380   6.553   9.629
16520WAT      O49801   8.194   8.438   2.950
16520WAT     H149802   8.274   8.395   2.909
16520WAT     H249803   8.219   8.528   2.985
16521WAT      O49804   9.768   4.705   9.749
16521WAT     H149805   9.694   4.771   9.736
16521WAT     H249806   9.842   4.747   9.800
16522WAT      O49807   1.378   6.140   9.495
16522WAT     H149808   1.360   6.174   9.402
16522WAT     H249809   1.297   6.096   9.531
16523WAT      O49810   5.880   2.402   8.347
16523WAT     H149811   5.948   2.385   8.276
16523WAT     H249812   5.792   2.364   8.320
16524WAT      O49813   6.773   0.979   8.701
16524WAT     H149814   6.732   0.936   8.620
16524WAT     H249815   6.729   1.067   8.718
16525WAT      O49816   9.698   7.096   5.367
16525WAT     H149817   9.772   7.100   5.300
16525WAT     H249818   9.653   7.007   5.363
16526WAT      O49819   4.607   8.382   4.496
16526WAT     H149820   4.664   8.404   4.575
16526WAT     H249821   4.573   8.288   4.505
16527WAT      O49822   1.525   0.383   6.287
16527WAT     H149823   1.566   0.292   6.273
16527WAT     H249824   1.573   0.449   6.229
16528WAT      O49825   0.660   6.825   9.265
16528WAT     H149826   0.738   6.875   9.301
16528WAT     H249827   0.662   6.827   9.165
16529WAT      O49828   8.642   3.497   7.094
16529WAT     H149829   8.704   3.491   7.016
16529WAT     H249830   8.617   3.592   7.111
16530WAT      O49831   1.412   3.663   8.175
16530WAT     H149832   1.478   3.627   8.108
16530WAT     H249833   1.460   3.693   8.257
16531WAT      O49834   5.535   1.704   3.258
16531WAT     H149835   5.583   1.705   3.346
16531WAT     H249836   5.577   1.636   3.199
16532WAT      O49837   0.255   6.695   4.160
16532WAT     H149838   0.220   6.789   4.158
16532WAT     H249839   0.256   6.658   4.067
16533WAT      O49840   6.667   6.677   0.284
16533WAT     H149841   6.719   6.695   0.368
16533WAT     H249842   6.573   6.651   0.308
16534WAT      O49843   3.802   0.449   8.457
16534WAT     H149844   3.764   0.533   8.419
16534WAT     H249845   3.729   0.380   8.465
16535WAT      O49846   2.889   9.549   4.195
16535WAT     H149847   2.972   9.587   4.154
16535WAT     H249848   2.889   9.449   4.183
16536WAT      O49849   5.965   3.231   7.115
16536WAT     H149850   5.956   3.329   7.096
16536WAT     H249851   6.053   3.199   7.078
16537WAT      O49852   0.986   2.923   1.394
16537WAT     H149853   1.034   2.990   1.338
16537WAT     H249854   1.004   2.943   1.491
16538WAT      O49855   5.209   6.924   4.107
16538WAT     H149856   5.271   6.852   4.139
16538WAT     H249857   5.122   6.882   4.080
16539WAT      O49858   6.378   2.079   6.494
16539WAT     H149859   6.314   2.087   6.570
16539WAT     H249860   6.453   2.145   6.506
16540WAT      O49861   7.507   6.520   6.809
16540WAT     H149862   7.537   6.425   6.821
16540WAT     H249863   7.408   6.525   6.824
16541WAT      O49864   5.149   2.046   1.467
16541WAT     H149865   5.135   1.950   1.490
16541WAT     H249866   5.209   2.053   1.387
16542WAT      O49867   6.409   4.706   8.975
16542WAT     H149868   6.469   4.660   9.041
16542WAT     H249869   6.315   4.673   8.986
16543WAT      O49870   7.892   6.353   4.800
16543WAT     H149871   7.942   6.356   4.887
16543WAT     H249872   7.818   6.420   4.803
16544WAT      O49873   0.480   2.792   9.754
16544WAT     H149874   0.482   2.753   9.662
16544WAT     H249875   0.433   2.880   9.752
16545WAT      O49876   2.127   7.962   3.110
16545WAT     H149877   2.186   8.038   3.137
16545WAT     H249878   2.031   7.988   3.122
16546WAT      O49879   5.323   5.172   4.280
16546WAT     H149880   5.372   5.215   4.204
16546WAT     H249881   5.387   5.117   4.334
16547WAT      O49882   4.235   6.079   0.679
16547WAT     H149883   4.307   6.053   0.615
16547WAT     H249884   4.193   6.164   0.649
16548WAT      O49885   8.696   4.698   3.191
16548WAT     H149886   8.762   4.769   3.164
16548WAT     H249887   8.626   4.690   3.120
16549WAT      O49888   6.108   1.110   0.574
16549WAT     H149889   6.067   1.079   0.488
16549WAT     H249890   6.039   1.109   0.646
16550WAT      O49891   7.956   4.902   1.096
16550WAT     H149892   7.985   4.916   1.002
16550WAT     H249893   7.949   4.990   1.143
16551WAT      O49894   4.162   8.244   5.145
16551WAT     H149895   4.098   8.319   5.160
16551WAT     H249896   4.256   8.279   5.145
16552WAT      O49897   8.675   7.691   3.431
16552WAT     H149898   8.662   7.767   3.367
16552WAT     H249899   8.712   7.727   3.517
16553WAT      O49900   7.672   4.376   5.532
16553WAT     H149901   7.640   4.446   5.467
16553WAT     H249902   7.596   4.349   5.591
16554WAT      O49903   8.182   3.770   5.418
16554WAT     H149904   8.219   3.707   5.349
16554WAT     H249905   8.102   3.729   5.462
16555WAT      O49906   2.783   2.164   5.641
16555WAT     H149907   2.746   2.180   5.732
16555WAT     H249908   2.846   2.086   5.644
16556WAT      O49909   5.254   7.549   8.429
16556WAT     H149910   5.286   7.459   8.398
16556WAT     H249911   5.178   7.579   8.372
16557WAT      O49912   2.818   1.341   6.571
16557WAT     H149913   2.846   1.347   6.475
16557WAT     H249914   2.737   1.397   6.586
16558WAT      O49915   6.466   9.087   4.869
16558WAT     H149916   6.469   9.004   4.924
16558WAT     H249917   6.559   9.114   4.844
16559WAT      O49918   3.414   6.624   7.721
16559WAT     H149919   3.370   6.572   7.794
16559WAT     H249920   3.422   6.566   7.639
16560WAT      O49921   3.527   3.495   9.310
16560WAT     H149922   3.528   3.509   9.211
16560WAT     H249923   3.582   3.566   9.354
16561WAT      O49924   4.977   5.871   5.447
16561WAT     H149925   4.936   5.916   5.527
16561WAT     H249926   4.905   5.846   5.383
16562WAT      O49927   6.176   4.419   0.212
16562WAT     H149928   6.160   4.485   0.138
16562WAT     H249929   6.192   4.469   0.298
16563WAT      O49930   5.357   5.392   1.542
16563WAT     H149931   5.438   5.404   1.485
16563WAT     H249932   5.377   5.327   1.616
16564WAT      O49933   5.188   7.013   7.772
16564WAT     H149934   5.258   6.990   7.704
16564WAT     H249935   5.191   7.112   7.789
16565WAT      O49936   7.498   4.207   1.659
16565WAT     H149937   7.470   4.286   1.714
16565WAT     H249938   7.574   4.160   1.703
16566WAT      O49939   4.088   5.833   6.795
16566WAT     H149940   4.112   5.883   6.712
16566WAT     H249941   4.118   5.738   6.786
16567WAT      O49942   5.718   4.694   6.146
16567WAT     H149943   5.770   4.680   6.231
16567WAT     H249944   5.621   4.699   6.167
16568WAT      O49945   2.507   9.541   4.241
16568WAT     H149946   2.544   9.632   4.259
16568WAT     H249947   2.468   9.538   4.149
16569WAT      O49948   0.085   5.209   6.103
16569WAT     H149949   0.061   5.122   6.060
16569WAT     H249950   0.074   5.201   6.202
16570WAT      O49951   1.228   7.033   2.669
16570WAT     H149952   1.137   7.047   2.709
16570WAT     H249953   1.264   7.121   2.639
16571WAT      O49954   1.712   9.401   2.966
16571WAT     H149955   1.624   9.355   2.953
16571WAT     H249956   1.759   9.410   2.878
16572WAT      O49957   2.551   1.427   7.556
16572WAT     H149958   2.637   1.478   7.547
16572WAT     H249959   2.563   1.336   7.515
16573WAT      O49960   6.967   9.155   8.775
16573WAT     H149961   7.014   9.228   8.726
16573WAT     H249962   6.874   9.144   8.739
16574WAT      O49963   7.441   1.699   8.942
16574WAT     H149964   7.441   1.754   8.859
16574WAT     H249965   7.348   1.691   8.978
16575WAT      O49966   5.199   9.148   9.705
16575WAT     H149967   5.179   9.056   9.671
16575WAT     H249968   5.273   9.188   9.651
16576WAT      O49969   0.979   0.692   6.435
16576WAT     H149970   1.009   0.611   6.385
16576WAT     H249971   0.979   0.771   6.374
16577WAT      O49972   4.640   5.462   9.719
16577WAT     H149973   4.695   5.379   9.712
16577WAT     H249974   4.656   5.519   9.638
16578WAT      O49975   7.201   4.855   0.350
16578WAT     H149976   7.132   4.816   0.411
16578WAT     H249977   7.276   4.893   0.404
16579WAT      O49978   8.055   6.206   3.916
16579WAT     H149979   8.095   6.145   3.985
16579WAT     H249980   8.029   6.293   3.959
16580WAT      O49981   6.858   8.951   7.476
16580WAT     H149982   6.906   9.013   7.414
16580WAT     H249983   6.915   8.932   7.556
16581WAT      O49984   3.487   5.822   2.343
16581WAT     H149985   3.567   5.870   2.379
16581WAT     H249986   3.458   5.865   2.257
16582WAT      O49987   5.315   1.341   7.272
16582WAT     H149988   5.391   1.293   7.228
16582WAT     H249989   5.286   1.291   7.353
16583WAT      O49990   7.550   1.411   7.145
16583WAT     H149991   7.489   1.331   7.148
16583WAT     H249992   7.497   1.493   7.166
16584WAT      O49993   2.308   6.898   0.471
16584WAT     H149994   2.276   6.875   0.563
16584WAT     H249995   2.370   6.826   0.438
16585WAT      O49996   4.002   3.619   2.293
16585WAT     H149997   4.000   3.641   2.391
16585WAT     H249998   3.966   3.697   2.241
16586WAT      O49999   1.394   0.321   2.679
16586WAT     H150000   1.300   0.346   2.660
16586WAT     H250001   1.400   0.223   2.699
16587WAT      O50002   0.211   9.301   7.122
16587WAT     H150003   0.249   9.213   7.095
16587WAT     H250004   0.259   9.335   7.203
16588WAT      O50005   3.979   8.487   0.964
16588WAT     H150006   3.882   8.489   0.943
16588WAT     H250007   3.992   8.489   1.063
16589WAT      O50008   7.103   4.414   6.048
16589WAT     H150009   7.095   4.332   6.104
16589WAT     H250010   7.040   4.485   6.082
16590WAT      O50011   1.001   6.423   6.434
16590WAT     H150012   1.049   6.484   6.497
16590WAT     H250013   0.997   6.466   6.343
16591WAT      O50014   6.357   4.255   3.075
16591WAT     H150015   6.406   4.290   3.155
16591WAT     H250016   6.415   4.261   2.995
16592WAT      O50017   8.592   9.544   1.937
16592WAT     H150018   8.641   9.469   1.893
16592WAT     H250019   8.591   9.530   2.036
16593WAT      O50020   4.553   8.536   5.451
16593WAT     H150021   4.525   8.531   5.547
16593WAT     H250022   4.651   8.518   5.444
16594WAT      O50023   6.357   6.648   4.510
16594WAT     H150024   6.440   6.622   4.559
16594WAT     H250025   6.369   6.629   4.412
16595WAT      O50026   4.152   9.120   5.173
16595WAT     H150027   4.157   9.167   5.261
16595WAT     H250028   4.165   9.186   5.099
16596WAT      O50029   3.858   1.476   5.221
16596WAT     H150030   3.879   1.566   5.259
16596WAT     H250031   3.778   1.483   5.161
16597WAT      O50032   3.190   1.218   3.075
16597WAT     H150033   3.137   1.138   3.050
16597WAT     H250034   3.172   1.242   3.171
16598WAT      O50035   3.910   3.562   6.021
16598WAT     H150036   3.951   3.506   6.094
16598WAT     H250037   3.981   3.618   5.978
16599WAT      O50038   4.054   6.797   9.171
16599WAT     H150039   4.003   6.730   9.117
16599WAT     H250040   4.148   6.802   9.137
16600WAT      O50041   2.665   6.613   9.827
16600WAT     H150042   2.568   6.610   9.853
16600WAT     H250043   2.703   6.702   9.852
16601WAT      O50044   6.437   4.713   5.699
16601WAT     H150045   6.481   4.708   5.789
16601WAT     H250046   6.496   4.669   5.631
16602WAT      O50047   0.510   1.636   7.181
16602WAT     H150048   0.589   1.598   7.228
16602WAT     H250049   0.496   1.588   7.095
16603WAT      O50050   3.568   3.348   4.890
16603WAT     H150051   3.616   3.408   4.953
16603WAT     H250052   3.472   3.377   4.882
16604WAT      O50053   6.207   1.157   2.090
16604WAT     H150054   6.298   1.124   2.064
16604WAT     H250055   6.189   1.245   2.047
16605WAT      O50056   2.698   4.893   0.357
16605WAT     H150057   2.793   4.889   0.324
16605WAT     H250058   2.694   4.855   0.449
16606WAT      O50059   4.414   4.291   0.260
16606WAT     H150060   4.473   4.211   0.267
16606WAT     H250061   4.342   4.285   0.329
16607WAT      O50062   6.476   4.434   7.872
16607WAT     H150063   6.542   4.465   7.802
16607WAT     H250064   6.458   4.337   7.859
16608WAT      O50065   9.723   1.265   8.721
16608WAT     H150066   9.805   1.217   8.751
16608WAT     H250067   9.686   1.219   8.640
16609WAT      O50068   6.158   2.948   0.012
16609WAT     H150069   6.196   2.863  -0.022
16609WAT     H250070   6.060   2.952  -0.009
16610WAT      O50071   5.490   9.796   8.301
16610WAT     H150072   5.456   9.817   8.210
16610WAT     H250073   5.444   9.854   8.369
16611WAT      O50074   7.312   8.040   5.307
16611WAT     H150075   7.269   8.086   5.384
16611WAT     H250076   7.283   8.082   5.221
16612WAT      O50077   4.859   0.199   6.304
16612WAT     H150078   4.937   0.162   6.354
16612WAT     H250079   4.776   0.151   6.331
16613WAT      O50080   0.720   6.124   6.033
16613WAT     H150081   0.654   6.150   5.962
16613WAT     H250082   0.726   6.024   6.039
16614WAT      O50083   7.305   9.257   3.030
16614WAT     H150084   7.401   9.231   3.023
16614WAT     H250085   7.295   9.330   3.098
16615WAT      O50086   6.972   8.607   7.519
16615WAT     H150087   6.919   8.561   7.590
16615WAT     H250088   7.046   8.660   7.562
16616WAT      O50089   5.685   8.759   4.897
16616WAT     H150090   5.610   8.812   4.937
16616WAT     H250091   5.764   8.760   4.958
16617WAT      O50092   3.225   6.699   8.298
16617WAT     H150093   3.214   6.638   8.376
16617WAT     H250094   3.317   6.690   8.261
16618WAT      O50095   4.040   3.407   6.216
16618WAT     H150096   4.097   3.328   6.192
16618WAT     H250097   4.061   3.436   6.309
16619WAT      O50098   7.527   5.206   1.860
16619WAT     H150099   7.450   5.265   1.837
16619WAT     H250100   7.515   5.116   1.818
16620WAT      O50101   6.301   3.799   0.465
16620WAT     H150102   6.229   3.787   0.533
16620WAT     H250103   6.388   3.814   0.511
16621WAT      O50104   4.665   7.893   2.100
16621WAT     H150105   4.684   7.988   2.074
16621WAT     H250106   4.653   7.838   2.018
16622WAT      O50107   5.616   8.688   5.976
16622WAT     H150108   5.681   8.622   6.014
16622WAT     H250109   5.664   8.773   5.954
16623WAT      O50110   1.235   1.763   5.311
16623WAT     H150111   1.298   1.825   5.266
16623WAT     H250112   1.155   1.814   5.344
16624WAT      O50113   1.213   3.088   9.448
16624WAT     H150114   1.267   3.004   9.447
16624WAT     H250115   1.140   3.079   9.516
16625WAT      O50116   0.028   3.498   3.139
16625WAT     H150117   0.015   3.597   3.142
16625WAT     H250118   0.111   3.474   3.190
16626WAT      O50119   4.126   9.525   7.131
16626WAT     H150120   4.208   9.573   7.159
16626WAT     H250121   4.049   9.589   7.126
16627WAT      O50122   5.063   7.560   4.412
16627WAT     H150123   5.112   7.482   4.451
16627WAT     H250124   5.113   7.596   4.333
16628WAT      O50125   5.719   9.056   0.085
16628WAT     H150126   5.772   9.015   0.159
16628WAT     H250127   5.671   8.984   0.035
16629WAT      O50128   3.343   5.081   7.727
16629WAT     H150129   3.368   4.997   7.681
16629WAT     H250130   3.366   5.074   7.824
16630WAT      O50131   8.066   6.463   6.510
16630WAT     H150132   8.152   6.426   6.475
16630WAT     H250133   7.991   6.431   6.453
16631WAT      O50134   6.786   9.313   6.040
16631WAT     H150135   6.813   9.290   5.947
16631WAT     H250136   6.708   9.258   6.068
16632WAT      O50137   5.637   9.336   8.791
16632WAT     H150138   5.628   9.416   8.851
16632WAT     H250139   5.607   9.361   8.699
16633WAT      O50140   2.570   0.309   0.628
16633WAT     H150141   2.491   0.291   0.568
16633WAT     H250142   2.613   0.395   0.601
16634WAT      O50143   9.249   6.761   3.968
16634WAT     H150144   9.177   6.693   3.983
16634WAT     H250145   9.274   6.803   4.055
16635WAT      O50146   1.556   5.372   8.746
16635WAT     H150147   1.506   5.424   8.677
16635WAT     H250148   1.513   5.283   8.759
16636WAT      O50149   2.005   1.531   1.584
16636WAT     H150150   2.022   1.489   1.674
16636WAT     H250151   2.074   1.600   1.565
16637WAT      O50152   5.017   2.344   3.865
16637WAT     H150153   4.966   2.284   3.804
16637WAT     H250154   5.036   2.431   3.818
16638WAT      O50155   9.092   7.762   0.594
16638WAT     H150156   9.070   7.826   0.667
16638WAT     H250157   9.191   7.760   0.580
16639WAT      O50158   6.306   4.101   2.372
16639WAT     H150159   6.295   4.033   2.444
16639WAT     H250160   6.296   4.058   2.282
16640WAT      O50161   4.070   4.116   8.431
16640WAT     H150162   4.111   4.096   8.520
16640WAT     H250163   4.062   4.031   8.379
16641WAT      O50164   1.398   6.235   3.332
16641WAT     H150165   1.370   6.324   3.294
16641WAT     H250166   1.331   6.166   3.307
16642WAT      O50167   5.219   6.901   4.917
16642WAT     H150168   5.240   6.883   4.821
16642WAT     H250169   5.263   6.831   4.974
16643WAT      O50170   4.371   6.801   5.045
16643WAT     H150171   4.341   6.861   5.118
16643WAT     H250172   4.460   6.832   5.011
16644WAT      O50173   8.271   4.654   7.998
16644WAT     H150174   8.171   4.656   7.997
16644WAT     H250175   8.304   4.635   8.091
16645WAT      O50176   5.918   8.636   7.864
16645WAT     H150177   5.951   8.700   7.934
16645WAT     H250178   5.894   8.550   7.908
16646WAT      O50179   7.081   8.572   8.041
16646WAT     H150180   7.089   8.482   7.997
16646WAT     H250181   7.009   8.624   7.997
16647WAT      O50182   1.970   0.713   7.993
16647WAT     H150183   1.930   0.723   8.084
16647WAT     H250184   1.997   0.618   7.978
16648WAT      O50185   7.364   8.539   6.455
16648WAT     H150186   7.403   8.631   6.455
16648WAT     H250187   7.308   8.526   6.374
16649WAT      O50188   5.376   3.810   8.976
16649WAT     H150189   5.324   3.774   8.899
16649WAT     H250190   5.474   3.796   8.961
16650WAT      O50191   4.322   6.450   3.116
16650WAT     H150192   4.300   6.539   3.077
16650WAT     H250193   4.243   6.389   3.107
16651WAT      O50194   8.842   3.216   0.672
16651WAT     H150195   8.901   3.196   0.594
16651WAT     H250196   8.873   3.162   0.751
16652WAT      O50197   0.329   9.495   1.966
16652WAT     H150198   0.298   9.403   1.941
16652WAT     H250199   0.364   9.541   1.885
16653WAT      O50200   6.686   6.693   1.981
16653WAT     H150201   6.639   6.694   2.069
16653WAT     H250202   6.635   6.749   1.916
16654WAT      O50203   7.095   2.941   8.133
16654WAT     H150204   7.121   3.030   8.171
16654WAT     H250205   7.117   2.869   8.199
16655WAT      O50206   6.363   6.075   8.386
16655WAT     H150207   6.376   6.020   8.469
16655WAT     H250208   6.340   6.169   8.412
16656WAT      O50209   2.429   0.268   8.461
16656WAT     H150210   2.466   0.285   8.552
16656WAT     H250211   2.478   0.193   8.418
16657WAT      O50212   8.153   0.809   4.024
16657WAT     H150213   8.081   0.752   3.985
16657WAT     H250214   8.238   0.793   3.975
16658WAT      O50215   7.824   1.453   7.586
16658WAT     H150216   7.787   1.379   7.530
16658WAT     H250217   7.911   1.423   7.626
16659WAT      O50218   1.785   3.945   2.019
16659WAT     H150219   1.763   4.007   1.944
16659WAT     H250220   1.881   3.958   2.046
16660WAT      O50221   9.600   1.682   8.939
16660WAT     H150222   9.519   1.648   8.986
16660WAT     H250223   9.572   1.730   8.855
16661WAT      O50224   0.262   3.437   8.556
16661WAT     H150225   0.276   3.394   8.645
16661WAT     H250226   0.177   3.402   8.516
16662WAT      O50227   2.016   6.274   4.943
16662WAT     H150228   2.015   6.288   4.844
16662WAT     H250229   2.075   6.196   4.965
16663WAT      O50230   4.534   7.450   9.428
16663WAT     H150231   4.577   7.526   9.475
16663WAT     H250232   4.439   7.441   9.459
16664WAT      O50233   0.884   3.238   9.106
16664WAT     H150234   0.849   3.269   9.194
16664WAT     H250235   0.936   3.154   9.118
16665WAT      O50236   2.628   2.249   1.074
16665WAT     H150237   2.663   2.334   1.034
16665WAT     H250238   2.705   2.194   1.108
16666WAT      O50239   5.514   7.825   5.622
16666WAT     H150240   5.487   7.886   5.548
16666WAT     H250241   5.434   7.798   5.675
16667WAT      O50242   6.213   9.347   3.856
16667WAT     H150243   6.130   9.333   3.909
16667WAT     H250244   6.287   9.292   3.894
16668WAT      O50245   5.282   2.930   8.707
16668WAT     H150246   5.286   2.894   8.800
16668WAT     H250247   5.370   2.915   8.661
16669WAT      O50248   9.546   9.138   0.445
16669WAT     H150249   9.525   9.226   0.487
16669WAT     H250250   9.477   9.118   0.375
16670WAT      O50251   0.881   8.880   3.441
16670WAT     H150252   0.879   8.817   3.364
16670WAT     H250253   0.836   8.966   3.414
16671WAT      O50254   2.749   8.219   7.017
16671WAT     H150255   2.659   8.251   6.987
16671WAT     H250256   2.819   8.283   6.987
16672WAT      O50257   7.814   4.919   3.443
16672WAT     H150258   7.907   4.954   3.439
16672WAT     H250259   7.760   4.972   3.507
16673WAT      O50260   2.626   3.612   8.353
16673WAT     H150261   2.565   3.534   8.365
16673WAT     H250262   2.608   3.654   8.264
16674WAT      O50263   7.557   0.193   5.210
16674WAT     H150264   7.503   0.115   5.177
16674WAT     H250265   7.566   0.261   5.138
16675WAT      O50266   6.416   1.142   4.517
16675WAT     H150267   6.340   1.080   4.538
16675WAT     H250268   6.463   1.112   4.435
16676WAT      O50269   3.019   0.667   3.267
16676WAT     H150270   3.106   0.625   3.244
16676WAT     H250271   2.983   0.716   3.187
16677WAT      O50272   1.058   4.620   3.886
16677WAT     H150273   1.098   4.650   3.972
16677WAT     H250274   0.960   4.604   3.898
16678WAT      O50275   3.562   2.725   5.692
16678WAT     H150276   3.473   2.748   5.652
16678WAT     H250277   3.630   2.793   5.663
16679WAT      O50278   9.758   3.503   0.824
16679WAT     H150279   9.794   3.410   0.833
16679WAT     H250280   9.795   3.545   0.741
16680WAT      O50281   5.531   1.904   5.408
16680WAT     H150282   5.590   1.843   5.357
16680WAT     H250283   5.436   1.871   5.402
16681WAT      O50284   7.111   3.229   7.410
16681WAT     H150285   7.169   3.169   7.465
16681WAT     H250286   7.110   3.321   7.451
16682WAT      O50287   3.734   1.879   5.281
16682WAT     H150288   3.717   1.959   5.224
16682WAT     H250289   3.648   1.828   5.294
16683WAT      O50290   3.207   2.587   8.986
16683WAT     H150291   3.184   2.490   8.987
16683WAT     H250292   3.126   2.641   9.010
16684WAT      O50293   0.277   5.822   7.071
16684WAT     H150294   0.282   5.753   7.144
16684WAT     H250295   0.183   5.828   7.037
16685WAT      O50296   7.769   2.088   2.165
16685WAT     H150297   7.725   2.002   2.140
16685WAT     H250298   7.797   2.084   2.261
16686WAT      O50299   6.195   8.419   1.565
16686WAT     H150300   6.208   8.408   1.466
16686WAT     H250301   6.229   8.508   1.594
16687WAT      O50302   0.246   8.844   5.571
16687WAT     H150303   0.242   8.841   5.671
16687WAT     H250304   0.209   8.759   5.534
16688WAT      O50305   4.185   5.771   0.946
16688WAT     H150306   4.135   5.856   0.961
16688WAT     H250307   4.216   5.734   1.034
16689WAT      O50308   6.620   7.121   2.425
16689WAT     H150309   6.628   7.036   2.477
16689WAT     H250310   6.678   7.115   2.343
16690WAT      O50311   7.840   7.698   2.313
16690WAT     H150312   7.873   7.659   2.399
16690WAT     H250313   7.740   7.705   2.315
16691WAT      O50314   5.416   6.251   0.227
16691WAT     H150315   5.356   6.187   0.276
16691WAT     H250316   5.495   6.201   0.191
16692WAT      O50317   5.166   7.425   7.311
16692WAT     H150318   5.088   7.401   7.254
16692WAT     H250319   5.146   7.507   7.364
16693WAT      O50320   2.627   6.766   1.830
16693WAT     H150321   2.727   6.762   1.828
16693WAT     H250322   2.589   6.676   1.811
16694WAT      O50323   7.024   8.246   1.220
16694WAT     H150324   6.953   8.312   1.246
16694WAT     H250325   6.987   8.154   1.225
16695WAT      O50326   6.750   2.143   3.583
16695WAT     H150327   6.748   2.044   3.567
16695WAT     H250328   6.751   2.160   3.682
16696WAT      O50329   7.289   8.791   5.920
16696WAT     H150330   7.368   8.846   5.947
16696WAT     H250331   7.303   8.696   5.946
16697WAT      O50332   8.299   6.761   6.031
16697WAT     H150333   8.332   6.740   5.938
16697WAT     H250334   8.282   6.675   6.080
16698WAT      O50335   5.279   0.353   6.425
16698WAT     H150336   5.298   0.427   6.360
16698WAT     H250337   5.297   0.385   6.518
16699WAT      O50338   6.812   5.632   6.828
16699WAT     H150339   6.858   5.678   6.904
16699WAT     H250340   6.864   5.550   6.802
16700WAT      O50341   4.273   8.924   0.434
16700WAT     H150342   4.257   8.826   0.424
16700WAT     H250343   4.274   8.967   0.344
16701WAT      O50344   5.709   0.204   3.766
16701WAT     H150345   5.714   0.195   3.667
16701WAT     H250346   5.796   0.175   3.806
16702WAT      O50347   3.390   7.954   5.791
16702WAT     H150348   3.431   8.029   5.843
16702WAT     H250349   3.461   7.891   5.762
16703WAT      O50350   3.584   6.024   7.230
16703WAT     H150351   3.655   6.065   7.174
16703WAT     H250352   3.566   5.931   7.199
16704WAT      O50353   9.240   6.169   3.330
16704WAT     H150354   9.196   6.110   3.398
16704WAT     H250355   9.216   6.138   3.238
16705WAT      O50356   0.764   5.634   1.078
16705WAT     H150357   0.794   5.544   1.108
16705WAT     H250358   0.725   5.627   0.986
16706WAT      O50359   1.293   8.638   4.975
16706WAT     H150360   1.279   8.726   5.021
16706WAT     H250361   1.255   8.643   4.882
16707WAT      O50362   6.008   1.501   1.682
16707WAT     H150363   6.006   1.439   1.604
16707WAT     H250364   6.084   1.565   1.671
16708WAT      O50365   1.840   2.829   3.688
16708WAT     H150366   1.759   2.771   3.693
16708WAT     H250367   1.851   2.877   3.775
16709WAT      O50368   7.252   8.151   5.076
16709WAT     H150369   7.344   8.186   5.056
16709WAT     H250370   7.189   8.228   5.088
16710WAT      O50371   3.711   5.803   8.407
16710WAT     H150372   3.773   5.806   8.486
16710WAT     H250373   3.716   5.714   8.363
16711WAT      O50374   2.085   6.595   0.527
16711WAT     H150375   2.169   6.619   0.478
16711WAT     H250376   2.077   6.651   0.609
16712WAT      O50377   3.110   5.972   6.620
16712WAT     H150378   3.141   5.882   6.588
16712WAT     H250379   3.033   6.003   6.565
16713WAT      O50380   0.493   3.642   2.771
16713WAT     H150381   0.579   3.686   2.745
16713WAT     H250382   0.416   3.701   2.747
16714WAT      O50383   2.399   7.097   3.306
16714WAT     H150384   2.453   7.021   3.343
16714WAT     H250385   2.303   7.083   3.330
16715WAT      O50386   1.877   6.019   0.216
16715WAT     H150387   1.829   6.102   0.246
16715WAT     H250388   1.907   5.967   0.297
16716WAT      O50389   8.110   1.409   3.226
16716WAT     H150390   8.066   1.387   3.313
16716WAT     H250391   8.191   1.466   3.243
16717WAT      O50392   9.513   8.882   1.429
16717WAT     H150393   9.514   8.795   1.380
16717WAT     H250394   9.546   8.869   1.522
16718WAT      O50395   4.607   1.782   0.614
16718WAT     H150396   4.638   1.874   0.638
16718WAT     H250397   4.683   1.718   0.625
16719WAT      O50398   3.899   7.691   4.709
16719WAT     H150399   3.902   7.757   4.784
16719WAT     H250400   3.847   7.729   4.633
16720WAT      O50401   9.528   8.102   9.245
16720WAT     H150402   9.515   8.063   9.335
16720WAT     H250403   9.547   8.029   9.179
16721WAT      O50404   3.060   1.655   9.878
16721WAT     H150405   3.118   1.733   9.902
16721WAT     H250406   3.105   1.600   9.809
16722WAT      O50407   0.339   6.571   2.313
16722WAT     H150408   0.273   6.645   2.302
16722WAT     H250409   0.353   6.525   2.226
16723WAT      O50410   2.148   7.974   3.968
16723WAT     H150411   2.226   8.037   3.964
16723WAT     H250412   2.150   7.925   4.055
16724WAT      O50413   3.489   9.369   7.391
16724WAT     H150414   3.392   9.371   7.414
16724WAT     H250415   3.543   9.356   7.474
16725WAT      O50416   6.363   8.318   4.574
16725WAT     H150417   6.290   8.364   4.626
16725WAT     H250418   6.325   8.282   4.489
16726WAT      O50419   4.685   5.536   2.875
16726WAT     H150420   4.662   5.485   2.957
16726WAT     H250421   4.717   5.628   2.901
16727WAT      O50422   7.979   1.657   7.832
16727WAT     H150423   8.011   1.743   7.872
16727WAT     H250424   7.893   1.674   7.783
16728WAT      O50425   6.800   3.530   9.607
16728WAT     H150426   6.793   3.601   9.537
16728WAT     H250427   6.814   3.441   9.564
16729WAT      O50428   4.055   5.034   9.490
16729WAT     H150429   4.128   4.979   9.532
16729WAT     H250430   4.082   5.058   9.396
16730WAT      O50431   2.072   0.288   9.032
16730WAT     H150432   2.070   0.189   9.048
16730WAT     H250433   1.980   0.325   9.038
16731WAT      O50434   6.332   5.759   6.541
16731WAT     H150435   6.244   5.802   6.524
16731WAT     H250436   6.319   5.661   6.556
16732WAT      O50437   7.209   8.084   5.985
16732WAT     H150438   7.217   8.002   6.041
16732WAT     H250439   7.165   8.156   6.037
16733WAT      O50440   2.099   3.752   5.164
16733WAT     H150441   2.072   3.690   5.239
16733WAT     H250442   2.186   3.795   5.187
16734WAT      O50443   8.041   8.645   1.565
16734WAT     H150444   8.104   8.689   1.628
16734WAT     H250445   8.084   8.564   1.526
16735WAT      O50446   6.366   1.150   5.024
16735WAT     H150447   6.397   1.093   5.100
16735WAT     H250448   6.290   1.105   4.977
16736WAT      O50449   8.754   2.551   3.115
16736WAT     H150450   8.780   2.507   3.201
16736WAT     H250451   8.833   2.599   3.077
16737WAT      O50452   1.802   2.058   1.518
16737WAT     H150453   1.793   1.960   1.503
16737WAT     H250454   1.886   2.091   1.475
16738WAT      O50455   5.064   3.755   3.645
16738WAT     H150456   5.054   3.687   3.718
16738WAT     H250457   5.002   3.733   3.570
16739WAT      O50458   4.467   5.146   2.049
16739WAT     H150459   4.387   5.132   2.108
16739WAT     H250460   4.441   5.197   1.968
16740WAT      O50461   8.786   6.087   2.774
16740WAT     H150462   8.768   6.005   2.721
16740WAT     H250463   8.874   6.079   2.820
16741WAT      O50464   6.754   1.955   7.272
16741WAT     H150465   6.808   2.020   7.219
16741WAT     H250466   6.686   1.912   7.212
16742WAT      O50467   7.955   4.003   7.818
16742WAT     H150468   8.054   4.013   7.830
16742WAT     H250469   7.909   4.007   7.907
16743WAT      O50470   3.426   5.121   5.217
16743WAT     H150471   3.340   5.111   5.266
16743WAT     H250472   3.420   5.200   5.155
16744WAT      O50473   8.719   7.603   9.407
16744WAT     H150474   8.633   7.639   9.444
16744WAT     H250475   8.750   7.527   9.464
16745WAT      O50476   5.951   1.187   0.060
16745WAT     H150477   5.962   1.124  -0.017
16745WAT     H250478   5.864   1.236   0.050
16746WAT      O50479   0.948   8.579   6.559
16746WAT     H150480   0.860   8.556   6.520
16746WAT     H250481   1.010   8.609   6.486
16747WAT      O50482   7.966   5.938   5.112
16747WAT     H150483   7.903   5.965   5.185
16747WAT     H250484   8.059   5.958   5.141
16748WAT      O50485   1.181   1.850   2.747
16748WAT     H150486   1.113   1.922   2.766
16748WAT     H250487   1.203   1.803   2.832
16749WAT      O50488   0.406   9.192   8.953
16749WAT     H150489   0.351   9.232   8.880
16749WAT     H250490   0.392   9.093   8.956
16750WAT      O50491   9.712   2.870   0.292
16750WAT     H150492   9.649   2.877   0.215
16750WAT     H250493   9.674   2.808   0.361
16751WAT      O50494   0.674   7.059   7.107
16751WAT     H150495   0.620   7.133   7.147
16751WAT     H250496   0.681   6.984   7.173
16752WAT      O50497   4.600   6.948   4.938
16752WAT     H150498   4.572   6.957   4.842
16752WAT     H250499   4.595   7.038   4.982
16753WAT      O50500   0.243   8.607   2.676
16753WAT     H150501   0.288   8.569   2.595
16753WAT     H250502   0.283   8.567   2.758
16754WAT      O50503   5.792   6.676   5.806
16754WAT     H150504   5.795   6.579   5.828
16754WAT     H250505   5.697   6.708   5.805
16755WAT      O50506   4.458   3.473   3.325
16755WAT     H150507   4.367   3.505   3.298
16755WAT     H250508   4.506   3.439   3.245
16756WAT      O50509   0.951   9.557   3.311
16756WAT     H150510   0.857   9.572   3.279
16756WAT     H250511   0.982   9.638   3.362
16757WAT      O50512   2.161   7.212   3.401
16757WAT     H150513   2.112   7.265   3.331
16757WAT     H250514   2.094   7.174   3.466
16758WAT      O50515   3.564   6.492   3.275
16758WAT     H150516   3.518   6.543   3.348
16758WAT     H250517   3.661   6.517   3.273
16759WAT      O50518   1.015   1.833   6.932
16759WAT     H150519   1.105   1.797   6.907
16759WAT     H250520   0.944   1.772   6.897
16760WAT      O50521   7.570   1.495   9.696
16760WAT     H150522   7.579   1.427   9.624
16760WAT     H250523   7.502   1.564   9.668
16761WAT      O50524   7.062   5.834   4.120
16761WAT     H150525   6.998   5.856   4.046
16761WAT     H250526   7.141   5.786   4.082
16762WAT      O50527   3.454   8.342   1.533
16762WAT     H150528   3.516   8.336   1.611
16762WAT     H250529   3.495   8.398   1.461
16763WAT      O50530   2.376   1.187   6.437
16763WAT     H150531   2.283   1.167   6.407
16763WAT     H250532   2.387   1.159   6.532
16764WAT      O50533   5.469   0.818   2.954
16764WAT     H150534   5.543   0.816   3.021
16764WAT     H250535   5.391   0.765   2.988
16765WAT      O50536   7.415   7.334   6.337
16765WAT     H150537   7.398   7.344   6.435
16765WAT     H250538   7.497   7.386   6.312
16766WAT      O50539   7.741   8.209   1.335
16766WAT     H150540   7.743   8.203   1.435
16766WAT     H250541   7.652   8.244   1.306
16767WAT      O50542   1.343   3.538   0.059
16767WAT     H150543   1.350   3.572   0.153
16767WAT     H250544   1.347   3.438   0.060
16768WAT      O50545   3.242   4.342   6.860
16768WAT     H150546   3.178   4.334   6.936
16768WAT     H250547   3.284   4.432   6.861
16769WAT      O50548   3.033   7.844   5.629
16769WAT     H150549   3.062   7.934   5.596
16769WAT     H250550   3.026   7.846   5.728
16770WAT      O50551   1.181   3.754   8.262
16770WAT     H150552   1.161   3.680   8.326
16770WAT     H250553   1.274   3.743   8.226
16771WAT      O50554   6.173   0.277   7.819
16771WAT     H150555   6.128   0.366   7.824
16771WAT     H250556   6.129   0.222   7.748
16772WAT      O50557   6.009   7.483   7.918
16772WAT     H150558   6.043   7.473   7.825
16772WAT     H250559   5.957   7.568   7.925
16773WAT      O50560   4.352   9.703   7.191
16773WAT     H150561   4.374   9.798   7.171
16773WAT     H250562   4.409   9.643   7.135
16774WAT      O50563   7.746   3.107   8.512
16774WAT     H150564   7.723   3.026   8.460
16774WAT     H250565   7.744   3.187   8.452
16775WAT      O50566   1.421   2.821   1.460
16775WAT     H150567   1.497   2.757   1.468
16775WAT     H250568   1.383   2.815   1.367
16776WAT      O50569   8.258   9.559   6.873
16776WAT     H150570   8.321   9.522   6.941
16776WAT     H250571   8.284   9.528   6.782
16777WAT      O50572   8.009   2.686   5.546
16777WAT     H150573   7.972   2.746   5.475
16777WAT     H250574   8.089   2.728   5.587
16778WAT      O50575   0.489   8.779   2.383
16778WAT     H150576   0.556   8.823   2.323
16778WAT     H250577   0.515   8.684   2.399
16779WAT      O50578   0.156   1.657   4.571
16779WAT     H150579   0.178   1.588   4.503
16779WAT     H250580   0.237   1.714   4.588
16780WAT      O50581   8.926   0.956   6.154
16780WAT     H150582   8.914   0.858   6.139
16780WAT     H250583   8.896   1.006   6.073
16781WAT      O50584   8.149   7.725   6.325
16781WAT     H150585   8.162   7.791   6.251
16781WAT     H250586   8.201   7.642   6.306
16782WAT      O50587   3.415   1.911   2.369
16782WAT     H150588   3.464   1.893   2.454
16782WAT     H250589   3.357   1.832   2.346
16783WAT      O50590   5.554   2.281   6.161
16783WAT     H150591   5.644   2.284   6.118
16783WAT     H250592   5.564   2.298   6.259
16784WAT      O50593   2.222   8.443   3.433
16784WAT     H150594   2.259   8.460   3.342
16784WAT     H250595   2.217   8.344   3.449
16785WAT      O50596   1.819   9.575   7.195
16785WAT     H150597   1.894   9.546   7.254
16785WAT     H250598   1.817   9.518   7.113
16786WAT      O50599   9.087   6.895   8.569
16786WAT     H150600   9.084   6.995   8.571
16786WAT     H250601   9.140   6.861   8.647
16787WAT      O50602   1.229   1.631   1.382
16787WAT     H150603   1.231   1.683   1.297
16787WAT     H250604   1.139   1.587   1.391
16788WAT      O50605   3.373   0.610   5.263
16788WAT     H150606   3.450   0.585   5.321
16788WAT     H250607   3.287   0.589   5.310
16789WAT      O50608   9.500   7.273   5.262
16789WAT     H150609   9.437   7.284   5.339
16789WAT     H250610   9.583   7.227   5.294
16790WAT      O50611   5.833   4.022   6.489
16790WAT     H150612   5.742   3.992   6.517
16790WAT     H250613   5.885   3.943   6.456
16791WAT      O50614   1.145   3.136   7.113
16791WAT     H150615   1.232   3.087   7.101
16791WAT     H250616   1.084   3.082   7.171
16792WAT      O50617   1.470   7.162   8.273
16792WAT     H150618   1.383   7.120   8.248
16792WAT     H250619   1.499   7.126   8.362
16793WAT      O50620   1.030   8.800   0.553
16793WAT     H150621   0.977   8.839   0.628
16793WAT     H250622   1.018   8.856   0.471
16794WAT      O50623   8.041   4.218   4.212
16794WAT     H150624   8.116   4.162   4.177
16794WAT     H250625   8.012   4.282   4.141
16795WAT      O50626   1.579   4.810   1.044
16795WAT     H150627   1.509   4.871   1.008
16795WAT     H250628   1.561   4.716   1.013
16796WAT      O50629   1.433   0.633   3.225
16796WAT     H150630   1.410   0.728   3.245
16796WAT     H250631   1.413   0.613   3.130
16797WAT      O50632   4.425   6.563   4.301
16797WAT     H150633   4.358   6.632   4.274
16797WAT     H250634   4.512   6.607   4.323
16798WAT      O50635   8.557   1.298   9.352
16798WAT     H150636   8.526   1.392   9.353
16798WAT     H250637   8.616   1.281   9.431
16799WAT      O50638   6.459   7.956   8.303
16799WAT     H150639   6.404   7.907   8.371
16799WAT     H250640   6.423   8.050   8.294
16800WAT      O50641   7.887   9.747   3.935
16800WAT     H150642   7.879   9.825   3.997
16800WAT     H250643   7.802   9.694   3.936
16801WAT      O50644   7.725   1.281   8.056
16801WAT     H150645   7.678   1.325   7.979
16801WAT     H250646   7.678   1.304   8.141
16802WAT      O50647   2.026   6.865   8.128
16802WAT     H150648   1.996   6.834   8.038
16802WAT     H250649   2.075   6.952   8.119
16803WAT      O50650   6.497   0.338   4.415
16803WAT     H150651   6.574   0.281   4.385
16803WAT     H250652   6.482   0.325   4.513
16804WAT      O50653   7.631   7.045   0.020
16804WAT     H150654   7.564   7.096   0.074
16804WAT     H250655   7.589   6.960  -0.012
16805WAT      O50656   7.661   0.014   6.500
16805WAT     H150657   7.753   0.054   6.497
16805WAT     H250658   7.627   0.002   6.406
16806WAT      O50659   1.444   0.831   5.099
16806WAT     H150660   1.526   0.873   5.139
16806WAT     H250661   1.460   0.814   5.002
16807WAT      O50662   5.137   0.983   6.432
16807WAT     H150663   5.074   0.992   6.510
16807WAT     H250664   5.107   1.044   6.358
16808WAT      O50665   9.596   0.073   2.177
16808WAT     H150666   9.509   0.045   2.219
16808WAT     H250667   9.578   0.115   2.088
16809WAT      O50668   1.159   4.446   7.860
16809WAT     H150669   1.195   4.455   7.953
16809WAT     H250670   1.235   4.429   7.796
16810WAT      O50671   5.516   5.469   6.365
16810WAT     H150672   5.583   5.533   6.328
16810WAT     H250673   5.475   5.417   6.290
16811WAT      O50674   1.757   7.977   6.562
16811WAT     H150675   1.709   8.008   6.644
16811WAT     H250676   1.800   8.056   6.517
16812WAT      O50677   7.074   1.861   7.552
16812WAT     H150678   6.998   1.811   7.594
16812WAT     H250679   7.160   1.813   7.571
16813WAT      O50680   3.303   6.026   8.208
16813WAT     H150681   3.257   5.976   8.281
16813WAT     H250682   3.373   5.968   8.167
16814WAT      O50683   8.888   6.247   8.807
16814WAT     H150684   8.840   6.188   8.742
16814WAT     H250685   8.836   6.331   8.820
16815WAT      O50686   1.042   6.179   7.439
16815WAT     H150687   1.123   6.124   7.458
16815WAT     H250688   0.977   6.170   7.514
16816WAT      O50689   7.886   2.253   0.843
16816WAT     H150690   7.896   2.347   0.810
16816WAT     H250691   7.973   2.206   0.833
16817WAT      O50692   2.723   6.142   4.944
16817WAT     H150693   2.791   6.070   4.957
16817WAT     H250694   2.742   6.218   5.006
16818WAT      O50695   7.508   3.927   5.179
16818WAT     H150696   7.490   3.975   5.093
16818WAT     H250697   7.422   3.897   5.219
16819WAT      O50698   9.077   3.839   9.877
16819WAT     H150699   8.979   3.837   9.901
16819WAT     H250700   9.092   3.908   9.807
16820WAT      O50701   7.765   4.817   2.084
16820WAT     H150702   7.835   4.794   2.152
16820WAT     H250703   7.744   4.737   2.028
16821WAT      O50704   2.273   3.102   2.546
16821WAT     H150705   2.221   3.026   2.587
16821WAT     H250706   2.238   3.189   2.581
16822WAT      O50707   7.000   0.020   9.184
16822WAT     H150708   6.952  -0.023   9.107
16822WAT     H250709   6.948   0.007   9.268
16823WAT      O50710   4.597   0.575   3.823
16823WAT     H150711   4.561   0.637   3.752
16823WAT     H250712   4.522   0.524   3.864
16824WAT      O50713   6.055   0.547   0.636
16824WAT     H150714   6.030   0.614   0.566
16824WAT     H250715   5.978   0.485   0.652
16825WAT      O50716   7.001   7.288   6.613
16825WAT     H150717   7.019   7.217   6.545
16825WAT     H250718   6.944   7.249   6.686
16826WAT      O50719   7.775   7.466   7.585
16826WAT     H150720   7.715   7.493   7.660
16826WAT     H250721   7.739   7.500   7.498
16827WAT      O50722   7.766   2.711   1.293
16827WAT     H150723   7.832   2.782   1.267
16827WAT     H250724   7.795   2.669   1.379
16828WAT      O50725   1.378   5.581   7.044
16828WAT     H150726   1.436   5.609   7.121
16828WAT     H250727   1.432   5.583   6.960
16829WAT      O50728   9.113   2.260   4.399
16829WAT     H150729   9.015   2.245   4.383
16829WAT     H250730   9.148   2.328   4.334
16830WAT      O50731   2.714   4.486   6.615
16830WAT     H150732   2.728   4.583   6.634
16830WAT     H250733   2.770   4.431   6.676
16831WAT      O50734   4.009   8.742   6.072
16831WAT     H150735   4.107   8.741   6.090
16831WAT     H250736   3.991   8.694   5.985
16832WAT      O50737   8.794   3.200   4.047
16832WAT     H150738   8.892   3.219   4.050
16832WAT     H250739   8.746   3.263   4.109
16833WAT      O50740   1.267   8.024   6.107
16833WAT     H150741   1.245   8.052   6.014
16833WAT     H250742   1.197   8.060   6.170
16834WAT      O50743   2.231   8.401   9.521
16834WAT     H150744   2.155   8.453   9.481
16834WAT     H250745   2.196   8.317   9.562
16835WAT      O50746   5.491   4.299   6.218
16835WAT     H150747   5.561   4.291   6.290
16835WAT     H250748   5.535   4.322   6.131
16836WAT      O50749   5.789   0.414   3.447
16836WAT     H150750   5.875   0.417   3.395
16836WAT     H250751   5.734   0.336   3.416
16837WAT      O50752   3.488   2.202   1.929
16837WAT     H150753   3.501   2.148   1.846
16837WAT     H250754   3.520   2.149   2.008
16838WAT      O50755   2.967   2.730   1.773
16838WAT     H150756   2.971   2.670   1.693
16838WAT     H250757   3.058   2.736   1.814
16839WAT      O50758   5.547   4.385   1.482
16839WAT     H150759   5.467   4.332   1.456
16839WAT     H250760   5.533   4.425   1.572
16840WAT      O50761   6.165   5.754   4.694
16840WAT     H150762   6.187   5.694   4.771
16840WAT     H250763   6.153   5.848   4.727
16841WAT      O50764   7.957   7.772   7.288
16841WAT     H150765   8.034   7.737   7.234
16841WAT     H250766   7.992   7.826   7.364
16842WAT      O50767   9.227   8.350   8.364
16842WAT     H150768   9.310   8.375   8.413
16842WAT     H250769   9.250   8.289   8.288
16843WAT      O50770   8.728   5.786   4.172
16843WAT     H150771   8.808   5.814   4.226
16843WAT     H250772   8.657   5.752   4.234
16844WAT      O50773   2.406   1.363   9.089
16844WAT     H150774   2.356   1.278   9.068
16844WAT     H250775   2.396   1.384   9.186
16845WAT      O50776   8.664   1.325   7.439
16845WAT     H150777   8.752   1.341   7.396
16845WAT     H250778   8.675   1.319   7.538
16846WAT      O50779   2.994   2.872   1.278
16846WAT     H150780   3.040   2.927   1.348
16846WAT     H250781   2.898   2.899   1.272
16847WAT      O50782   5.752   4.328   7.907
16847WAT     H150783   5.847   4.304   7.927
16847WAT     H250784   5.721   4.398   7.971
16848WAT      O50785   3.582   3.441   6.439
16848WAT     H150786   3.566   3.343   6.422
16848WAT     H250787   3.651   3.451   6.510
16849WAT      O50788   1.367   7.573   2.640
16849WAT     H150789   1.350   7.656   2.693
16849WAT     H250790   1.395   7.598   2.547
16850WAT      O50791   3.389   5.946   9.655
16850WAT     H150792   3.411   5.932   9.752
16850WAT     H250793   3.393   6.043   9.633
16851WAT      O50794   3.780   9.325   1.453
16851WAT     H150795   3.755   9.318   1.357
16851WAT     H250796   3.878   9.311   1.464
16852WAT      O50797   8.443   8.549   8.055
16852WAT     H150798   8.481   8.640   8.041
16852WAT     H250799   8.352   8.544   8.012
16853WAT      O50800   4.199   5.081   8.350
16853WAT     H150801   4.257   5.156   8.318
16853WAT     H250802   4.229   4.996   8.307
16854WAT      O50803   5.670   7.502   6.133
16854WAT     H150804   5.702   7.581   6.080
16854WAT     H250805   5.732   7.425   6.120
16855WAT      O50806   4.521   9.085   1.552
16855WAT     H150807   4.601   9.033   1.523
16855WAT     H250808   4.438   9.039   1.520
16856WAT      O50809   5.009   2.623   5.571
16856WAT     H150810   5.047   2.677   5.646
16856WAT     H250811   4.931   2.672   5.531
16857WAT      O50812   3.680   5.251   1.813
16857WAT     H150813   3.709   5.342   1.784
16857WAT     H250814   3.711   5.183   1.746
16858WAT      O50815   6.162   3.381   5.694
16858WAT     H150816   6.113   3.351   5.775
16858WAT     H250817   6.117   3.344   5.612
16859WAT      O50818   7.256   9.747   3.285
16859WAT     H150819   7.267   9.758   3.186
16859WAT     H250820   7.250   9.836   3.329
16860WAT      O50821   4.431   1.262   1.180
16860WAT     H150822   4.485   1.238   1.099
16860WAT     H250823   4.437   1.188   1.247
16861WAT      O50824   7.809   4.388   8.227
16861WAT     H150825   7.882   4.449   8.259
16861WAT     H250826   7.782   4.415   8.135
16862WAT      O50827   7.790   7.409   3.051
16862WAT     H150828   7.803   7.421   3.149
16862WAT     H250829   7.699   7.373   3.033
16863WAT      O50830   6.253   1.129   5.387
16863WAT     H150831   6.166   1.080   5.377
16863WAT     H250832   6.324   1.082   5.335
16864WAT      O50833   4.521   1.307   7.649
16864WAT     H150834   4.427   1.341   7.657
16864WAT     H250835   4.578   1.352   7.717
16865WAT      O50836   3.350   6.371   1.517
16865WAT     H150837   3.278   6.313   1.554
16865WAT     H250838   3.431   6.364   1.575
16866WAT      O50839   4.473   1.779   8.487
16866WAT     H150840   4.568   1.795   8.459
16866WAT     H250841   4.417   1.760   8.407
16867WAT      O50842   9.567   1.797   9.657
16867WAT     H150843   9.517   1.711   9.671
16867WAT     H250844   9.642   1.802   9.723
16868WAT      O50845   5.934   8.030   8.114
16868WAT     H150846   6.026   8.068   8.122
16868WAT     H250847   5.896   8.053   8.024
16869WAT      O50848   1.051   4.293   3.967
16869WAT     H150849   1.069   4.391   3.961
16869WAT     H250850   1.137   4.242   3.969
16870WAT      O50851   1.013   3.597   3.281
16870WAT     H150852   1.022   3.578   3.183
16870WAT     H250853   1.027   3.695   3.297
16871WAT      O50854   5.919   3.021   8.898
16871WAT     H150855   5.858   2.966   8.956
16871WAT     H250856   5.963   2.962   8.830
16872WAT      O50857   2.803   0.565   0.037
16872WAT     H150858   2.862   0.499   0.083
16872WAT     H250859   2.846   0.655   0.039
16873WAT      O50860   1.503   2.020   2.926
16873WAT     H150861   1.412   2.038   2.961
16873WAT     H250862   1.571   2.043   2.996
16874WAT      O50863   5.165   4.493   5.471
16874WAT     H150864   5.085   4.487   5.532
16874WAT     H250865   5.245   4.456   5.518
16875WAT      O50866   6.205   8.627   4.828
16875WAT     H150867   6.136   8.667   4.888
16875WAT     H250868   6.261   8.562   4.879
16876WAT      O50869   2.357   1.819   2.958
16876WAT     H150870   2.437   1.853   2.909
16876WAT     H250871   2.287   1.790   2.893
16877WAT      O50872   2.444   2.530   0.917
16877WAT     H150873   2.391   2.485   0.988
16877WAT     H250874   2.537   2.492   0.915
16878WAT      O50875   0.402   2.789   7.083
16878WAT     H150876   0.421   2.872   7.030
16878WAT     H250877   0.440   2.710   7.035
16879WAT      O50878   9.216   3.835   6.929
16879WAT     H150879   9.191   3.844   6.832
16879WAT     H250880   9.255   3.921   6.961
16880WAT      O50881   6.418   3.267   5.748
16880WAT     H150882   6.384   3.205   5.818
16880WAT     H250883   6.342   3.319   5.710
16881WAT      O50884   2.448   7.424   8.355
16881WAT     H150885   2.443   7.350   8.288
16881WAT     H250886   2.387   7.498   8.327
16882WAT      O50887   2.854   5.796   5.742
16882WAT     H150888   2.774   5.796   5.683
16882WAT     H250889   2.828   5.827   5.833
16883WAT      O50890   9.163   9.234   9.700
16883WAT     H150891   9.089   9.185   9.654
16883WAT     H250892   9.197   9.306   9.640
16884WAT      O50893   8.848   2.932   8.664
16884WAT     H150894   8.887   2.906   8.576
16884WAT     H250895   8.867   2.861   8.731
16885WAT      O50896   6.669   2.939   5.615
16885WAT     H150897   6.615   3.018   5.585
16885WAT     H250898   6.685   2.946   5.713
16886WAT      O50899   0.990   1.202   2.582
16886WAT     H150900   1.085   1.231   2.595
16886WAT     H250901   0.969   1.127   2.646
16887WAT      O50902   2.447   5.620   2.408
16887WAT     H150903   2.513   5.693   2.395
16887WAT     H250904   2.418   5.585   2.319
16888WAT      O50905   8.992   2.888   9.587
16888WAT     H150906   9.013   2.937   9.503
16888WAT     H250907   8.935   2.809   9.567
16889WAT      O50908   5.372   0.444   0.777
16889WAT     H150909   5.325   0.508   0.717
16889WAT     H250910   5.342   0.459   0.872
16890WAT      O50911   0.298   3.495   3.854
16890WAT     H150912   0.291   3.444   3.940
16890WAT     H250913   0.320   3.431   3.780
16891WAT      O50914   7.632   4.875   8.637
16891WAT     H150915   7.727   4.858   8.612
16891WAT     H250916   7.581   4.789   8.637
16892WAT      O50917   1.097   2.833   2.603
16892WAT     H150918   1.068   2.903   2.668
16892WAT     H250919   1.044   2.750   2.616
16893WAT      O50920   8.617   0.706   4.810
16893WAT     H150921   8.629   0.615   4.847
16893WAT     H250922   8.554   0.703   4.732
16894WAT      O50923   9.060   2.842   6.908
16894WAT     H150924   9.005   2.925   6.916
16894WAT     H250925   9.048   2.802   6.817
16895WAT      O50926   9.487   6.513   5.125
16895WAT     H150927   9.446   6.577   5.060
16895WAT     H250928   9.582   6.496   5.100
16896WAT      O50929   6.390   3.712   0.900
16896WAT     H150930   6.342   3.672   0.822
16896WAT     H250931   6.324   3.760   0.958
16897WAT      O50932   7.009   8.043   5.807
16897WAT     H150933   7.095   8.053   5.857
16897WAT     H250934   7.025   7.990   5.724
16898WAT      O50935   7.541   7.349   4.833
16898WAT     H150936   7.489   7.392   4.759
16898WAT     H250937   7.509   7.384   4.921
16899WAT      O50938   8.869   0.799   4.747
16899WAT     H150939   8.777   0.760   4.755
16899WAT     H250940   8.862   0.895   4.718
16900WAT      O50941   1.136   5.160   4.520
16900WAT     H150942   1.106   5.230   4.585
16900WAT     H250943   1.079   5.165   4.438
16901WAT      O50944   3.061   1.653   6.578
16901WAT     H150945   3.083   1.748   6.554
16901WAT     H250946   3.128   1.619   6.643
16902WAT      O50947   1.527   3.105   2.547
16902WAT     H150948   1.519   3.110   2.646
16902WAT     H250949   1.524   3.009   2.518
16903WAT      O50950   1.986   1.459   1.169
16903WAT     H150951   2.044   1.462   1.250
16903WAT     H250952   1.932   1.375   1.169
16904WAT      O50953   9.120   3.846   2.729
16904WAT     H150954   9.179   3.853   2.809
16904WAT     H250955   9.109   3.937   2.688
16905WAT      O50956   5.871   1.387   2.166
16905WAT     H150957   5.841   1.302   2.209
16905WAT     H250958   5.917   1.366   2.080
16906WAT      O50959   3.928   5.420   1.492
16906WAT     H150960   4.023   5.427   1.521
16906WAT     H250961   3.868   5.438   1.571
16907WAT      O50962   9.035   4.629   4.812
16907WAT     H150963   9.014   4.586   4.899
16907WAT     H250964   9.069   4.722   4.829
16908WAT      O50965   9.724   5.555   5.885
16908WAT     H150966   9.702   5.612   5.805
16908WAT     H250967   9.797   5.491   5.861
16909WAT      O50968   6.631   7.941   9.477
16909WAT     H150969   6.532   7.923   9.476
16909WAT     H250970   6.680   7.858   9.505
16910WAT      O50971   9.733   0.106   6.202
16910WAT     H150972   9.802   0.080   6.134
16910WAT     H250973   9.645   0.066   6.177
16911WAT      O50974   9.658   7.148   7.065
16911WAT     H150975   9.684   7.053   7.045
16911WAT     H250976   9.569   7.149   7.110
16912WAT      O50977   4.381   1.853   3.782
16912WAT     H150978   4.449   1.824   3.849
16912WAT     H250979   4.292   1.815   3.807
16913WAT      O50980   1.682   5.744   5.440
16913WAT     H150981   1.707   5.771   5.347
16913WAT     H250982   1.602   5.684   5.436
16914WAT      O50983   2.763   6.606   6.460
16914WAT     H150984   2.834   6.654   6.512
16914WAT     H250985   2.691   6.669   6.434
16915WAT      O50986   4.705   1.769   1.550
16915WAT     H150987   4.614   1.749   1.513
16915WAT     H250988   4.722   1.713   1.630
16916WAT      O50989   1.938   1.098   2.261
16916WAT     H150990   1.849   1.100   2.307
16916WAT     H250991   1.931   1.042   2.178
16917WAT      O50992   9.318   2.510   6.734
16917WAT     H150993   9.370   2.510   6.820
16917WAT     H250994   9.377   2.541   6.659
16918WAT      O50995   0.981   7.557   9.520
16918WAT     H150996   0.970   7.464   9.555
16918WAT     H250997   1.057   7.559   9.454
16919WAT      O50998   3.128   7.299   5.562
16919WAT     H150999   3.118   7.213   5.612
16919WAT     H251000   3.213   7.344   5.588
16920WAT      O51001   9.333   8.429   3.995
16920WAT     H151002   9.353   8.458   3.902
16920WAT     H251003   9.238   8.451   4.017
16921WAT      O51004   3.530   2.896   0.259
16921WAT     H151005   3.582   2.864   0.339
16921WAT     H251006   3.490   2.818   0.212
16922WAT      O51007   0.783   5.816   3.485
16922WAT     H151008   0.877   5.815   3.453
16922WAT     H251009   0.740   5.728   3.461
16923WAT      O51010   9.444   2.522   6.995
16923WAT     H151011   9.523   2.569   7.035
16923WAT     H251012   9.360   2.571   7.017
16924WAT      O51013   1.229   6.065   9.019
16924WAT     H151014   1.241   6.007   8.938
16924WAT     H251015   1.221   6.160   8.990
16925WAT      O51016   3.299   8.572   3.223
16925WAT     H151017   3.267   8.484   3.258
16925WAT     H251018   3.241   8.645   3.258
16926WAT      O51019   7.976   2.016   3.947
16926WAT     H151020   8.036   2.051   3.875
16926WAT     H251021   8.029   1.959   4.010
16927WAT      O51022   1.484   2.464   5.365
16927WAT     H151023   1.442   2.553   5.347
16927WAT     H251024   1.455   2.399   5.295
16928WAT      O51025   2.720   9.780   2.512
16928WAT     H151026   2.660   9.787   2.433
16928WAT     H251027   2.815   9.788   2.483
16929WAT      O51028   8.225   9.218   6.514
16929WAT     H151029   8.321   9.245   6.512
16929WAT     H251030   8.168   9.298   6.531
16930WAT      O51031   9.270   8.161   1.469
16930WAT     H151032   9.327   8.243   1.458
16930WAT     H251033   9.269   8.109   1.384
16931WAT      O51034   4.210   6.016   6.113
16931WAT     H151035   4.226   6.100   6.164
16931WAT     H251036   4.141   6.031   6.043
16932WAT      O51037   7.868   2.508   0.702
16932WAT     H151038   7.948   2.497   0.642
16932WAT     H251039   7.785   2.499   0.647
16933WAT      O51040   9.207   3.554   7.347
16933WAT     H151041   9.182   3.625   7.281
16933WAT     H251042   9.296   3.575   7.386
16934WAT      O51043   4.082   5.211   6.561
16934WAT     H151044   4.098   5.300   6.519
16934WAT     H251045   4.008   5.164   6.512
16935WAT      O51046   6.306   2.605   3.756
16935WAT     H151047   6.328   2.587   3.852
16935WAT     H251048   6.383   2.578   3.698
16936WAT      O51049   1.325   2.607   4.024
16936WAT     H151050   1.296   2.652   3.940
16936WAT     H251051   1.330   2.675   4.098
16937WAT      O51052   0.128   9.400   5.122
16937WAT     H151053   0.166   9.489   5.099
16937WAT     H251054   0.037   9.411   5.162
16938WAT      O51055   6.293   8.587   2.748
16938WAT     H151056   6.275   8.566   2.845
16938WAT     H251057   6.214   8.635   2.709
16939WAT      O51058   5.928   7.027   3.051
16939WAT     H151059   5.895   6.933   3.047
16939WAT     H251060   5.861   7.083   3.101
16940WAT      O51061   2.894   6.319   5.224
16940WAT     H151062   2.944   6.256   5.165
16940WAT     H251063   2.801   6.285   5.238
16941WAT      O51064   5.291   7.179   0.584
16941WAT     H151065   5.247   7.269   0.583
16941WAT     H251066   5.312   7.153   0.678
16942WAT      O51067   3.572   9.521   5.799
16942WAT     H151068   3.518   9.438   5.788
16942WAT     H251069   3.541   9.570   5.881
16943WAT      O51070   6.616   9.185   0.237
16943WAT     H151071   6.647   9.096   0.204
16943WAT     H251072   6.652   9.257   0.177
16944WAT      O51073   4.186   4.475   9.292
16944WAT     H151074   4.266   4.417   9.302
16944WAT     H251075   4.182   4.512   9.199
16945WAT      O51076   4.139   3.181   5.058
16945WAT     H151077   4.215   3.230   5.016
16945WAT     H251078   4.170   3.135   5.140
16946WAT      O51079   6.526   2.082   0.798
16946WAT     H151080   6.599   2.089   0.730
16946WAT     H251081   6.552   2.132   0.881
16947WAT      O51082   0.311   0.425   1.469
16947WAT     H151083   0.283   0.520   1.474
16947WAT     H251084   0.287   0.387   1.380
16948WAT      O51085   2.551   1.058   4.193
16948WAT     H151086   2.639   1.072   4.147
16948WAT     H251087   2.528   1.139   4.246
16949WAT      O51088   1.338   4.725   1.597
16949WAT     H151089   1.406   4.770   1.656
16949WAT     H251090   1.278   4.667   1.653
16950WAT      O51091   5.595   5.046   2.432
16950WAT     H151092   5.496   5.039   2.432
16950WAT     H251093   5.625   5.101   2.354
16951WAT      O51094   7.156   6.202   3.277
16951WAT     H151095   7.208   6.251   3.347
16951WAT     H251096   7.173   6.243   3.188
16952WAT      O51097   0.190   9.537   9.628
16952WAT     H151098   0.128   9.478   9.679
16952WAT     H251099   0.257   9.480   9.578
16953WAT      O51100   1.817   0.849   6.118
16953WAT     H151101   1.830   0.945   6.091
16953WAT     H251102   1.777   0.798   6.043
16954WAT      O51103   3.442   3.005   3.604
16954WAT     H151104   3.402   3.069   3.669
16954WAT     H251105   3.539   2.993   3.625
16955WAT      O51106   2.849   4.386   6.398
16955WAT     H151107   2.783   4.417   6.467
16955WAT     H251108   2.874   4.291   6.416
16956WAT      O51109   3.575   3.056   7.232
16956WAT     H151110   3.626   3.118   7.172
16956WAT     H251111   3.618   2.966   7.231
16957WAT      O51112   0.566   1.819   6.605
16957WAT     H151113   0.524   1.773   6.526
16957WAT     H251114   0.572   1.917   6.586
16958WAT      O51115   4.086   7.423   5.655
16958WAT     H151116   4.147   7.344   5.664
16958WAT     H251117   4.137   7.501   5.619
16959WAT      O51118   6.687   0.863   9.031
16959WAT     H151119   6.763   0.888   8.971
16959WAT     H251120   6.634   0.945   9.054
16960WAT      O51121   1.931   7.752   7.263
16960WAT     H151122   1.832   7.754   7.275
16960WAT     H251123   1.955   7.776   7.169
16961WAT      O51124   9.346   3.413   4.559
16961WAT     H151125   9.399   3.332   4.583
16961WAT     H251126   9.264   3.385   4.508
16962WAT      O51127   3.241   7.785   5.942
16962WAT     H151128   3.265   7.875   5.906
16962WAT     H251129   3.309   7.718   5.910
16963WAT      O51130   3.199   7.332   9.679
16963WAT     H151131   3.178   7.318   9.776
16963WAT     H251132   3.225   7.245   9.637
16964WAT      O51133   1.181   5.418   1.313
16964WAT     H151134   1.144   5.432   1.405
16964WAT     H251135   1.106   5.399   1.249
16965WAT      O51136   2.323   0.191   9.164
16965WAT     H151137   2.248   0.130   9.139
16965WAT     H251138   2.335   0.191   9.263
16966WAT      O51139   7.375   3.111   5.439
16966WAT     H151140   7.280   3.141   5.446
16966WAT     H251141   7.386   3.054   5.357
16967WAT      O51142   3.096   5.332   4.498
16967WAT     H151143   3.076   5.426   4.528
16967WAT     H251144   3.127   5.334   4.403
16968WAT      O51145   1.926   7.214   6.967
16968WAT     H151146   2.004   7.184   7.022
16968WAT     H251147   1.841   7.178   7.006
16969WAT      O51148   9.820   8.118   3.006
16969WAT     H151149   9.915   8.100   3.031
16969WAT     H251150   9.793   8.207   3.042
16970WAT      O51151   1.671   5.261   7.831
16970WAT     H151152   1.577   5.243   7.860
16970WAT     H251153   1.731   5.256   7.911
16971WAT      O51154   7.634   8.967   1.222
16971WAT     H151155   7.711   8.946   1.282
16971WAT     H251156   7.548   8.945   1.269
16972WAT      O51157   1.020   5.332   4.697
16972WAT     H151158   0.950   5.260   4.702
16972WAT     H251159   0.995   5.407   4.758
16973WAT      O51160   2.458   1.225   8.627
16973WAT     H151161   2.361   1.252   8.626
16973WAT     H251162   2.465   1.127   8.644
16974WAT      O51163   5.045   5.769   5.733
16974WAT     H151164   5.058   5.679   5.689
16974WAT     H251165   4.949   5.794   5.730
16975WAT      O51166   0.763   0.944   1.254
16975WAT     H151167   0.700   1.014   1.220
16975WAT     H251168   0.720   0.854   1.246
16976WAT      O51169   6.377   6.955   7.671
16976WAT     H151170   6.331   6.951   7.760
16976WAT     H251171   6.470   6.920   7.679
16977WAT      O51172   9.099   6.159   0.153
16977WAT     H151173   9.122   6.233   0.216
16977WAT     H251174   9.044   6.195   0.077
16978WAT      O51175   1.845   6.858   6.258
16978WAT     H151176   1.813   6.942   6.214
16978WAT     H251177   1.920   6.819   6.205
16979WAT      O51178   4.140   8.918   3.802
16979WAT     H151179   4.183   9.003   3.833
16979WAT     H251180   4.166   8.843   3.862
16980WAT      O51181   5.666   6.280   6.110
16980WAT     H151182   5.570   6.293   6.134
16980WAT     H251183   5.722   6.282   6.192
16981WAT      O51184   1.717   3.597   5.270
16981WAT     H151185   1.663   3.518   5.239
16981WAT     H251186   1.660   3.679   5.266
16982WAT      O51187   3.963   7.377   3.546
16982WAT     H151188   4.063   7.375   3.548
16982WAT     H251189   3.932   7.472   3.552
16983WAT      O51190   4.261   1.533   3.797
16983WAT     H151191   4.303   1.474   3.729
16983WAT     H251192   4.332   1.575   3.854
16984WAT      O51193   8.262   4.164   2.138
16984WAT     H151194   8.332   4.092   2.139
16984WAT     H251195   8.307   4.253   2.134
16985WAT      O51196   3.695   1.080   8.230
16985WAT     H151197   3.668   1.000   8.176
16985WAT     H251198   3.788   1.107   8.205
16986WAT      O51199   6.213   8.117   9.405
16986WAT     H151200   6.128   8.071   9.378
16986WAT     H251201   6.289   8.079   9.353
16987WAT      O51202   1.974   6.319   8.767
16987WAT     H151203   1.968   6.246   8.835
16987WAT     H251204   2.059   6.371   8.781
16988WAT      O51205   3.352   2.786   8.240
16988WAT     H151206   3.434   2.784   8.182
16988WAT     H251207   3.372   2.743   8.328
16989WAT      O51208   4.090   9.627   3.552
16989WAT     H151209   4.177   9.585   3.526
16989WAT     H251210   4.036   9.562   3.605
16990WAT      O51211   1.325   6.144   4.132
16990WAT     H151212   1.395   6.167   4.063
16990WAT     H251213   1.239   6.188   4.106
16991WAT      O51214   9.229   4.753   5.567
16991WAT     H151215   9.245   4.726   5.662
16991WAT     H251216   9.172   4.835   5.565
16992WAT      O51217   8.108   5.603   8.198
16992WAT     H151218   8.028   5.543   8.196
16992WAT     H251219   8.101   5.666   8.275
16993WAT      O51220   5.107   6.532   3.948
16993WAT     H151221   5.186   6.500   3.999
16993WAT     H251222   5.029   6.471   3.966
16994WAT      O51223   3.360   3.373   8.836
16994WAT     H151224   3.388   3.305   8.903
16994WAT     H251225   3.407   3.356   8.749
16995WAT      O51226   8.557   4.410   3.414
16995WAT     H151227   8.562   4.450   3.322
16995WAT     H251228   8.649   4.395   3.449
16996WAT      O51229   2.387   2.647   6.584
16996WAT     H151230   2.323   2.576   6.557
16996WAT     H251231   2.473   2.605   6.613
16997WAT      O51232   6.789   7.282   4.411
16997WAT     H151233   6.769   7.375   4.443
16997WAT     H251234   6.848   7.236   4.477
16998WAT      O51235   8.664   5.081   5.253
16998WAT     H151236   8.669   5.106   5.157
16998WAT     H251237   8.631   5.159   5.307
16999WAT      O51238   0.241   0.181   1.574
16999WAT     H151239   0.272   0.265   1.528
16999WAT     H251240   0.292   0.103   1.539
17000WAT      O51241   5.495   0.218   5.691
17000WAT     H151242   5.539   0.163   5.762
17000WAT     H251243   5.442   0.291   5.733
17001WAT      O51244   5.923   4.160   9.866
17001WAT     H151245   5.957   4.254   9.869
17001WAT     H251246   5.926   4.127   9.772
17002WAT      O51247   3.810   9.096   2.045
17002WAT     H151248   3.848   9.148   2.121
17002WAT     H251249   3.834   9.142   1.959
17003WAT      O51250   2.492   3.412   1.934
17003WAT     H151251   2.487   3.313   1.923
17003WAT     H251252   2.556   3.450   1.868
17004WAT      O51253   9.175   0.866   7.493
17004WAT     H151254   9.227   0.900   7.415
17004WAT     H251255   9.181   0.766   7.495
17005WAT      O51256   2.943   5.424   0.698
17005WAT     H151257   2.959   5.505   0.642
17005WAT     H251258   2.929   5.344   0.639
17006WAT      O51259   9.559   3.876   1.959
17006WAT     H151260   9.493   3.939   1.918
17006WAT     H251261   9.640   3.871   1.901
17007WAT      O51262   8.199   0.014   0.882
17007WAT     H151263   8.174  -0.072   0.928
17007WAT     H251264   8.192   0.090   0.946
17008WAT      O51265   8.648   6.885   0.655
17008WAT     H151266   8.730   6.930   0.618
17008WAT     H251267   8.646   6.898   0.754
17009WAT      O51268   3.201   5.633   4.623
17009WAT     H151269   3.105   5.617   4.600
17009WAT     H251270   3.257   5.620   4.541
17010WAT      O51271   6.277   9.361   7.776
17010WAT     H151272   6.178   9.349   7.785
17010WAT     H251273   6.298   9.391   7.683
17011WAT      O51274   9.075   5.036   6.400
17011WAT     H151275   9.022   5.114   6.366
17011WAT     H251276   9.026   4.993   6.476
17012WAT      O51277   2.193   2.262   8.982
17012WAT     H151278   2.267   2.210   9.025
17012WAT     H251279   2.119   2.274   9.049
17013WAT      O51280   0.880   0.600   4.796
17013WAT     H151281   0.977   0.623   4.806
17013WAT     H251282   0.860   0.581   4.699
17014WAT      O51283   0.882   3.604   4.707
17014WAT     H151284   0.802   3.589   4.649
17014WAT     H251285   0.871   3.556   4.793
17015WAT      O51286   0.161   1.575   0.649
17015WAT     H151287   0.079   1.607   0.603
17015WAT     H251288   0.188   1.641   0.719
17016WAT      O51289   2.270   1.897   8.830
17016WAT     H151290   2.204   1.822   8.828
17016WAT     H251291   2.362   1.860   8.843
17017WAT      O51292   7.627   9.782   3.708
17017WAT     H151293   7.618   9.746   3.801
17017WAT     H251294   7.537   9.809   3.673
17018WAT      O51295   7.849   3.913   4.071
17018WAT     H151296   7.751   3.907   4.093
17018WAT     H251297   7.864   3.992   4.011
17019WAT      O51298   3.146   3.873   6.385
17019WAT     H151299   3.244   3.885   6.367
17019WAT     H251300   3.117   3.936   6.457
17020WAT      O51301   8.099   5.685   3.640
17020WAT     H151302   8.145   5.644   3.718
17020WAT     H251303   8.004   5.707   3.666
17021WAT      O51304   7.399   2.752   0.599
17021WAT     H151305   7.414   2.849   0.617
17021WAT     H251306   7.349   2.711   0.675
17022WAT      O51307   6.287   7.369   4.114
17022WAT     H151308   6.252   7.462   4.127
17022WAT     H251309   6.364   7.355   4.176
17023WAT      O51310   2.923   4.111   8.988
17023WAT     H151311   2.960   4.068   9.071
17023WAT     H251312   2.985   4.184   8.959
17024WAT      O51313   4.100   6.007   8.897
17024WAT     H151314   4.094   6.101   8.865
17024WAT     H251315   4.010   5.976   8.927
17025WAT      O51316   1.909   9.401   6.995
17025WAT     H151317   1.974   9.470   6.963
17025WAT     H251318   1.892   9.335   6.922
17026WAT      O51319   5.615   6.847   4.913
17026WAT     H151320   5.619   6.756   4.955
17026WAT     H251321   5.552   6.846   4.836
17027WAT      O51322   3.702   2.952   3.701
17027WAT     H151323   3.702   3.001   3.788
17027WAT     H251324   3.666   2.860   3.714
17028WAT      O51325   0.785   9.118   0.538
17028WAT     H151326   0.685   9.110   0.534
17028WAT     H251327   0.810   9.215   0.540
17029WAT      O51328   4.187   5.867   2.333
17029WAT     H151329   4.234   5.790   2.376
17029WAT     H251330   4.245   5.949   2.339
17030WAT      O51331   2.341   5.296   0.329
17030WAT     H151332   2.353   5.373   0.266
17030WAT     H251333   2.429   5.250   0.342
17031WAT      O51334   6.323   0.521   3.443
17031WAT     H151335   6.242   0.559   3.487
17031WAT     H251336   6.403   0.540   3.500
17032WAT      O51337   2.234   8.646   9.636
17032WAT     H151338   2.252   8.554   9.601
17032WAT     H251339   2.254   8.649   9.734
17033WAT      O51340   5.729   4.212   6.310
17033WAT     H151341   5.800   4.242   6.246
17033WAT     H251342   5.772   4.162   6.386
17034WAT      O51343   3.865   5.705   6.659
17034WAT     H151344   3.828   5.766   6.590
17034WAT     H251345   3.931   5.755   6.715
17035WAT      O51346   4.720   5.148   3.473
17035WAT     H151347   4.795   5.121   3.534
17035WAT     H251348   4.721   5.090   3.392
17036WAT      O51349   3.514   6.777   2.262
17036WAT     H151350   3.472   6.820   2.182
17036WAT     H251351   3.463   6.695   2.287
17037WAT      O51352   2.501   8.142   1.143
17037WAT     H151353   2.425   8.083   1.120
17037WAT     H251354   2.483   8.187   1.231
17038WAT      O51355   2.729   8.942   7.598
17038WAT     H151356   2.747   8.847   7.622
17038WAT     H251357   2.737   8.999   7.680
17039WAT      O51358   3.619   1.827   9.416
17039WAT     H151359   3.557   1.823   9.338
17039WAT     H251360   3.630   1.735   9.455
17040WAT      O51361   8.452   2.678   4.265
17040WAT     H151362   8.370   2.714   4.221
17040WAT     H251363   8.440   2.581   4.284
17041WAT      O51364   3.881   8.972   3.710
17041WAT     H151365   3.842   8.919   3.785
17041WAT     H251366   3.980   8.962   3.710
17042WAT      O51367   1.998   8.222   3.338
17042WAT     H151368   1.992   8.317   3.306
17042WAT     H251369   1.920   8.202   3.398
17043WAT      O51370   6.148   6.245   0.873
17043WAT     H151371   6.145   6.186   0.793
17043WAT     H251372   6.189   6.333   0.848
17044WAT      O51373   5.039   0.886   7.120
17044WAT     H151374   5.130   0.923   7.101
17044WAT     H251375   5.045   0.788   7.135
17045WAT      O51376   2.226   9.323   4.661
17045WAT     H151377   2.132   9.341   4.689
17045WAT     H251378   2.288   9.377   4.717
17046WAT      O51379   6.728   4.855   2.835
17046WAT     H151380   6.650   4.806   2.874
17046WAT     H251381   6.811   4.801   2.846
17047WAT      O51382   0.002   3.742   3.457
17047WAT     H151383   0.089   3.790   3.444
17047WAT     H251384  -0.074   3.807   3.450
17048WAT      O51385   3.197   7.957   3.672
17048WAT     H151386   3.247   7.971   3.587
17048WAT     H251387   3.258   7.919   3.741
17049WAT      O51388   7.472   7.165   2.323
17049WAT     H151389   7.482   7.138   2.227
17049WAT     H251390   7.492   7.262   2.332
17050WAT      O51391   6.606   1.834   7.955
17050WAT     H151392   6.532   1.818   7.890
17050WAT     H251393   6.691   1.852   7.905
17051WAT      O51394   5.779   6.963   8.821
17051WAT     H151395   5.714   6.894   8.852
17051WAT     H251396   5.817   6.936   8.733
17052WAT      O51397   7.433   7.329   7.367
17052WAT     H151398   7.445   7.238   7.327
17052WAT     H251399   7.514   7.385   7.350
17053WAT      O51400   4.984   2.632   2.279
17053WAT     H151401   5.061   2.580   2.242
17053WAT     H251402   4.946   2.690   2.207
17054WAT      O51403   2.331   2.586   5.622
17054WAT     H151404   2.276   2.506   5.597
17054WAT     H251405   2.305   2.617   5.713
17055WAT      O51406   6.948   9.678   6.344
17055WAT     H151407   6.908   9.596   6.302
17055WAT     H251408   6.893   9.704   6.423
17056WAT      O51409   1.084   5.486   6.947
17056WAT     H151410   1.024   5.535   6.884
17056WAT     H251411   1.163   5.543   6.969
17057WAT      O51412   6.909   0.403   1.979
17057WAT     H151413   6.912   0.349   2.063
17057WAT     H251414   6.944   0.495   1.997
17058WAT      O51415   5.658   1.465   7.094
17058WAT     H151416   5.655   1.561   7.125
17058WAT     H251417   5.692   1.408   7.168
17059WAT      O51418   6.341   0.557   7.554
17059WAT     H151419   6.345   0.639   7.497
17059WAT     H251420   6.384   0.480   7.507
17060WAT      O51421   7.634   6.252   5.014
17060WAT     H151422   7.695   6.182   4.977
17060WAT     H251423   7.622   6.325   4.946
17061WAT      O51424   4.009   0.165   7.333
17061WAT     H151425   4.107   0.160   7.350
17061WAT     H251426   3.991   0.155   7.235
17062WAT      O51427   3.343   2.101   7.471
17062WAT     H151428   3.301   2.189   7.454
17062WAT     H251429   3.383   2.100   7.563
17063WAT      O51430   5.363   1.526   4.079
17063WAT     H151431   5.440   1.587   4.095
17063WAT     H251432   5.370   1.445   4.137
17064WAT      O51433   9.431   2.118   2.139
17064WAT     H151434   9.381   2.073   2.212
17064WAT     H251435   9.496   2.183   2.178
17065WAT      O51436   4.302   4.072   7.079
17065WAT     H151437   4.338   4.058   6.986
17065WAT     H251438   4.259   4.161   7.085
17066WAT      O51439   0.629   8.591   9.397
17066WAT     H151440   0.551   8.650   9.418
17066WAT     H251441   0.659   8.545   9.480
17067WAT      O51442   3.039   4.351   9.509
17067WAT     H151443   2.976   4.306   9.445
17067WAT     H251444   3.130   4.312   9.499
17068WAT      O51445   5.773   3.820   8.352
17068WAT     H151446   5.829   3.754   8.402
17068WAT     H251447   5.766   3.792   8.257
17069WAT      O51448   8.525   0.233   2.003
17069WAT     H151449   8.520   0.134   2.018
17069WAT     H251450   8.512   0.252   1.905
17070WAT      O51451   5.901   1.053   7.337
17070WAT     H151452   5.853   1.141   7.339
17070WAT     H251453   5.967   1.049   7.412
17071WAT      O51454   6.867   7.452   8.719
17071WAT     H151455   6.769   7.450   8.740
17071WAT     H251456   6.911   7.370   8.756
17072WAT      O51457   9.198   1.246   3.693
17072WAT     H151458   9.207   1.284   3.785
17072WAT     H251459   9.287   1.248   3.647
17073WAT      O51460   9.185   8.478   2.537
17073WAT     H151461   9.123   8.540   2.489
17073WAT     H251462   9.269   8.467   2.484
17074WAT      O51463   5.550   1.815   3.711
17074WAT     H151464   5.479   1.838   3.644
17074WAT     H251465   5.599   1.899   3.736
17075WAT      O51466   8.115   9.159   6.832
17075WAT     H151467   8.082   9.134   6.924
17075WAT     H251468   8.042   9.204   6.781
17076WAT      O51469   5.944   5.524   9.327
17076WAT     H151470   5.992   5.458   9.385
17076WAT     H251471   5.944   5.613   9.372
17077WAT      O51472   7.576   6.561   0.387
17077WAT     H151473   7.510   6.635   0.400
17077WAT     H251474   7.585   6.541   0.289
17078WAT      O51475   5.445   9.544   6.284
17078WAT     H151476   5.464   9.464   6.340
17078WAT     H251477   5.444   9.626   6.342
17079WAT      O51478   6.629   7.477   8.878
17079WAT     H151479   6.657   7.508   8.968
17079WAT     H251480   6.530   7.490   8.867
17080WAT      O51481   1.029   4.245   0.858
17080WAT     H151482   1.014   4.293   0.945
17080WAT     H251483   0.943   4.207   0.826
17081WAT      O51484   5.142   5.810   9.755
17081WAT     H151485   5.088   5.726   9.745
17081WAT     H251486   5.133   5.844   9.849
17082WAT      O51487   4.177   5.853   3.625
17082WAT     H151488   4.106   5.791   3.592
17082WAT     H251489   4.265   5.806   3.624
17083WAT      O51490   8.396   5.830   5.344
17083WAT     H151491   8.480   5.838   5.292
17083WAT     H251492   8.401   5.750   5.404
17084WAT      O51493   0.916   6.182   9.191
17084WAT     H151494   0.820   6.211   9.183
17084WAT     H251495   0.970   6.258   9.227
17085WAT      O51496   6.550   7.806   2.509
17085WAT     H151497   6.575   7.710   2.500
17085WAT     H251498   6.459   7.821   2.469
17086WAT      O51499   6.478   8.696   4.810
17086WAT     H151500   6.379   8.685   4.808
17086WAT     H251501   6.504   8.738   4.897
17087WAT      O51502   6.808   9.300   5.383
17087WAT     H151503   6.837   9.256   5.468
17087WAT     H251504   6.883   9.355   5.347
17088WAT      O51505   1.320   9.660   7.828
17088WAT     H151506   1.348   9.745   7.873
17088WAT     H251507   1.310   9.588   7.897
17089WAT      O51508   3.452   7.192   6.329
17089WAT     H151509   3.520   7.226   6.394
17089WAT     H251510   3.485   7.205   6.236
17090WAT      O51511   1.989   1.638   6.983
17090WAT     H151512   1.910   1.577   6.993
17090WAT     H251513   1.957   1.731   6.965
17091WAT      O51514   7.139   3.137   3.303
17091WAT     H151515   7.157   3.096   3.392
17091WAT     H251516   7.153   3.069   3.231
17092WAT      O51517   2.654   4.221   4.412
17092WAT     H151518   2.706   4.198   4.495
17092WAT     H251519   2.558   4.236   4.437
17093WAT      O51520   0.158   1.214   4.668
17093WAT     H151521   0.186   1.187   4.761
17093WAT     H251522   0.140   1.312   4.666
17094WAT      O51523   6.917   9.513   2.107
17094WAT     H151524   6.973   9.458   2.169
17094WAT     H251525   6.887   9.596   2.155
17095WAT      O51526   5.660   3.765   3.253
17095WAT     H151527   5.723   3.698   3.293
17095WAT     H251528   5.713   3.837   3.208
17096WAT      O51529   9.424   3.616   6.102
17096WAT     H151530   9.441   3.544   6.170
17096WAT     H251531   9.486   3.603   6.024
17097WAT      O51532   8.826   7.319   7.323
17097WAT     H151533   8.783   7.246   7.269
17097WAT     H251534   8.837   7.400   7.265
17098WAT      O51535   0.760   5.523   2.601
17098WAT     H151536   0.819   5.576   2.540
17098WAT     H251537   0.692   5.472   2.547
17099WAT      O51538   8.011   0.976   2.822
17099WAT     H151539   7.929   0.932   2.786
17099WAT     H251540   8.026   0.947   2.917
17100WAT      O51541   4.156   7.136   9.536
17100WAT     H151542   4.237   7.121   9.593
17100WAT     H251543   4.129   7.050   9.493
17101WAT      O51544   0.141   0.233   7.949
17101WAT     H151545   0.191   0.229   7.862
17101WAT     H251546   0.130   0.329   7.976
17102WAT      O51547   1.374   9.317   5.648
17102WAT     H151548   1.313   9.369   5.708
17102WAT     H251549   1.459   9.297   5.696
17103WAT      O51550   8.487   5.478   6.062
17103WAT     H151551   8.550   5.533   6.007
17103WAT     H251552   8.393   5.493   6.030
17104WAT      O51553   4.338   2.147   0.564
17104WAT     H151554   4.424   2.196   0.575
17104WAT     H251555   4.268   2.188   0.622
17105WAT      O51556   4.600   9.506   2.255
17105WAT     H151557   4.652   9.561   2.320
17105WAT     H251558   4.635   9.521   2.162
17106WAT      O51559   1.063   3.217   3.173
17106WAT     H151560   1.122   3.261   3.240
17106WAT     H251561   1.108   3.134   3.139
17107WAT      O51562   7.793   9.626   4.667
17107WAT     H151563   7.853   9.547   4.651
17107WAT     H251564   7.795   9.649   4.764
17108WAT      O51565   7.386   5.904   8.097
17108WAT     H151566   7.322   5.920   8.022
17108WAT     H251567   7.412   5.992   8.138
17109WAT      O51568   9.445   4.267   5.512
17109WAT     H151569   9.457   4.323   5.430
17109WAT     H251570   9.531   4.224   5.537
17110WAT      O51571   4.651   1.608   7.070
17110WAT     H151572   4.728   1.590   7.010
17110WAT     H251573   4.622   1.704   7.060
17111WAT      O51574   4.846   3.033   9.209
17111WAT     H151575   4.926   3.013   9.266
17111WAT     H251576   4.766   2.985   9.246
17112WAT      O51577   8.119   0.207   4.023
17112WAT     H151578   8.192   0.252   4.075
17112WAT     H251579   8.134   0.108   4.022
17113WAT      O51580   1.055   0.083   8.625
17113WAT     H151581   1.087   0.171   8.661
17113WAT     H251582   1.091   0.069   8.534
17114WAT      O51583   7.011   4.620   0.022
17114WAT     H151584   6.980   4.714   0.011
17114WAT     H251585   6.945   4.557  -0.020
17115WAT      O51586   3.966   4.388   8.687
17115WAT     H151587   4.047   4.441   8.660
17115WAT     H251588   3.912   4.441   8.752
17116WAT      O51589   7.402   2.372   4.245
17116WAT     H151590   7.476   2.333   4.190
17116WAT     H251591   7.382   2.465   4.213
17117WAT      O51592   3.576   8.460   7.815
17117WAT     H151593   3.562   8.552   7.780
17117WAT     H251594   3.659   8.421   7.774
17118WAT      O51595   0.088   4.548   3.809
17118WAT     H151596   0.057   4.587   3.895
17118WAT     H251597   0.009   4.520   3.754
17119WAT      O51598   7.690   1.328   0.369
17119WAT     H151599   7.711   1.424   0.352
17119WAT     H251600   7.718   1.273   0.290
17120WAT      O51601   6.523   5.888   5.282
17120WAT     H151602   6.562   5.834   5.208
17120WAT     H251603   6.528   5.985   5.258
17121WAT      O51604   4.202   6.675   0.019
17121WAT     H151605   4.260   6.746  -0.022
17121WAT     H251606   4.227   6.586  -0.018
17122WAT      O51607   7.226   8.554   4.697
17122WAT     H151608   7.188   8.621   4.760
17122WAT     H251609   7.320   8.532   4.725
17123WAT      O51610   8.673   9.585   7.131
17123WAT     H151611   8.624   9.572   7.218
17123WAT     H251612   8.757   9.531   7.132
17124WAT      O51613   1.330   1.787   3.310
17124WAT     H151614   1.233   1.771   3.328
17124WAT     H251615   1.350   1.767   3.214
17125WAT      O51616   6.185   4.469   7.862
17125WAT     H151617   6.151   4.500   7.774
17125WAT     H251618   6.285   4.459   7.858
17126WAT      O51619   7.583   7.023   3.720
17126WAT     H151620   7.588   6.955   3.794
17126WAT     H251621   7.528   7.100   3.750
17127WAT      O51622   3.943   1.844   2.061
17127WAT     H151623   3.845   1.836   2.078
17127WAT     H251624   3.993   1.802   2.137
17128WAT      O51625   3.325   7.061   8.432
17128WAT     H151626   3.302   7.124   8.357
17128WAT     H251627   3.318   7.109   8.519
17129WAT      O51628   8.389   9.129   0.552
17129WAT     H151629   8.303   9.174   0.528
17129WAT     H251630   8.376   9.075   0.635
17130WAT      O51631   5.251   7.076   3.814
17130WAT     H151632   5.307   6.994   3.832
17130WAT     H251633   5.204   7.102   3.898
17131WAT      O51634   7.585   7.710   2.352
17131WAT     H151635   7.534   7.687   2.435
17131WAT     H251636   7.526   7.761   2.290
17132WAT      O51637   8.316   3.516   4.602
17132WAT     H151638   8.255   3.450   4.560
17132WAT     H251639   8.273   3.555   4.684
17133WAT      O51640   7.311   6.985   5.334
17133WAT     H151641   7.261   6.906   5.299
17133WAT     H251642   7.246   7.052   5.372
17134WAT      O51643   6.224   5.197   8.182
17134WAT     H151644   6.311   5.237   8.155
17134WAT     H251645   6.192   5.134   8.111
17135WAT      O51646   1.272   1.075   1.268
17135WAT     H151647   1.206   1.000   1.268
17135WAT     H251648   1.302   1.094   1.362
17136WAT      O51649   8.154   6.648   4.467
17136WAT     H151650   8.132   6.554   4.440
17136WAT     H251651   8.196   6.648   4.558
17137WAT      O51652   5.120   1.343   4.964
17137WAT     H151653   5.119   1.306   4.871
17137WAT     H251654   5.059   1.422   4.969
17138WAT      O51655   1.250   3.851   0.858
17138WAT     H151656   1.312   3.886   0.788
17138WAT     H251657   1.287   3.767   0.897
17139WAT      O51658   6.514   8.519   5.762
17139WAT     H151659   6.481   8.424   5.766
17139WAT     H251660   6.602   8.522   5.715
17140WAT      O51661   3.846   0.822   0.297
17140WAT     H151662   3.792   0.897   0.257
17140WAT     H251663   3.933   0.858   0.330
17141WAT      O51664   0.608   5.936   6.366
17141WAT     H151665   0.513   5.957   6.387
17141WAT     H251666   0.615   5.906   6.270
17142WAT      O51667   9.337   4.277   9.096
17142WAT     H151668   9.425   4.323   9.081
17142WAT     H251669   9.280   4.287   9.015
17143WAT      O51670   6.418   8.090   1.820
17143WAT     H151671   6.386   8.180   1.793
17143WAT     H251672   6.504   8.099   1.871
17144WAT      O51673   6.506   7.678   1.481
17144WAT     H151674   6.540   7.771   1.498
17144WAT     H251675   6.557   7.637   1.406
17145WAT      O51676   0.365   8.152   1.885
17145WAT     H151677   0.317   8.233   1.851
17145WAT     H251678   0.448   8.138   1.831
17146WAT      O51679   3.109   3.947   9.854
17146WAT     H151680   3.158   4.017   9.803
17146WAT     H251681   3.010   3.957   9.839
17147WAT      O51682   1.993   0.707   9.615
17147WAT     H151683   2.043   0.629   9.577
17147WAT     H251684   1.895   0.684   9.619
17148WAT      O51685   1.006   9.683   9.652
17148WAT     H151686   1.044   9.771   9.679
17148WAT     H251687   0.925   9.663   9.707
17149WAT      O51688   0.882   2.436   9.016
17149WAT     H151689   0.979   2.415   9.009
17149WAT     H251690   0.869   2.533   9.036
17150WAT      O51691   3.770   0.185   8.181
17150WAT     H151692   3.845   0.206   8.244
17150WAT     H251693   3.781   0.238   8.097
17151WAT      O51694   3.841   5.727   6.191
17151WAT     H151695   3.864   5.697   6.099
17151WAT     H251696   3.784   5.658   6.235
17152WAT      O51697   1.159   4.632   1.090
17152WAT     H151698   1.085   4.641   1.023
17152WAT     H251699   1.178   4.722   1.130
17153WAT      O51700   1.889   5.710   9.184
17153WAT     H151701   1.910   5.612   9.179
17153WAT     H251702   1.965   5.758   9.228
17154WAT      O51703   0.364   0.703   6.905
17154WAT     H151704   0.345   0.608   6.881
17154WAT     H251705   0.307   0.763   6.850
17155WAT      O51706   8.178   9.128   3.186
17155WAT     H151707   8.150   9.068   3.261
17155WAT     H251708   8.278   9.128   3.179
17156WAT      O51709   7.996   5.654   6.576
17156WAT     H151710   8.078   5.633   6.523
17156WAT     H251711   8.017   5.652   6.673
17157WAT      O51712   8.994   4.299   1.056
17157WAT     H151713   8.987   4.369   0.984
17157WAT     H251714   9.036   4.217   1.018
17158WAT      O51715   2.908   3.726   9.136
17158WAT     H151716   2.863   3.770   9.058
17158WAT     H251717   2.842   3.669   9.185
17159WAT      O51718   5.415   4.799   5.250
17159WAT     H151719   5.498   4.786   5.305
17159WAT     H251720   5.417   4.890   5.209
17160WAT      O51721   1.401   6.498   1.231
17160WAT     H151722   1.481   6.462   1.183
17160WAT     H251723   1.350   6.558   1.170
17161WAT      O51724   0.286   2.393   6.808
17161WAT     H151725   0.362   2.344   6.765
17161WAT     H251726   0.206   2.333   6.812
17162WAT      O51727   2.838   6.632   9.376
17162WAT     H151728   2.922   6.687   9.376
17162WAT     H251729   2.823   6.593   9.285
17163WAT      O51730   8.533   6.672   4.084
17163WAT     H151731   8.532   6.633   3.991
17163WAT     H251732   8.504   6.767   4.080
17164WAT      O51733   2.742   4.319   1.993
17164WAT     H151734   2.785   4.361   2.073
17164WAT     H251735   2.687   4.388   1.945
17165WAT      O51736   9.602   9.190   8.276
17165WAT     H151737   9.683   9.250   8.279
17165WAT     H251738   9.594   9.141   8.363
17166WAT      O51739   7.985   5.450   4.028
17166WAT     H151740   8.027   5.413   3.946
17166WAT     H251741   7.886   5.432   4.026
17167WAT      O51742   5.962   4.369   9.222
17167WAT     H151743   5.884   4.431   9.226
17167WAT     H251744   5.957   4.303   9.297
17168WAT      O51745   7.278   9.353   2.765
17168WAT     H151746   7.335   9.306   2.697
17168WAT     H251747   7.293   9.312   2.855
17169WAT      O51748   3.616   5.500   6.925
17169WAT     H151749   3.666   5.491   6.839
17169WAT     H251750   3.668   5.456   6.999
17170WAT      O51751   0.916   5.291   5.090
17170WAT     H151752   0.894   5.196   5.068
17170WAT     H251753   1.003   5.295   5.139
17171WAT      O51754   3.457   0.446   5.668
17171WAT     H151755   3.467   0.354   5.631
17171WAT     H251756   3.537   0.501   5.644
17172WAT      O51757   5.737   9.828   2.899
17172WAT     H151758   5.718   9.925   2.887
17172WAT     H251759   5.810   9.800   2.837
17173WAT      O51760   4.262   3.200   3.700
17173WAT     H151761   4.166   3.189   3.727
17173WAT     H251762   4.268   3.272   3.630
17174WAT      O51763   9.634   0.380   4.984
17174WAT     H151764   9.678   0.437   5.054
17174WAT     H251765   9.657   0.284   5.000
17175WAT      O51766   8.614   2.884   1.769
17175WAT     H151767   8.684   2.918   1.706
17175WAT     H251768   8.639   2.793   1.801
17176WAT      O51769   9.100   6.813   1.872
17176WAT     H151770   9.182   6.756   1.866
17176WAT     H251771   9.124   6.904   1.904
17177WAT      O51772   7.512   0.301   7.666
17177WAT     H151773   7.532   0.207   7.639
17177WAT     H251774   7.461   0.346   7.592
17178WAT      O51775   3.438   2.139   2.652
17178WAT     H151776   3.424   2.116   2.749
17178WAT     H251777   3.387   2.222   2.630
17179WAT      O51778   0.492   8.040   7.413
17179WAT     H151779   0.451   8.124   7.376
17179WAT     H251780   0.503   8.050   7.512
17180WAT      O51781   9.749   4.754   2.030
17180WAT     H151782   9.692   4.699   2.092
17180WAT     H251783   9.695   4.832   1.997
17181WAT      O51784   8.775   0.584   7.586
17181WAT     H151785   8.759   0.572   7.488
17181WAT     H251786   8.826   0.669   7.602
17182WAT      O51787   3.961   9.276   7.302
17182WAT     H151788   3.887   9.212   7.323
17182WAT     H251789   3.987   9.266   7.206
17183WAT      O51790   3.245   6.528   0.592
17183WAT     H151791   3.230   6.480   0.506
17183WAT     H251792   3.274   6.622   0.573
17184WAT      O51793   2.332   8.352   2.323
17184WAT     H151794   2.428   8.331   2.309
17184WAT     H251795   2.323   8.438   2.375
17185WAT      O51796   1.428   5.045   6.815
17185WAT     H151797   1.475   4.997   6.740
17185WAT     H251798   1.334   5.066   6.788
17186WAT      O51799   4.108   7.346   7.970
17186WAT     H151800   4.093   7.334   7.871
17186WAT     H251801   4.148   7.435   7.987
17187WAT      O51802   3.817   6.549   9.421
17187WAT     H151803   3.836   6.647   9.433
17187WAT     H251804   3.730   6.526   9.462
17188WAT      O51805   1.544   1.479   8.792
17188WAT     H151806   1.624   1.419   8.786
17188WAT     H251807   1.482   1.459   8.716
17189WAT      O51808   0.238   3.340   0.265
17189WAT     H151809   0.177   3.313   0.191
17189WAT     H251810   0.183   3.379   0.340
17190WAT      O51811   6.262   0.600   0.971
17190WAT     H151812   6.218   0.672   0.917
17190WAT     H251813   6.356   0.589   0.939
17191WAT      O51814   2.238   1.366   3.513
17191WAT     H151815   2.211   1.404   3.601
17191WAT     H251816   2.172   1.392   3.443
17192WAT      O51817   0.757   7.355   0.153
17192WAT     H151818   0.690   7.359   0.228
17192WAT     H251819   0.832   7.294   0.179
17193WAT      O51820   3.625   8.427   1.749
17193WAT     H151821   3.668   8.515   1.734
17193WAT     H251822   3.695   8.359   1.771
17194WAT      O51823   7.674   5.458   2.849
17194WAT     H151824   7.725   5.505   2.922
17194WAT     H251825   7.673   5.360   2.868
17195WAT      O51826   3.287   2.002   5.308
17195WAT     H151827   3.275   2.041   5.217
17195WAT     H251828   3.384   2.000   5.331
17196WAT      O51829   9.607   1.606   5.372
17196WAT     H151830   9.685   1.583   5.315
17196WAT     H251831   9.602   1.706   5.383
17197WAT      O51832   7.699   8.401   5.672
17197WAT     H151833   7.674   8.374   5.579
17197WAT     H251834   7.701   8.320   5.731
17198WAT      O51835   6.150   3.696   7.133
17198WAT     H151836   6.219   3.623   7.136
17198WAT     H251837   6.142   3.731   7.039
17199WAT      O51838   3.639   5.295   5.672
17199WAT     H151839   3.688   5.209   5.658
17199WAT     H251840   3.670   5.337   5.757
17200WAT      O51841   0.693   8.155   3.552
17200WAT     H151842   0.644   8.149   3.640
17200WAT     H251843   0.783   8.195   3.567
17201WAT      O51844   5.794   7.482   2.817
17201WAT     H151845   5.881   7.477   2.768
17201WAT     H251846   5.755   7.573   2.807
17202WAT      O51847   1.913   6.204   2.242
17202WAT     H151848   1.958   6.133   2.296
17202WAT     H251849   1.822   6.221   2.278
17203WAT      O51850   2.330   5.304   7.746
17203WAT     H151851   2.296   5.378   7.804
17203WAT     H251852   2.384   5.343   7.671
17204WAT      O51853   1.512   7.074   4.182
17204WAT     H151854   1.429   7.022   4.159
17204WAT     H251855   1.554   7.108   4.098
17205WAT      O51856   8.425   8.406   4.077
17205WAT     H151857   8.342   8.447   4.040
17205WAT     H251858   8.434   8.312   4.044
17206WAT      O51859   2.178   2.394   6.240
17206WAT     H151860   2.095   2.364   6.288
17206WAT     H251861   2.180   2.493   6.234
17207WAT      O51862   1.041   8.702   3.031
17207WAT     H151863   0.995   8.669   2.948
17207WAT     H251864   0.985   8.680   3.111
17208WAT      O51865   7.977   2.237   2.579
17208WAT     H151866   8.070   2.232   2.617
17208WAT     H251867   7.912   2.255   2.653
17209WAT      O51868   9.319   8.943   2.269
17209WAT     H151869   9.277   8.968   2.357
17209WAT     H251870   9.290   8.851   2.243
17210WAT      O51871   2.281   8.931   5.238
17210WAT     H151872   2.354   8.958   5.300
17210WAT     H251873   2.310   8.946   5.144
17211WAT      O51874   0.233   7.352   4.668
17211WAT     H151875   0.185   7.336   4.754
17211WAT     H251876   0.323   7.309   4.672
17212WAT      O51877   0.730   9.666   1.612
17212WAT     H151878   0.679   9.692   1.694
17212WAT     H251879   0.757   9.748   1.562
17213WAT      O51880   7.861   8.944   1.911
17213WAT     H151881   7.932   8.881   1.943
17213WAT     H251882   7.862   9.027   1.966
17214WAT      O51883   8.428   1.261   3.963
17214WAT     H151884   8.503   1.195   3.965
17214WAT     H251885   8.368   1.241   3.885
17215WAT      O51886   6.696   9.839   8.235
17215WAT     H151887   6.763   9.818   8.163
17215WAT     H251888   6.657   9.930   8.219
17216WAT      O51889   0.906   1.856   7.187
17216WAT     H151890   0.947   1.872   7.098
17216WAT     H251891   0.973   1.813   7.248
17217WAT      O51892   1.622   8.527   7.921
17217WAT     H151893   1.695   8.470   7.956
17217WAT     H251894   1.600   8.500   7.827
17218WAT      O51895   2.899   8.519   5.185
17218WAT     H151896   2.814   8.540   5.136
17218WAT     H251897   2.903   8.573   5.269
17219WAT      O51898   7.444   5.659   6.958
17219WAT     H151899   7.517   5.592   6.944
17219WAT     H251900   7.414   5.695   6.869
17220WAT      O51901   6.392   7.693   6.781
17220WAT     H151902   6.450   7.773   6.765
17220WAT     H251903   6.410   7.624   6.711
17221WAT      O51904   4.220   5.563   3.912
17221WAT     H151905   4.276   5.602   3.985
17221WAT     H251906   4.268   5.487   3.870
17222WAT      O51907   7.065   3.514   3.925
17222WAT     H151908   7.060   3.528   3.826
17222WAT     H251909   7.119   3.587   3.966
17223WAT      O51910   3.909   1.163   2.917
17223WAT     H151911   3.919   1.103   2.996
17223WAT     H251912   3.864   1.248   2.944
17224WAT      O51913   3.474   3.219   8.141
17224WAT     H151914   3.417   3.234   8.061
17224WAT     H251915   3.419   3.179   8.214
17225WAT      O51916   2.012   2.038   9.616
17225WAT     H151917   2.047   1.977   9.545
17225WAT     H251918   1.932   2.087   9.582
17226WAT      O51919   1.642   5.477   0.793
17226WAT     H151920   1.582   5.557   0.799
17226WAT     H251921   1.707   5.490   0.718
17227WAT      O51922   3.900   3.056   6.720
17227WAT     H151923   3.969   3.001   6.673
17227WAT     H251924   3.903   3.150   6.686
17228WAT      O51925   8.788   1.368   3.327
17228WAT     H151926   8.857   1.359   3.399
17228WAT     H251927   8.748   1.279   3.307
17229WAT      O51928   6.560   4.702   5.956
17229WAT     H151929   6.583   4.797   5.974
17229WAT     H251930   6.643   4.647   5.952
17230WAT      O51931   2.953   7.505   3.673
17230WAT     H151932   2.974   7.599   3.645
17230WAT     H251933   2.965   7.496   3.772
17231WAT      O51934   0.880   4.752   9.286
17231WAT     H151935   0.946   4.682   9.313
17231WAT     H251936   0.853   4.805   9.367
17232WAT      O51937   9.075   4.726   6.647
17232WAT     H151938   9.132   4.801   6.613
17232WAT     H251939   9.125   4.640   6.638
17233WAT      O51940   2.752   7.095   3.718
17233WAT     H151941   2.665   7.143   3.707
17233WAT     H251942   2.827   7.161   3.716
17234WAT      O51943   3.682   4.245   8.955
17234WAT     H151944   3.600   4.204   8.995
17234WAT     H251945   3.684   4.343   8.975
17235WAT      O51946   8.182   5.987   8.652
17235WAT     H151947   8.160   6.055   8.582
17235WAT     H251948   8.099   5.937   8.677
17236WAT      O51949   8.297   2.969   4.728
17236WAT     H151950   8.375   3.004   4.675
17236WAT     H251951   8.226   3.038   4.733
17237WAT      O51952   6.185   6.280   1.837
17237WAT     H151953   6.151   6.297   1.930
17237WAT     H251954   6.245   6.200   1.838
17238WAT      O51955   6.737   9.747   2.545
17238WAT     H151956   6.727   9.654   2.511
17238WAT     H251957   6.706   9.812   2.475
17239WAT      O51958   9.164   6.770   2.797
17239WAT     H151959   9.147   6.801   2.891
17239WAT     H251960   9.078   6.758   2.749
17240WAT      O51961   0.389   5.230   3.331
17240WAT     H151962   0.340   5.301   3.382
17240WAT     H251963   0.431   5.272   3.250
17241WAT      O51964   3.489   7.537   2.053
17241WAT     H151965   3.448   7.627   2.068
17241WAT     H251966   3.472   7.509   1.958
17242WAT      O51967   0.193   9.332   6.464
17242WAT     H151968   0.178   9.417   6.414
17242WAT     H251969   0.124   9.265   6.437
17243WAT      O51970   6.781   5.896   6.734
17243WAT     H151971   6.810   5.920   6.642
17243WAT     H251972   6.778   5.796   6.743
17244WAT      O51973   9.393   5.112   4.848
17244WAT     H151974   9.408   5.066   4.936
17244WAT     H251975   9.313   5.073   4.803
17245WAT      O51976   8.972   0.331   5.263
17245WAT     H151977   8.907   0.343   5.338
17245WAT     H251978   8.999   0.420   5.227
17246WAT      O51979   2.603   2.680   4.712
17246WAT     H151980   2.503   2.677   4.708
17246WAT     H251981   2.640   2.587   4.706
17247WAT      O51982   2.564   4.835   1.372
17247WAT     H151983   2.594   4.929   1.352
17247WAT     H251984   2.471   4.822   1.339
17248WAT      O51985   3.001   8.463   1.688
17248WAT     H151986   2.991   8.560   1.668
17248WAT     H251987   2.959   8.443   1.777
17249WAT      O51988   7.918   0.424   9.214
17249WAT     H151989   7.873   0.420   9.303
17249WAT     H251990   8.007   0.468   9.222
17250WAT      O51991   7.427   2.941   9.006
17250WAT     H151992   7.368   2.862   8.989
17250WAT     H251993   7.413   3.009   8.933
17251WAT      O51994   2.446   6.142   5.339
17251WAT     H151995   2.435   6.052   5.298
17251WAT     H251996   2.368   6.200   5.313
17252WAT      O51997   9.665   9.345   1.896
17252WAT     H151998   9.749   9.299   1.925
17252WAT     H251999   9.593   9.328   1.964
17253WAT      O52000   5.636   0.071   5.453
17253WAT     H152001   5.631  -0.003   5.386
17253WAT     H252002   5.601   0.039   5.541
17254WAT      O52003   9.754   5.173   1.425
17254WAT     H152004   9.726   5.079   1.441
17254WAT     H252005   9.854   5.180   1.425
17255WAT      O52006   9.113   5.471   5.233
17255WAT     H152007   9.065   5.507   5.153
17255WAT     H252008   9.161   5.545   5.280
17256WAT      O52009   2.797   6.089   4.272
17256WAT     H152010   2.885   6.111   4.230
17256WAT     H252011   2.727   6.152   4.238
17257WAT      O52012   6.546   7.330   4.887
17257WAT     H152013   6.523   7.233   4.889
17257WAT     H252014   6.574   7.359   4.978
17258WAT      O52015   3.811   8.181   4.514
17258WAT     H152016   3.781   8.086   4.515
17258WAT     H252017   3.791   8.223   4.602
17259WAT      O52018   7.826   5.838   6.940
17259WAT     H152019   7.909   5.854   6.886
17259WAT     H252020   7.841   5.759   7.000
17260WAT      O52021   1.984   6.169   2.839
17260WAT     H152022   1.911   6.151   2.905
17260WAT     H252023   2.071   6.177   2.886
17261WAT      O52024   2.351   5.190   8.597
17261WAT     H152025   2.290   5.232   8.665
17261WAT     H252026   2.323   5.096   8.580
17262WAT      O52027   8.937   3.766   7.884
17262WAT     H152028   8.910   3.787   7.978
17262WAT     H252029   9.025   3.718   7.885
17263WAT      O52030   6.922   8.242   0.477
17263WAT     H152031   6.960   8.150   0.493
17263WAT     H252032   6.918   8.291   0.564
17264WAT      O52033   4.150   4.080   8.695
17264WAT     H152034   4.211   4.004   8.714
17264WAT     H252035   4.160   4.150   8.766
17265WAT      O52036   5.964   9.464   4.486
17265WAT     H152037   5.977   9.422   4.576
17265WAT     H252038   6.040   9.439   4.426
17266WAT      O52039   4.818   9.458   7.808
17266WAT     H152040   4.725   9.430   7.782
17266WAT     H252041   4.875   9.377   7.819
17267WAT      O52042   9.512   5.981   4.503
17267WAT     H152043   9.472   6.071   4.522
17267WAT     H252044   9.477   5.947   4.416
17268WAT      O52045   0.960   9.793   2.878
17268WAT     H152046   0.954   9.756   2.785
17268WAT     H252047   0.908   9.878   2.883
17269WAT      O52048   3.775   2.156   7.465
17269WAT     H152049   3.753   2.174   7.561
17269WAT     H252050   3.872   2.174   7.450
17270WAT      O52051   9.112   6.255   8.105
17270WAT     H152052   9.124   6.254   8.205
17270WAT     H252053   9.167   6.183   8.064
17271WAT      O52054   4.558   7.182   1.680
17271WAT     H152055   4.609   7.245   1.739
17271WAT     H252056   4.571   7.207   1.584
17272WAT      O52057   1.872   7.128   4.069
17272WAT     H152058   1.787   7.097   4.025
17272WAT     H252059   1.870   7.228   4.077
17273WAT      O52060   0.761   8.481   0.299
17273WAT     H152061   0.844   8.517   0.341
17273WAT     H252062   0.761   8.381   0.306
17274WAT      O52063   0.824   5.477   8.959
17274WAT     H152064   0.797   5.524   9.043
17274WAT     H252065   0.796   5.531   8.879
17275WAT      O52066   5.777   6.408   5.856
17275WAT     H152067   5.766   6.372   5.948
17275WAT     H252068   5.690   6.400   5.806
17276WAT      O52069   6.899   4.724   7.896
17276WAT     H152070   6.848   4.743   7.812
17276WAT     H252071   6.990   4.766   7.890
17277WAT      O52072   5.099   4.392   8.079
17277WAT     H152073   5.063   4.420   8.168
17277WAT     H252074   5.162   4.315   8.091
17278WAT      O52075   8.943   2.287   7.408
17278WAT     H152076   8.890   2.326   7.484
17278WAT     H252077   8.958   2.357   7.338
17279WAT      O52078   2.292   4.804   1.342
17279WAT     H152079   2.285   4.708   1.315
17279WAT     H252080   2.270   4.813   1.439
17280WAT      O52081   9.469   8.026   2.745
17280WAT     H152082   9.393   7.964   2.726
17280WAT     H252083   9.472   8.097   2.674
17281WAT      O52084   0.805   7.514   8.150
17281WAT     H152085   0.849   7.588   8.201
17281WAT     H252086   0.734   7.553   8.090
17282WAT      O52087   4.793   6.655   7.305
17282WAT     H152088   4.726   6.647   7.231
17282WAT     H252089   4.774   6.737   7.358
17283WAT      O52090   2.106   6.655   6.444
17283WAT     H152091   2.166   6.592   6.395
17283WAT     H252092   2.022   6.667   6.392
17284WAT      O52093   5.505   1.097   8.390
17284WAT     H152094   5.584   1.070   8.446
17284WAT     H252095   5.470   1.184   8.424
17285WAT      O52096   5.011   4.415   0.811
17285WAT     H152097   4.938   4.372   0.758
17285WAT     H252098   5.063   4.476   0.752
17286WAT      O52099   5.998   0.288   6.662
17286WAT     H152100   5.914   0.343   6.668
17286WAT     H252101   5.975   0.191   6.671
17287WAT      O52102   8.761   5.815   8.577
17287WAT     H152103   8.669   5.788   8.551
17287WAT     H252104   8.828   5.755   8.534
17288WAT      O52105   8.560   0.992   0.099
17288WAT     H152106   8.506   0.979   0.181
17288WAT     H252107   8.524   1.069   0.046
17289WAT      O52108   9.362   2.796   0.722
17289WAT     H152109   9.405   2.748   0.798
17289WAT     H252110   9.326   2.729   0.657
17290WAT      O52111   5.076   8.137   8.378
17290WAT     H152112   5.050   8.232   8.361
17290WAT     H252113   5.058   8.115   8.474
17291WAT      O52114   6.772   5.482   1.681
17291WAT     H152115   6.743   5.483   1.776
17291WAT     H252116   6.787   5.576   1.649
17292WAT      O52117   9.618   4.985   6.986
17292WAT     H152118   9.636   5.049   7.061
17292WAT     H252119   9.636   5.030   6.899
17293WAT      O52120   7.376   4.236   1.154
17293WAT     H152121   7.402   4.246   1.250
17293WAT     H252122   7.449   4.270   1.095
17294WAT      O52123   2.902   2.880   9.359
17294WAT     H152124   2.909   2.893   9.457
17294WAT     H252125   2.989   2.904   9.316
17295WAT      O52126   0.721   7.610   4.479
17295WAT     H152127   0.641   7.644   4.430
17295WAT     H252128   0.741   7.668   4.557
17296WAT      O52129   3.283   6.121   4.208
17296WAT     H152130   3.319   6.030   4.229
17296WAT     H252131   3.325   6.189   4.269
17297WAT      O52132   3.178   8.850   2.554
17297WAT     H152133   3.243   8.908   2.603
17297WAT     H252134   3.188   8.865   2.456
17298WAT      O52135   4.250   9.666  -0.004
17298WAT     H152136   4.170   9.710   0.036
17298WAT     H252137   4.259   9.573   0.033
17299WAT      O52138   3.928   4.809   2.715
17299WAT     H152139   3.877   4.893   2.734
17299WAT     H252140   3.938   4.798   2.616
17300WAT      O52141   3.646   8.891   0.544
17300WAT     H152142   3.548   8.902   0.560
17300WAT     H252143   3.675   8.953   0.471
17301WAT      O52144   9.189   4.613   2.019
17301WAT     H152145   9.155   4.520   2.006
17301WAT     H252146   9.172   4.642   2.113
17302WAT      O52147   8.466   5.379   5.057
17302WAT     H152148   8.462   5.287   5.019
17302WAT     H252149   8.393   5.390   5.124
17303WAT      O52150   7.692   6.581   7.068
17303WAT     H152151   7.734   6.652   7.124
17303WAT     H252152   7.757   6.506   7.054
17304WAT      O52153   2.106   7.418   8.476
17304WAT     H152154   2.033   7.467   8.523
17304WAT     H252155   2.193   7.437   8.521
17305WAT      O52156   2.000   2.017   1.817
17305WAT     H152157   2.040   2.015   1.725
17305WAT     H252158   1.930   2.088   1.822
17306WAT      O52159   7.852   1.841   5.959
17306WAT     H152160   7.813   1.764   5.909
17306WAT     H252161   7.952   1.835   5.956
17307WAT      O52162   4.778   6.269   4.787
17307WAT     H152163   4.711   6.196   4.804
17307WAT     H252164   4.833   6.282   4.869
17308WAT      O52165   6.157   2.603   1.468
17308WAT     H152166   6.057   2.601   1.457
17308WAT     H252167   6.199   2.540   1.402
17309WAT      O52168   4.808   3.332   5.192
17309WAT     H152169   4.801   3.396   5.115
17309WAT     H252170   4.845   3.245   5.159
17310WAT      O52171   0.403   3.857   4.050
17310WAT     H152172   0.316   3.885   4.089
17310WAT     H252173   0.475   3.921   4.079
17311WAT      O52174   4.068   6.431   9.346
17311WAT     H152175   3.987   6.490   9.351
17311WAT     H252176   4.052   6.359   9.279
17312WAT      O52177   6.060   5.510   0.236
17312WAT     H152178   6.017   5.546   0.319
17312WAT     H252179   5.992   5.505   0.163
17313WAT      O52180   1.630   5.904   6.778
17313WAT     H152181   1.532   5.916   6.797
17313WAT     H252182   1.683   5.968   6.834
17314WAT      O52183   2.962   6.694   4.332
17314WAT     H152184   2.889   6.739   4.281
17314WAT     H252185   2.974   6.740   4.420
17315WAT      O52186   8.624   2.530   3.951
17315WAT     H152187   8.558   2.576   3.892
17315WAT     H252188   8.716   2.565   3.932
17316WAT      O52189   8.700   7.024   9.529
17316WAT     H152190   8.655   6.966   9.461
17316WAT     H252191   8.729   6.968   9.607
17317WAT      O52192   8.488   3.717   9.514
17317WAT     H152193   8.449   3.805   9.491
17317WAT     H252194   8.508   3.665   9.431
17318WAT      O52195   8.761   3.833   1.640
17318WAT     H152196   8.811   3.919   1.626
17318WAT     H252197   8.681   3.831   1.580
17319WAT      O52198   7.543   5.216   4.001
17319WAT     H152199   7.447   5.200   3.977
17319WAT     H252200   7.602   5.167   3.938
17320WAT      O52201   0.192   3.405   7.535
17320WAT     H152202   0.184   3.395   7.634
17320WAT     H252203   0.271   3.462   7.513
17321WAT      O52204   2.268   6.715   1.599
17321WAT     H152205   2.175   6.744   1.621
17321WAT     H252206   2.283   6.622   1.632
17322WAT      O52207   8.249   9.203   3.982
17322WAT     H152208   8.344   9.179   3.964
17322WAT     H252209   8.212   9.253   3.904
17323WAT      O52210   2.734   2.274   6.542
17323WAT     H152211   2.642   2.243   6.518
17323WAT     H252212   2.786   2.294   6.459
17324WAT      O52213   0.580   0.045   0.378
17324WAT     H152214   0.648   0.005   0.439
17324WAT     H252215   0.572  -0.010   0.295
17325WAT      O52216   0.591   8.215   6.831
17325WAT     H152217   0.536   8.279   6.779
17325WAT     H252218   0.567   8.221   6.928
17326WAT      O52219   5.316   6.626   9.886
17326WAT     H152220   5.320   6.726   9.883
17326WAT     H252221   5.306   6.596   9.980
17327WAT      O52222   7.171   2.385   5.330
17327WAT     H152223   7.270   2.393   5.317
17327WAT     H252224   7.145   2.431   5.415
17328WAT      O52225   6.419   0.412   7.782
17328WAT     H152226   6.381   0.462   7.704
17328WAT     H252227   6.350   0.349   7.818
17329WAT      O52228   2.651   7.974   3.997
17329WAT     H152229   2.674   7.932   4.085
17329WAT     H252230   2.643   8.073   4.008
17330WAT      O52231   0.043   9.340   0.502
17330WAT     H152232  -0.025   9.386   0.444
17330WAT     H252233   0.126   9.323   0.448
17331WAT      O52234   4.899   8.389   8.577
17331WAT     H152235   4.822   8.367   8.638
17331WAT     H252236   4.984   8.354   8.618
17332WAT      O52237   7.794   3.448   6.225
17332WAT     H152238   7.814   3.351   6.212
17332WAT     H252239   7.862   3.503   6.175
17333WAT      O52240   4.535   9.388   1.256
17333WAT     H152241   4.618   9.419   1.303
17333WAT     H252242   4.560   9.331   1.178
17334WAT      O52243   8.552   8.181   9.126
17334WAT     H152244   8.541   8.138   9.036
17334WAT     H252245   8.557   8.111   9.197
17335WAT      O52246   4.444   7.391   2.800
17335WAT     H152247   4.460   7.303   2.845
17335WAT     H252248   4.503   7.398   2.720
17336WAT      O52249   1.496   1.901   5.925
17336WAT     H152250   1.524   1.996   5.937
17336WAT     H252251   1.398   1.892   5.944
17337WAT      O52252   5.421   3.427   3.510
17337WAT     H152253   5.431   3.468   3.420
17337WAT     H252254   5.340   3.368   3.511
17338WAT      O52255   2.042   7.321   0.650
17338WAT     H152256   2.030   7.352   0.555
17338WAT     H252257   1.957   7.279   0.682
17339WAT      O52258   7.249   8.573   6.903
17339WAT     H152259   7.336   8.590   6.857
17339WAT     H252260   7.224   8.476   6.893
17340WAT      O52261   1.426   2.468   2.209
17340WAT     H152262   1.468   2.393   2.260
17340WAT     H252263   1.329   2.474   2.234
17341WAT      O52264   6.111   1.763   2.576
17341WAT     H152265   6.080   1.702   2.503
17341WAT     H252266   6.048   1.759   2.653
17342WAT      O52267   0.025   9.125   3.131
17342WAT     H152268   0.032   9.052   3.062
17342WAT     H252269   0.091   9.108   3.204
17343WAT      O52270   0.754   9.441   1.486
17343WAT     H152271   0.714   9.522   1.530
17343WAT     H252272   0.735   9.444   1.388
17344WAT      O52273   3.918   1.751   7.032
17344WAT     H152274   4.003   1.797   7.009
17344WAT     H252275   3.938   1.666   7.081
17345WAT      O52276   6.659   6.215   1.646
17345WAT     H152277   6.583   6.256   1.595
17345WAT     H252278   6.627   6.134   1.694
17346WAT      O52279   7.813   9.211   6.166
17346WAT     H152280   7.821   9.194   6.264
17346WAT     H252281   7.822   9.309   6.147
17347WAT      O52282   8.350   9.814   9.554
17347WAT     H152283   8.289   9.893   9.561
17347WAT     H252284   8.363   9.773   9.644
17348WAT      O52285   3.439   2.161   3.175
17348WAT     H152286   3.385   2.166   3.258
17348WAT     H252287   3.530   2.124   3.196
17349WAT      O52288   0.219   6.781   1.319
17349WAT     H152289   0.177   6.864   1.283
17349WAT     H252290   0.317   6.783   1.300
17350WAT      O52291   1.015   1.561   3.630
17350WAT     H152292   1.014   1.660   3.644
17350WAT     H252293   0.948   1.536   3.561
17351WAT      O52294   6.117   2.306   4.737
17351WAT     H152295   6.135   2.404   4.744
17351WAT     H252296   6.057   2.277   4.812
17352WAT      O52297   7.780   7.887   6.063
17352WAT     H152298   7.690   7.930   6.074
17352WAT     H252299   7.851   7.955   6.081
17353WAT      O52300   8.637   9.083   9.013
17353WAT     H152301   8.595   9.154   9.069
17353WAT     H252302   8.680   9.125   8.933
17354WAT      O52303   3.560   2.650   0.872
17354WAT     H152304   3.494   2.720   0.900
17354WAT     H252305   3.514   2.563   0.860
17355WAT      O52306   2.022   1.191   1.960
17355WAT     H152307   2.047   1.245   1.880
17355WAT     H252308   2.047   1.241   2.043
17356WAT      O52309   4.851   4.792   3.444
17356WAT     H152310   4.938   4.767   3.402
17356WAT     H252311   4.781   4.725   3.419
17357WAT      O52312   4.432   7.177   0.950
17357WAT     H152313   4.337   7.198   0.975
17357WAT     H252314   4.438   7.167   0.851
17358WAT      O52315   8.126   7.239   1.794
17358WAT     H152316   8.049   7.195   1.841
17358WAT     H252317   8.163   7.176   1.725
17359WAT      O52318   3.680   5.943   5.166
17359WAT     H152319   3.709   5.848   5.173
17359WAT     H252320   3.751   5.997   5.120
17360WAT      O52321   4.162   9.411   0.576
17360WAT     H152322   4.124   9.320   0.589
17360WAT     H252323   4.098   9.479   0.612
17361WAT      O52324   5.538   7.338   1.413
17361WAT     H152325   5.460   7.400   1.410
17361WAT     H252326   5.596   7.360   1.491
17362WAT      O52327   8.716   6.304   5.846
17362WAT     H152328   8.716   6.265   5.754
17362WAT     H252329   8.804   6.348   5.863
17363WAT      O52330   5.675   5.175   0.661
17363WAT     H152331   5.744   5.151   0.730
17363WAT     H252332   5.646   5.270   0.676
17364WAT      O52333   3.017   7.098   8.984
17364WAT     H152334   2.951   7.062   9.050
17364WAT     H252335   3.044   7.191   9.012
17365WAT      O52336   3.057   1.163   6.507
17365WAT     H152337   2.983   1.167   6.440
17365WAT     H252338   3.024   1.117   6.590
17366WAT      O52339   2.126   0.351   4.022
17366WAT     H152340   2.120   0.252   4.018
17366WAT     H252341   2.034   0.389   4.034
17367WAT      O52342   5.236   6.850   5.853
17367WAT     H152343   5.289   6.890   5.928
17367WAT     H252344   5.218   6.920   5.784
17368WAT      O52345   6.666   8.762   1.812
17368WAT     H152346   6.669   8.727   1.906
17368WAT     H252347   6.708   8.695   1.750
17369WAT      O52348   6.739   5.968   7.293
17369WAT     H152349   6.828   5.924   7.307
17369WAT     H252350   6.689   5.920   7.221
17370WAT      O52351   4.900   3.447   0.323
17370WAT     H152352   4.874   3.511   0.396
17370WAT     H252353   4.933   3.499   0.244
17371WAT      O52354   9.680   8.397   2.610
17371WAT     H152355   9.755   8.381   2.545
17371WAT     H252356   9.600   8.343   2.583
17372WAT      O52357   6.088   2.045   9.861
17372WAT     H152358   6.158   1.999   9.806
17372WAT     H252359   5.997   2.019   9.828
17373WAT      O52360   0.474   7.007   8.806
17373WAT     H152361   0.432   7.093   8.833
17373WAT     H252362   0.404   6.947   8.767
17374WAT      O52363   6.353   6.749   8.563
17374WAT     H152364   6.297   6.813   8.510
17374WAT     H252365   6.372   6.668   8.507
17375WAT      O52366   1.605   1.011   5.234
17375WAT     H152367   1.599   1.096   5.182
17375WAT     H252368   1.558   1.021   5.321
17376WAT      O52369   2.263   4.978   9.132
17376WAT     H152370   2.274   5.039   9.054
17376WAT     H252371   2.166   4.954   9.142
17377WAT      O52372   3.560   7.097   6.012
17377WAT     H152373   3.571   7.028   6.084
17377WAT     H252374   3.547   7.051   5.924
17378WAT      O52375   1.284   3.944   3.310
17378WAT     H152376   1.274   4.041   3.290
17378WAT     H252377   1.201   3.911   3.356
17379WAT      O52378   7.868   6.231   7.401
17379WAT     H152379   7.797   6.290   7.361
17379WAT     H252380   7.940   6.216   7.334
17380WAT      O52381   9.360   8.661   2.178
17380WAT     H152382   9.389   8.599   2.105
17380WAT     H252383   9.380   8.619   2.267
17381WAT      O52384   9.227   7.130   4.719
17381WAT     H152385   9.257   7.105   4.627
17381WAT     H252386   9.307   7.131   4.780
17382WAT      O52387   4.346   5.936   8.509
17382WAT     H152388   4.440   5.928   8.477
17382WAT     H252389   4.336   5.883   8.594
17383WAT      O52390   2.433   0.403   6.884
17383WAT     H152391   2.490   0.356   6.816
17383WAT     H252392   2.349   0.350   6.900
17384WAT      O52393   7.388   4.581   3.432
17384WAT     H152394   7.396   4.514   3.358
17384WAT     H252395   7.291   4.596   3.454
17385WAT      O52396   5.098   7.994   3.441
17385WAT     H152397   5.195   7.980   3.462
17385WAT     H252398   5.044   7.982   3.524
17386WAT      O52399   9.284   6.368   6.534
17386WAT     H152400   9.194   6.403   6.508
17386WAT     H252401   9.353   6.436   6.514
17387WAT      O52402   8.373   8.109   0.483
17387WAT     H152403   8.422   8.024   0.463
17387WAT     H252404   8.426   8.187   0.449
17388WAT      O52405   2.608   6.588   4.136
17388WAT     H152406   2.513   6.598   4.107
17388WAT     H252407   2.650   6.512   4.087
17389WAT      O52408   7.007   5.932   4.715
17389WAT     H152409   7.039   5.956   4.806
17389WAT     H252410   6.940   6.000   4.683
17390WAT      O52411   4.270   7.622   3.815
17390WAT     H152412   4.288   7.525   3.832
17390WAT     H252413   4.171   7.637   3.815
17391WAT      O52414   6.488   7.942   1.578
17391WAT     H152415   6.488   8.007   1.501
17391WAT     H252416   6.446   7.986   1.658
17392WAT      O52417   1.447   1.342   4.332
17392WAT     H152418   1.350   1.363   4.338
17392WAT     H252419   1.495   1.381   4.410
17393WAT      O52420   3.705   6.293   2.820
17393WAT     H152421   3.648   6.363   2.863
17393WAT     H252422   3.800   6.324   2.819
17394WAT      O52423   1.482   7.597   7.044
17394WAT     H152424   1.536   7.638   6.971
17394WAT     H252425   1.542   7.574   7.121
17395WAT      O52426   4.616   2.460   7.268
17395WAT     H152427   4.710   2.442   7.299
17395WAT     H252428   4.586   2.385   7.210
17396WAT      O52429   6.308   1.026   5.720
17396WAT     H152430   6.316   1.024   5.819
17396WAT     H252431   6.305   1.120   5.688
17397WAT      O52432   6.633   6.701   6.604
17397WAT     H152433   6.623   6.617   6.658
17397WAT     H252434   6.729   6.729   6.604
17398WAT      O52435   3.245   0.734   7.605
17398WAT     H152436   3.201   0.824   7.601
17398WAT     H252437   3.305   0.723   7.526
17399WAT      O52438   6.041   1.541   3.153
17399WAT     H152439   6.139   1.520   3.161
17399WAT     H252440   6.027   1.608   3.080
17400WAT      O52441   1.616   2.101   6.668
17400WAT     H152442   1.679   2.129   6.741
17400WAT     H252443   1.574   2.182   6.627
17401WAT      O52444   6.302   5.588   6.036
17401WAT     H152445   6.396   5.607   6.006
17401WAT     H252446   6.253   5.674   6.050
17402WAT      O52447   1.551   2.744   8.665
17402WAT     H152448   1.604   2.818   8.623
17402WAT     H252449   1.481   2.712   8.602
17403WAT      O52450   4.427   0.621   0.317
17403WAT     H152451   4.510   0.660   0.276
17403WAT     H252452   4.447   0.590   0.410
17404WAT      O52453   4.850   0.598   6.915
17404WAT     H152454   4.886   0.651   6.838
17404WAT     H252455   4.752   0.586   6.905
17405WAT      O52456   4.557   8.122   4.562
17405WAT     H152457   4.522   8.137   4.655
17405WAT     H252458   4.608   8.037   4.559
17406WAT      O52459   6.360   6.736   0.783
17406WAT     H152460   6.407   6.785   0.856
17406WAT     H252461   6.364   6.637   0.801
17407WAT      O52462   2.682   4.150   0.814
17407WAT     H152463   2.661   4.246   0.794
17407WAT     H252464   2.660   4.130   0.909
17408WAT      O52465   4.094   3.348   2.837
17408WAT     H152466   3.998   3.348   2.862
17408WAT     H252467   4.141   3.273   2.884
17409WAT      O52468   8.706   0.708   2.738
17409WAT     H152469   8.639   0.637   2.758
17409WAT     H252470   8.664   0.798   2.751
17410WAT      O52471   2.416   6.840   4.822
17410WAT     H152472   2.327   6.815   4.860
17410WAT     H252473   2.489   6.796   4.875
17411WAT      O52474   1.756   5.064   0.931
17411WAT     H152475   1.853   5.056   0.908
17411WAT     H252476   1.715   4.973   0.938
17412WAT      O52477   7.373   2.265   8.298
17412WAT     H152478   7.319   2.346   8.273
17412WAT     H252479   7.459   2.266   8.248
17413WAT      O52480   8.167   1.703   7.492
17413WAT     H152481   8.134   1.786   7.536
17413WAT     H252482   8.216   1.727   7.408
17414WAT      O52483   2.398   3.305   4.839
17414WAT     H152484   2.409   3.369   4.915
17414WAT     H252485   2.452   3.338   4.761
17415WAT      O52486   3.139   7.689   0.861
17415WAT     H152487   3.209   7.646   0.919
17415WAT     H252488   3.184   7.751   0.796
17416WAT      O52489   7.634   1.805   4.485
17416WAT     H152490   7.624   1.761   4.574
17416WAT     H252491   7.681   1.892   4.495
17417WAT      O52492   8.251   6.307   4.868
17417WAT     H152493   8.328   6.354   4.826
17417WAT     H252494   8.183   6.285   4.799
17418WAT      O52495   9.558   0.326   6.713
17418WAT     H152496   9.605   0.286   6.634
17418WAT     H252497   9.506   0.407   6.682
17419WAT      O52498   3.542   2.221   3.798
17419WAT     H152499   3.504   2.278   3.871
17419WAT     H252500   3.526   2.266   3.710
17420WAT      O52501   0.563   7.290   6.815
17420WAT     H152502   0.542   7.388   6.821
17420WAT     H252503   0.662   7.278   6.808
17421WAT      O52504   9.200   5.406   3.571
17421WAT     H152505   9.258   5.393   3.651
17421WAT     H252506   9.235   5.349   3.496
17422WAT      O52507   5.535   4.778   9.033
17422WAT     H152508   5.627   4.804   9.063
17422WAT     H252509   5.506   4.837   8.958
17423WAT      O52510   8.800   1.041   4.646
17423WAT     H152511   8.788   1.055   4.548
17423WAT     H252512   8.843   1.121   4.687
17424WAT      O52513   4.071   7.610   7.774
17424WAT     H152514   4.132   7.686   7.757
17424WAT     H252515   3.978   7.635   7.747
17425WAT      O52516   8.793   2.759   3.758
17425WAT     H152517   8.752   2.773   3.668
17425WAT     H252518   8.792   2.846   3.809
17426WAT      O52519   7.176   0.926   0.804
17426WAT     H152520   7.163   0.974   0.891
17426WAT     H252521   7.194   0.992   0.732
17427WAT      O52522   0.298   2.564   8.915
17427WAT     H152523   0.295   2.628   8.838
17427WAT     H252524   0.255   2.478   8.890
17428WAT      O52525   8.817   3.659   0.168
17428WAT     H152526   8.755   3.583   0.186
17428WAT     H252527   8.887   3.662   0.239
17429WAT      O52528   9.161   0.390   0.918
17429WAT     H152529   9.187   0.296   0.893
17429WAT     H252530   9.090   0.387   0.988
17430WAT      O52531   1.815   6.086   8.044
17430WAT     H152532   1.884   6.061   8.112
17430WAT     H252533   1.754   6.009   8.029
17431WAT      O52534   2.365   5.771   0.849
17431WAT     H152535   2.304   5.743   0.923
17431WAT     H252536   2.346   5.718   0.767
17432WAT      O52537   6.228   8.484   0.990
17432WAT     H152538   6.297   8.557   0.985
17432WAT     H252539   6.246   8.417   0.919
17433WAT      O52540   7.642   5.042   2.792
17433WAT     H152541   7.571   5.028   2.723
17433WAT     H252542   7.725   5.074   2.747
17434WAT      O52543   0.462   7.484   0.649
17434WAT     H152544   0.556   7.489   0.613
17434WAT     H252545   0.430   7.577   0.669
17435WAT      O52546   9.185   0.457   2.924
17435WAT     H152547   9.262   0.490   2.980
17435WAT     H252548   9.217   0.444   2.830
17436WAT      O52549   0.362   9.023   1.482
17436WAT     H152550   0.424   9.101   1.474
17436WAT     H252551   0.359   8.974   1.395
17437WAT      O52552   3.974   0.918   9.664
17437WAT     H152553   4.053   0.969   9.697
17437WAT     H252554   3.891   0.969   9.685
17438WAT      O52555   3.326   2.051   3.955
17438WAT     H152556   3.274   2.063   3.871
17438WAT     H252557   3.276   1.991   4.018
17439WAT      O52558   7.157   2.295   4.330
17439WAT     H152559   7.144   2.308   4.429
17439WAT     H252560   7.250   2.320   4.305
17440WAT      O52561   6.876   2.386   1.400
17440WAT     H152562   6.794   2.376   1.455
17440WAT     H252563   6.897   2.299   1.355
17441WAT      O52564   9.422   8.903   6.451
17441WAT     H152565   9.488   8.976   6.472
17441WAT     H252566   9.457   8.849   6.375
17442WAT      O52567   8.639   2.073   9.359
17442WAT     H152568   8.689   2.158   9.338
17442WAT     H252569   8.567   2.093   9.426
17443WAT      O52570   1.221   3.187   0.244
17443WAT     H152571   1.278   3.208   0.323
17443WAT     H252572   1.272   3.206   0.160
17444WAT      O52573   0.201   7.133   0.992
17444WAT     H152574   0.207   7.115   0.894
17444WAT     H252575   0.115   7.180   1.012
17445WAT      O52576   4.816   7.212   3.520
17445WAT     H152577   4.760   7.287   3.485
17445WAT     H252578   4.812   7.211   3.620
17446WAT      O52579   4.312   6.692   2.965
17446WAT     H152580   4.411   6.690   2.949
17446WAT     H252581   4.264   6.699   2.878
17447WAT      O52582   6.399   7.533   2.671
17447WAT     H152583   6.390   7.506   2.767
17447WAT     H252584   6.463   7.471   2.625
17448WAT      O52585   3.209   4.753   8.428
17448WAT     H152586   3.169   4.714   8.345
17448WAT     H252587   3.308   4.757   8.419
17449WAT      O52588   2.372   1.477   6.673
17449WAT     H152589   2.431   1.548   6.635
17449WAT     H252590   2.288   1.470   6.618
17450WAT      O52591   8.374   6.917   1.718
17450WAT     H152592   8.303   6.973   1.676
17450WAT     H252593   8.368   6.823   1.684
17451WAT      O52594   1.794   9.602   5.191
17451WAT     H152595   1.856   9.660   5.139
17451WAT     H252596   1.731   9.556   5.128
17452WAT      O52597   5.762   3.540   2.834
17452WAT     H152598   5.809   3.473   2.891
17452WAT     H252599   5.821   3.565   2.757
17453WAT      O52600   3.386   8.622   1.029
17453WAT     H152601   3.453   8.566   0.980
17453WAT     H252602   3.339   8.682   0.964
17454WAT      O52603   4.293   0.002   6.177
17454WAT     H152604   4.369   0.066   6.191
17454WAT     H252605   4.316  -0.061   6.103
17455WAT      O52606   1.875   0.126   5.353
17455WAT     H152607   1.851   0.101   5.447
17455WAT     H252608   1.793   0.125   5.296
17456WAT      O52609   1.795   8.095   2.274
17456WAT     H152610   1.791   8.090   2.374
17456WAT     H252611   1.713   8.139   2.239
17457WAT      O52612   8.488   9.808   2.926
17457WAT     H152613   8.395   9.771   2.920
17457WAT     H252614   8.533   9.798   2.837
17458WAT      O52615   9.013   8.242   1.550
17458WAT     H152616   8.945   8.171   1.533
17458WAT     H252617   9.099   8.217   1.504
17459WAT      O52618   7.083   8.939   8.678
17459WAT     H152619   7.044   9.015   8.730
17459WAT     H252620   7.175   8.964   8.646
17460WAT      O52621   0.260   5.536   1.412
17460WAT     H152622   0.353   5.515   1.444
17460WAT     H252623   0.197   5.534   1.489
17461WAT      O52624   2.888   4.747   7.337
17461WAT     H152625   2.882   4.653   7.304
17461WAT     H252626   2.976   4.762   7.380
17462WAT      O52627   2.157   1.596   3.202
17462WAT     H152628   2.235   1.534   3.215
17462WAT     H252629   2.147   1.616   3.105
17463WAT      O52630   7.153   6.623   8.579
17463WAT     H152631   7.079   6.558   8.594
17463WAT     H252632   7.188   6.613   8.485
17464WAT      O52633   9.768   8.981   5.199
17464WAT     H152634   9.837   8.956   5.130
17464WAT     H252635   9.782   8.926   5.281
17465WAT      O52636   1.182   7.946   6.652
17465WAT     H152637   1.221   7.890   6.725
17465WAT     H252638   1.212   7.910   6.563
17466WAT      O52639   5.058   8.689   4.999
17466WAT     H152640   5.008   8.699   5.085
17466WAT     H252641   5.074   8.779   4.959
17467WAT      O52642   7.194   4.823   0.093
17467WAT     H152643   7.184   4.846   0.190
17467WAT     H252644   7.174   4.726   0.079
17468WAT      O52645   0.018   3.485   3.726
17468WAT     H152646   0.094   3.520   3.781
17468WAT     H252647   0.046   3.478   3.630
17469WAT      O52648   9.232   9.669   6.741
17469WAT     H152649   9.283   9.754   6.727
17469WAT     H252650   9.275   9.596   6.689
17470WAT      O52651   7.881   3.516   6.548
17470WAT     H152652   7.904   3.418   6.544
17470WAT     H252653   7.876   3.552   6.455
17471WAT      O52654   0.970   1.507   1.939
17471WAT     H152655   0.937   1.432   1.881
17471WAT     H252656   0.931   1.593   1.907
17472WAT      O52657   3.982   4.804   3.119
17472WAT     H152658   3.921   4.819   3.042
17472WAT     H252659   3.928   4.785   3.201
17473WAT      O52660   6.821   7.349   4.826
17473WAT     H152661   6.828   7.431   4.883
17473WAT     H252662   6.724   7.330   4.807
17474WAT      O52663   5.708   5.981   8.158
17474WAT     H152664   5.789   6.036   8.177
17474WAT     H252665   5.634   6.010   8.218
17475WAT      O52666   2.136   4.062   2.320
17475WAT     H152667   2.216   4.106   2.280
17475WAT     H252668   2.145   4.061   2.420
17476WAT      O52669   1.582   8.083   6.741
17476WAT     H152670   1.533   8.164   6.709
17476WAT     H252671   1.526   8.034   6.807
17477WAT      O52672   7.552   3.905   7.750
17477WAT     H152673   7.536   3.995   7.709
17477WAT     H252674   7.630   3.862   7.705
17478WAT      O52675   5.920   9.777   7.445
17478WAT     H152676   6.014   9.796   7.416
17478WAT     H252677   5.864   9.757   7.365
17479WAT      O52678   0.802   2.420   8.754
17479WAT     H152679   0.781   2.508   8.712
17479WAT     H252680   0.772   2.420   8.850
17480WAT      O52681   0.973   3.468   7.365
17480WAT     H152682   0.967   3.369   7.373
17480WAT     H252683   1.069   3.496   7.367
17481WAT      O52684   5.677   1.848   2.243
17481WAT     H152685   5.659   1.945   2.233
17481WAT     H252686   5.742   1.819   2.172
17482WAT      O52687   6.470   1.115   9.679
17482WAT     H152688   6.492   1.128   9.583
17482WAT     H252689   6.532   1.169   9.736
17483WAT      O52690   9.785   3.771   4.913
17483WAT     H152691   9.884   3.766   4.922
17483WAT     H252692   9.745   3.680   4.928
17484WAT      O52693   9.891   2.429   8.650
17484WAT     H152694   9.796   2.435   8.681
17484WAT     H252695   9.950   2.407   8.728
17485WAT      O52696   1.772   7.722   6.191
17485WAT     H152697   1.836   7.664   6.241
17485WAT     H252698   1.692   7.741   6.248
17486WAT      O52699   9.443   5.254   6.712
17486WAT     H152700   9.347   5.239   6.731
17486WAT     H252701   9.492   5.271   6.798
17487WAT      O52702   5.238   0.101   3.032
17487WAT     H152703   5.255   0.060   2.942
17487WAT     H252704   5.139   0.109   3.046
17488WAT      O52705   1.701   4.624   0.445
17488WAT     H152706   1.759   4.705   0.442
17488WAT     H252707   1.677   4.596   0.352
17489WAT      O52708   3.325   4.639   9.715
17489WAT     H152709   3.324   4.739   9.707
17489WAT     H252710   3.240   4.609   9.758
17490WAT      O52711   3.023   4.134   0.261
17490WAT     H152712   3.036   4.034   0.264
17490WAT     H252713   3.031   4.166   0.167
17491WAT      O52714   8.592   5.354   8.315
17491WAT     H152715   8.639   5.420   8.257
17491WAT     H252716   8.563   5.399   8.400
17492WAT      O52717   5.128   3.529   7.390
17492WAT     H152718   5.095   3.511   7.483
17492WAT     H252719   5.154   3.443   7.347
17493WAT      O52720   1.257   4.858   3.419
17493WAT     H152721   1.162   4.887   3.414
17493WAT     H252722   1.262   4.758   3.427
17494WAT      O52723   1.555   0.531   3.856
17494WAT     H152724   1.525   0.518   3.951
17494WAT     H252725   1.647   0.571   3.856
17495WAT      O52726   4.268   3.986   1.706
17495WAT     H152727   4.196   4.043   1.666
17495WAT     H252728   4.317   4.037   1.776
17496WAT      O52729   1.382   7.807   9.343
17496WAT     H152730   1.293   7.839   9.311
17496WAT     H252731   1.433   7.768   9.266
17497WAT      O52732   4.597   4.748   6.639
17497WAT     H152733   4.575   4.763   6.735
17497WAT     H252734   4.692   4.776   6.621
17498WAT      O52735   8.047   4.382   8.018
17498WAT     H152736   8.018   4.478   8.016
17498WAT     H252737   8.046   4.345   7.925
17499WAT      O52738   1.372   2.370   4.127
17499WAT     H152739   1.368   2.466   4.097
17499WAT     H252740   1.377   2.367   4.226
17500WAT      O52741   9.401   0.613   9.619
17500WAT     H152742   9.446   0.528   9.589
17500WAT     H252743   9.452   0.651   9.696
17501WAT      O52744   2.211   4.279   2.691
17501WAT     H152745   2.230   4.343   2.766
17501WAT     H252746   2.254   4.312   2.607
17502WAT      O52747   4.648   8.797   7.739
17502WAT     H152748   4.743   8.772   7.717
17502WAT     H252749   4.648   8.866   7.812
17503WAT      O52750   4.084   0.838   8.332
17503WAT     H152751   4.009   0.826   8.397
17503WAT     H252752   4.155   0.769   8.349
17504WAT      O52753   0.915   0.999   2.372
17504WAT     H152754   0.913   1.071   2.303
17504WAT     H252755   1.010   0.982   2.399
17505WAT      O52756   9.734   1.365   7.694
17505WAT     H152757   9.713   1.355   7.791
17505WAT     H252758   9.762   1.459   7.674
17506WAT      O52759   6.214   3.468   6.010
17506WAT     H152760   6.311   3.463   5.986
17506WAT     H252761   6.173   3.377   6.008
17507WAT      O52762   6.584   0.670   6.264
17507WAT     H152763   6.490   0.702   6.253
17507WAT     H252764   6.646   0.748   6.265
17508WAT      O52765   9.383   5.111   5.146
17508WAT     H152766   9.458   5.129   5.210
17508WAT     H252767   9.297   5.138   5.188
17509WAT      O52768   0.227   2.751   0.198
17509WAT     H152769   0.193   2.702   0.118
17509WAT     H252770   0.321   2.723   0.217
17510WAT      O52771   5.828   3.344   5.804
17510WAT     H152772   5.759   3.363   5.735
17510WAT     H252773   5.858   3.430   5.846
17511WAT      O52774   6.984   5.599   5.568
17511WAT     H152775   7.083   5.598   5.556
17511WAT     H252776   6.955   5.691   5.594
17512WAT      O52777   7.723   1.540   1.229
17512WAT     H152778   7.638   1.591   1.217
17512WAT     H252779   7.778   1.584   1.301
17513WAT      O52780   8.579   9.203   4.231
17513WAT     H152781   8.606   9.256   4.151
17513WAT     H252782   8.654   9.141   4.256
17514WAT      O52783   7.892   9.033   7.970
17514WAT     H152784   7.900   9.113   8.029
17514WAT     H252785   7.982   8.995   7.952
17515WAT      O52786   0.101   5.261   3.784
17515WAT     H152787   0.186   5.291   3.826
17515WAT     H252788   0.079   5.320   3.707
17516WAT      O52789   5.173   0.831   3.644
17516WAT     H152790   5.212   0.923   3.650
17516WAT     H252791   5.151   0.810   3.549
17517WAT      O52792   2.491   0.541   8.973
17517WAT     H152793   2.574   0.583   9.010
17517WAT     H252794   2.418   0.610   8.967
17518WAT      O52795   6.723   8.739   1.431
17518WAT     H152796   6.789   8.768   1.361
17518WAT     H252797   6.769   8.679   1.497
17519WAT      O52798   1.753   4.155   8.232
17519WAT     H152799   1.824   4.089   8.208
17519WAT     H252800   1.663   4.111   8.224
17520WAT      O52801   5.033   2.199   0.896
17520WAT     H152802   4.971   2.229   0.823
17520WAT     H252803   4.987   2.208   0.984
17521WAT      O52804   7.553   8.951   4.992
17521WAT     H152805   7.463   8.934   5.032
17521WAT     H252806   7.575   9.048   4.997
17522WAT      O52807   7.064   1.740   7.835
17522WAT     H152808   7.105   1.654   7.866
17522WAT     H252809   7.129   1.815   7.851
17523WAT      O52810   8.550   5.033   9.723
17523WAT     H152811   8.579   4.980   9.803
17523WAT     H252812   8.619   5.103   9.703
17524WAT      O52813   0.443   4.035   2.369
17524WAT     H152814   0.515   4.092   2.331
17524WAT     H252815   0.393   4.086   2.440
17525WAT      O52816   9.378   8.224   7.491
17525WAT     H152817   9.383   8.146   7.428
17525WAT     H252818   9.382   8.309   7.438
17526WAT      O52819   3.704   2.941   5.632
17526WAT     H152820   3.658   2.917   5.546
17526WAT     H252821   3.675   3.032   5.662
17527WAT      O52822   0.728   4.583   9.805
17527WAT     H152823   0.790   4.530   9.747
17527WAT     H252824   0.756   4.576   9.900
17528WAT      O52825   9.254   6.778   1.613
17528WAT     H152826   9.177   6.741   1.561
17528WAT     H252827   9.258   6.734   1.703
17529WAT      O52828   1.127   0.359   1.663
17529WAT     H152829   1.103   0.394   1.573
17529WAT     H252830   1.187   0.424   1.709
17530WAT      O52831   6.214   1.812   3.701
17530WAT     H152832   6.199   1.786   3.606
17530WAT     H252833   6.190   1.909   3.713
17531WAT      O52834   7.289   5.191   3.212
17531WAT     H152835   7.311   5.120   3.278
17531WAT     H252836   7.341   5.273   3.233
17532WAT      O52837   2.685   3.046   3.847
17532WAT     H152838   2.784   3.052   3.832
17532WAT     H252839   2.667   3.026   3.943
17533WAT      O52840   8.064   4.402   0.443
17533WAT     H152841   8.093   4.340   0.370
17533WAT     H252842   8.144   4.449   0.481
17534WAT      O52843   5.790   3.322   7.334
17534WAT     H152844   5.827   3.335   7.242
17534WAT     H252845   5.741   3.404   7.362
17535WAT      O52846   4.526   5.844   1.565
17535WAT     H152847   4.529   5.755   1.611
17535WAT     H252848   4.497   5.831   1.470
17536WAT      O52849   9.038   9.590   6.014
17536WAT     H152850   9.100   9.565   6.089
17536WAT     H252851   8.952   9.540   6.024
17537WAT      O52852   4.624   2.034   1.304
17537WAT     H152853   4.642   1.983   1.219
17537WAT     H252854   4.568   2.114   1.283
17538WAT      O52855   5.252   1.343   3.645
17538WAT     H152856   5.175   1.400   3.617
17538WAT     H252857   5.337   1.386   3.616
17539WAT      O52858   9.012   6.317   5.018
17539WAT     H152859   8.980   6.412   5.020
17539WAT     H252860   9.076   6.301   5.093
17540WAT      O52861   3.128   0.671   2.462
17540WAT     H152862   3.142   0.592   2.522
17540WAT     H252863   3.162   0.754   2.507
17541WAT      O52864   1.661   7.739   2.448
17541WAT     H152865   1.679   7.778   2.538
17541WAT     H252866   1.563   7.720   2.438
17542WAT      O52867   2.317   5.496   7.069
17542WAT     H152868   2.231   5.454   7.100
17542WAT     H252869   2.301   5.592   7.046
17543WAT      O52870   1.900   9.708   2.987
17543WAT     H152871   1.931   9.620   3.023
17543WAT     H252872   1.848   9.693   2.902
17544WAT      O52873   1.143   2.750   9.285
17544WAT     H152874   1.192   2.663   9.282
17544WAT     H252875   1.207   2.825   9.271
17545WAT      O52876   7.485   6.714   8.860
17545WAT     H152877   7.387   6.723   8.875
17545WAT     H252878   7.502   6.679   8.768
17546WAT      O52879   9.213   5.951   3.900
17546WAT     H152880   9.203   5.869   3.843
17546WAT     H252881   9.187   6.032   3.848
17547WAT      O52882   5.420   3.536   1.503
17547WAT     H152883   5.332   3.559   1.543
17547WAT     H252884   5.406   3.487   1.417
17548WAT      O52885   9.512   4.440   5.088
17548WAT     H152886   9.471   4.370   5.030
17548WAT     H252887   9.605   4.413   5.113
17549WAT      O52888   0.484   2.193   1.658
17549WAT     H152889   0.426   2.255   1.606
17549WAT     H252890   0.468   2.098   1.628
17550WAT      O52891   8.776   8.316   9.099
17550WAT     H152892   8.829   8.303   9.183
17550WAT     H252893   8.693   8.260   9.102
17551WAT      O52894   2.581   7.669   9.891
17551WAT     H152895   2.616   7.634   9.804
17551WAT     H252896   2.526   7.599   9.936
17552WAT      O52897   7.620   3.277   1.210
17552WAT     H152898   7.595   3.315   1.300
17552WAT     H252899   7.580   3.186   1.200
17553WAT      O52900   1.990   0.291   1.674
17553WAT     H152901   2.011   0.346   1.755
17553WAT     H252902   1.935   0.212   1.701
17554WAT      O52903   8.317   5.682   1.985
17554WAT     H152904   8.336   5.725   2.073
17554WAT     H252905   8.402   5.675   1.932
17555WAT      O52906   5.771   2.640   5.957
17555WAT     H152907   5.751   2.731   5.994
17555WAT     H252908   5.740   2.570   6.022
17556WAT      O52909   2.782   2.864   6.260
17556WAT     H152910   2.751   2.844   6.167
17556WAT     H252911   2.865   2.919   6.256
17557WAT      O52912   0.516   9.634   0.636
17557WAT     H152913   0.549   9.558   0.580
17557WAT     H252914   0.422   9.657   0.611
17558WAT      O52915   8.924   3.962   5.220
17558WAT     H152916   8.897   4.055   5.243
17558WAT     H252917   8.871   3.931   5.141
17559WAT      O52918   2.284   5.322   4.274
17559WAT     H152919   2.208   5.385   4.292
17559WAT     H252920   2.258   5.260   4.200
17560WAT      O52921   6.561   4.969   6.125
17560WAT     H152922   6.624   5.045   6.142
17560WAT     H252923   6.500   4.959   6.203
17561WAT      O52924   0.908   3.762   3.621
17561WAT     H152925   0.812   3.734   3.626
17561WAT     H252926   0.965   3.682   3.600
17562WAT      O52927   2.065   0.131   4.683
17562WAT     H152928   1.966   0.131   4.668
17562WAT     H252929   2.108   0.198   4.624
17563WAT      O52930   0.595   4.172   0.210
17563WAT     H152931   0.667   4.146   0.274
17563WAT     H252932   0.542   4.247   0.249
17564WAT      O52933   4.121   3.951   7.963
17564WAT     H152934   4.207   3.919   7.924
17564WAT     H252935   4.048   3.943   7.895
17565WAT      O52936   1.875   0.338   2.589
17565WAT     H152937   1.825   0.264   2.633
17565WAT     H252938   1.949   0.369   2.649
17566WAT      O52939   4.750   3.687   5.370
17566WAT     H152940   4.792   3.656   5.455
17566WAT     H252941   4.683   3.758   5.390
17567WAT      O52942   2.235   2.336   4.626
17567WAT     H152943   2.160   2.400   4.615
17567WAT     H252944   2.221   2.256   4.567
17568WAT      O52945   9.542   0.058   1.731
17568WAT     H152946   9.588  -0.017   1.779
17568WAT     H252947   9.539   0.139   1.789
17569WAT      O52948   7.759   3.954   0.787
17569WAT     H152949   7.737   4.050   0.800
17569WAT     H252950   7.843   3.932   0.836
17570WAT      O52951   9.506   3.163   7.541
17570WAT     H152952   9.461   3.096   7.482
17570WAT     H252953   9.554   3.115   7.615
17571WAT      O52954   9.345   5.428   0.598
17571WAT     H152955   9.279   5.396   0.530
17571WAT     H252956   9.397   5.505   0.560
17572WAT      O52957   8.811   8.244   3.830
17572WAT     H152958   8.817   8.239   3.930
17572WAT     H252959   8.859   8.167   3.790
17573WAT      O52960   9.835   3.192   7.636
17573WAT     H152961   9.791   3.278   7.658
17573WAT     H252962   9.775   3.116   7.660
17574WAT      O52963   4.152   7.128   0.548
17574WAT     H152964   4.172   7.142   0.451
17574WAT     H252965   4.070   7.073   0.557
17575WAT      O52966   2.125   4.283   6.281
17575WAT     H152967   2.041   4.250   6.238
17575WAT     H252968   2.106   4.367   6.331
17576WAT      O52969   1.659   5.844   8.011
17576WAT     H152970   1.585   5.863   8.075
17576WAT     H252971   1.674   5.745   8.007
17577WAT      O52972   5.032   1.267   5.987
17577WAT     H152973   5.000   1.208   6.061
17577WAT     H252974   4.965   1.267   5.913
17578WAT      O52975   2.333   6.322   1.997
17578WAT     H152976   2.236   6.331   2.020
17578WAT     H252977   2.345   6.251   1.929
17579WAT      O52978   7.240   9.064   3.245
17579WAT     H152979   7.183   8.993   3.205
17579WAT     H252980   7.272   9.126   3.173
17580WAT      O52981   5.629   9.047   6.108
17580WAT     H152982   5.670   9.002   6.028
17580WAT     H252983   5.698   9.055   6.180
17581WAT      O52984   2.802   5.486   9.029
17581WAT     H152985   2.763   5.446   8.946
17581WAT     H252986   2.782   5.584   9.032
17582WAT      O52987   3.492   7.608   5.878
17582WAT     H152988   3.558   7.644   5.812
17582WAT     H252989   3.541   7.575   5.959
17583WAT      O52990   4.741   5.411   5.185
17583WAT     H152991   4.646   5.382   5.183
17583WAT     H252992   4.780   5.392   5.275
17584WAT      O52993   1.652   0.435   9.664
17584WAT     H152994   1.648   0.527   9.625
17584WAT     H252995   1.616   0.369   9.598
17585WAT      O52996   8.556   5.116   3.179
17585WAT     H152997   8.464   5.119   3.141
17585WAT     H252998   8.622   5.135   3.106
17586WAT      O52999   9.875   2.183   7.196
17586WAT     H153000   9.956   2.141   7.154
17586WAT     H253001   9.862   2.274   7.158
17587WAT      O53002   2.633   6.497   9.588
17587WAT     H153003   2.676   6.544   9.666
17587WAT     H253004   2.679   6.410   9.573
17588WAT      O53005   5.428   1.568   9.353
17588WAT     H153006   5.521   1.600   9.333
17588WAT     H253007   5.362   1.633   9.314
17589WAT      O53008   4.326   7.214   1.248
17589WAT     H153009   4.409   7.253   1.208
17589WAT     H253010   4.349   7.128   1.295
17590WAT      O53011   2.577   3.560   3.766
17590WAT     H153012   2.600   3.465   3.786
17590WAT     H253013   2.660   3.610   3.741
17591WAT      O53014   6.263   5.677   1.426
17591WAT     H153015   6.356   5.682   1.463
17591WAT     H253016   6.198   5.702   1.497
17592WAT      O53017   7.459   4.453   6.722
17592WAT     H153018   7.492   4.506   6.800
17592WAT     H253019   7.438   4.360   6.752
17593WAT      O53020   8.822   0.870   8.662
17593WAT     H153021   8.913   0.837   8.687
17593WAT     H253022   8.828   0.921   8.576
17594WAT      O53023   1.149   5.927   4.105
17594WAT     H153024   1.070   5.949   4.048
17594WAT     H253025   1.209   6.007   4.112
17595WAT      O53026   8.770   9.698   9.315
17595WAT     H153027   8.695   9.666   9.373
17595WAT     H253028   8.848   9.723   9.373
17596WAT      O53029   6.352   1.848   2.173
17596WAT     H153030   6.301   1.927   2.207
17596WAT     H253031   6.410   1.876   2.096
17597WAT      O53032   7.623   3.300   1.951
17597WAT     H153033   7.720   3.312   1.928
17597WAT     H253034   7.596   3.369   2.019
17598WAT      O53035   2.306   6.995   5.592
17598WAT     H153036   2.334   6.921   5.654
17598WAT     H253037   2.381   7.016   5.530
17599WAT      O53038   8.299   3.332   9.674
17599WAT     H153039   8.200   3.339   9.683
17599WAT     H253040   8.341   3.421   9.694
17600WAT      O53041   3.205   1.642   5.341
17600WAT     H153042   3.121   1.696   5.350
17600WAT     H253043   3.187   1.549   5.373
17601WAT      O53044   3.652   0.465   4.079
17601WAT     H153045   3.638   0.561   4.102
17601WAT     H253046   3.666   0.456   3.981
17602WAT      O53047   8.568   8.758   1.742
17602WAT     H153048   8.522   8.678   1.781
17602WAT     H253049   8.557   8.836   1.804
17603WAT      O53050   6.239   6.550   3.363
17603WAT     H153051   6.226   6.599   3.449
17603WAT     H253052   6.214   6.609   3.287
17604WAT      O53053   7.772   0.193   0.171
17604WAT     H153054   7.818   0.114   0.211
17604WAT     H253055   7.764   0.181   0.073
17605WAT      O53056   3.689   7.046   7.786
17605WAT     H153057   3.767   7.006   7.833
17605WAT     H253058   3.604   7.016   7.829
17606WAT      O53059   9.067   5.289   4.467
17606WAT     H153060   9.014   5.277   4.383
17606WAT     H253061   9.055   5.382   4.501
17607WAT      O53062   1.362   4.467   3.216
17607WAT     H153063   1.286   4.502   3.270
17607WAT     H253064   1.349   4.490   3.120
17608WAT      O53065   7.512   8.358   1.304
17608WAT     H153066   7.422   8.314   1.312
17608WAT     H253067   7.505   8.437   1.243
17609WAT      O53068   0.603   7.459   6.228
17609WAT     H153069   0.581   7.473   6.325
17609WAT     H253070   0.526   7.487   6.172
17610WAT      O53071   7.806   5.198   9.080
17610WAT     H153072   7.791   5.277   9.140
17610WAT     H253073   7.811   5.115   9.136
17611WAT      O53074   0.708   8.826   7.850
17611WAT     H153075   0.696   8.887   7.772
17611WAT     H253076   0.637   8.755   7.847
17612WAT      O53077   2.124   9.208   5.286
17612WAT     H153078   2.097   9.304   5.277
17612WAT     H253079   2.134   9.168   5.195
17613WAT      O53080   3.696   4.344   5.341
17613WAT     H153081   3.613   4.385   5.378
17613WAT     H253082   3.766   4.339   5.413
17614WAT      O53083   2.218   1.850   1.901
17614WAT     H153084   2.260   1.915   1.964
17614WAT     H253085   2.157   1.899   1.839
17615WAT      O53086   9.755   7.329   9.760
17615WAT     H153087   9.703   7.396   9.814
17615WAT     H253088   9.716   7.323   9.668
17616WAT      O53089   2.997   5.549   6.911
17616WAT     H153090   2.939   5.473   6.880
17616WAT     H253091   2.957   5.636   6.882
17617WAT      O53092   1.136   7.224   1.280
17617WAT     H153093   1.113   7.225   1.183
17617WAT     H253094   1.233   7.241   1.292
17618WAT      O53095   4.870   5.038   1.400
17618WAT     H153096   4.933   5.115   1.408
17618WAT     H253097   4.776   5.072   1.396
17619WAT      O53098   1.382   2.195   7.313
17619WAT     H153099   1.343   2.280   7.278
17619WAT     H253100   1.377   2.194   7.413
17620WAT      O53101   5.423   8.129   0.603
17620WAT     H153102   5.373   8.119   0.689
17620WAT     H253103   5.514   8.090   0.613
17621WAT      O53104   8.677   1.743   9.711
17621WAT     H153105   8.694   1.760   9.614
17621WAT     H253106   8.686   1.645   9.730
17622WAT      O53107   3.136   0.489   9.146
17622WAT     H153108   3.173   0.566   9.094
17622WAT     H253109   3.210   0.427   9.171
17623WAT      O53110   1.131   3.328   9.767
17623WAT     H153111   1.034   3.353   9.773
17623WAT     H253112   1.180   3.364   9.846
17624WAT      O53113   4.579   1.219   3.306
17624WAT     H153114   4.645   1.247   3.237
17624WAT     H253115   4.519   1.148   3.268
17625WAT      O53116   0.422   2.324   8.075
17625WAT     H153117   0.504   2.269   8.060
17625WAT     H253118   0.426   2.406   8.019
17626WAT      O53119   5.131   4.233   3.606
17626WAT     H153120   5.046   4.249   3.556
17626WAT     H253121   5.204   4.209   3.542
17627WAT      O53122   3.665   1.553   9.485
17627WAT     H153123   3.704   1.541   9.393
17627WAT     H253124   3.600   1.478   9.503
17628WAT      O53125   0.879   6.264   8.088
17628WAT     H153126   0.829   6.276   8.174
17628WAT     H253127   0.842   6.327   8.020
17629WAT      O53128   7.333   6.910   8.166
17629WAT     H153129   7.388   6.981   8.122
17629WAT     H253130   7.246   6.948   8.196
17630WAT      O53131   3.514   4.069   6.730
17630WAT     H153132   3.550   3.992   6.783
17630WAT     H253133   3.533   4.154   6.779
17631WAT      O53134   0.800   3.990   6.094
17631WAT     H153135   0.701   3.996   6.077
17631WAT     H253136   0.822   3.900   6.131
17632WAT      O53137   8.229   1.152   2.778
17632WAT     H153138   8.173   1.069   2.778
17632WAT     H253139   8.232   1.190   2.686
17633WAT      O53140   4.298   7.679   0.001
17633WAT     H153141   4.272   7.740   0.076
17633WAT     H253142   4.281   7.584   0.028
17634WAT      O53143   9.823   2.802   0.654
17634WAT     H153144   9.909   2.832   0.614
17634WAT     H253145   9.817   2.702   0.648
17635WAT      O53146   5.081   3.422   8.188
17635WAT     H153147   5.113   3.517   8.196
17635WAT     H253148   5.130   3.364   8.253
17636WAT      O53149   2.298   1.099   0.644
17636WAT     H153150   2.238   1.122   0.568
17636WAT     H253151   2.299   1.175   0.710
17637WAT      O53152   4.685   2.275   9.499
17637WAT     H153153   4.718   2.313   9.413
17637WAT     H253154   4.594   2.313   9.519
17638WAT      O53155   5.843   2.332   3.455
17638WAT     H153156   5.806   2.306   3.544
17638WAT     H253157   5.927   2.384   3.467
17639WAT      O53158   6.700   7.630   9.275
17639WAT     H153159   6.732   7.654   9.367
17639WAT     H253160   6.761   7.669   9.207
17640WAT      O53161   2.751   2.672   3.749
17640WAT     H153162   2.750   2.619   3.834
17640WAT     H253163   2.841   2.663   3.705
17641WAT      O53164   2.817   6.169   1.769
17641WAT     H153165   2.717   6.172   1.759
17641WAT     H253166   2.859   6.235   1.706
17642WAT      O53167   5.478   2.687   5.343
17642WAT     H153168   5.394   2.698   5.396
17642WAT     H253169   5.516   2.777   5.321
17643WAT      O53170   8.230   1.030   2.272
17643WAT     H153171   8.165   0.992   2.339
17643WAT     H253172   8.214   0.987   2.183
17644WAT      O53173   7.320   0.004   3.906
17644WAT     H153174   7.302   0.066   3.830
17644WAT     H253175   7.403  -0.048   3.888
17645WAT      O53176   4.179   8.694   9.066
17645WAT     H153177   4.192   8.602   9.030
17645WAT     H253178   4.160   8.757   8.991
17646WAT      O53179   4.196   5.046   5.234
17646WAT     H153180   4.238   4.956   5.248
17646WAT     H253181   4.231   5.085   5.149
17647WAT      O53182   0.772   2.549   2.260
17647WAT     H153183   0.841   2.543   2.333
17647WAT     H253184   0.818   2.552   2.171
17648WAT      O53185   9.344   2.882   6.451
17648WAT     H153186   9.382   2.792   6.471
17648WAT     H253187   9.323   2.888   6.353
17649WAT      O53188   4.794   8.093   0.042
17649WAT     H153189   4.871   8.029   0.035
17649WAT     H253190   4.824   8.176   0.090
17650WAT      O53191   9.017   8.556   4.812
17650WAT     H153192   8.995   8.459   4.809
17650WAT     H253193   8.951   8.608   4.759
17651WAT      O53194   0.732   8.016   4.556
17651WAT     H153195   0.811   8.077   4.564
17651WAT     H253196   0.763   7.924   4.531
17652WAT      O53197   5.760   7.736   5.541
17652WAT     H153198   5.786   7.654   5.593
17652WAT     H253199   5.665   7.759   5.561
17653WAT      O53200   1.971   1.701   8.870
17653WAT     H153201   1.876   1.675   8.885
17653WAT     H253202   1.993   1.692   8.773
17654WAT      O53203   2.193   3.700   4.678
17654WAT     H153204   2.129   3.668   4.609
17654WAT     H253205   2.181   3.647   4.762
17655WAT      O53206   3.847   7.287   1.592
17655WAT     H153207   3.781   7.224   1.633
17655WAT     H253208   3.831   7.379   1.626
17656WAT      O53209   1.863   7.846   9.675
17656WAT     H153210   1.841   7.874   9.769
17656WAT     H253211   1.795   7.780   9.644
17657WAT      O53212   7.147   1.585   2.900
17657WAT     H153213   7.079   1.645   2.942
17657WAT     H253214   7.234   1.633   2.894
17658WAT      O53215   6.833   0.015   0.846
17658WAT     H153216   6.900  -0.017   0.780
17658WAT     H253217   6.743  -0.023   0.824
17659WAT      O53218   6.158   6.603   3.875
17659WAT     H153219   6.103   6.521   3.896
17659WAT     H253220   6.253   6.586   3.900
17660WAT      O53221   9.281   6.543   5.911
17660WAT     H153222   9.234   6.491   5.983
17660WAT     H253223   9.348   6.604   5.952
17661WAT      O53224   3.788   8.907   5.068
17661WAT     H153225   3.791   8.970   5.145
17661WAT     H253226   3.881   8.878   5.045
17662WAT      O53227   1.860   8.669   8.973
17662WAT     H153228   1.814   8.590   8.933
17662WAT     H253229   1.862   8.744   8.907
17663WAT      O53230   0.681   0.121   6.697
17663WAT     H153231   0.603   0.061   6.716
17663WAT     H253232   0.655   0.216   6.714
17664WAT      O53233   3.093   5.382   8.704
17664WAT     H153234   3.107   5.475   8.739
17664WAT     H253235   3.141   5.318   8.764
17665WAT      O53236   1.897   9.447   1.650
17665WAT     H153237   1.969   9.443   1.720
17665WAT     H253238   1.820   9.391   1.678
17666WAT      O53239   3.090   5.169   6.452
17666WAT     H153240   3.124   5.093   6.506
17666WAT     H253241   3.151   5.248   6.463
17667WAT      O53242   7.742   8.259   3.193
17667WAT     H153243   7.745   8.302   3.102
17667WAT     H253244   7.741   8.160   3.183
17668WAT      O53245   4.155   1.954   8.729
17668WAT     H153246   4.220   1.890   8.688
17668WAT     H253247   4.096   1.992   8.657
17669WAT      O53248   7.501   3.269   8.958
17669WAT     H153249   7.558   3.351   8.956
17669WAT     H253250   7.539   3.200   8.897
17670WAT      O53251   8.327   8.527   6.710
17670WAT     H153252   8.389   8.576   6.771
17670WAT     H253253   8.339   8.561   6.616
17671WAT      O53254   9.463   9.644   5.662
17671WAT     H153255   9.441   9.598   5.576
17671WAT     H253256   9.416   9.598   5.738
17672WAT      O53257   7.399   5.557   7.959
17672WAT     H153258   7.350   5.494   7.899
17672WAT     H253259   7.334   5.601   8.021
17673WAT      O53260   4.957   5.777   6.839
17673WAT     H153261   4.879   5.730   6.881
17673WAT     H253262   5.041   5.754   6.888
17674WAT      O53263   8.776   5.178   3.003
17674WAT     H153264   8.754   5.274   2.987
17674WAT     H253265   8.850   5.171   3.069
17675WAT      O53266   4.892   3.351   0.773
17675WAT     H153267   4.905   3.353   0.872
17675WAT     H253268   4.935   3.432   0.733
17676WAT      O53269   4.955   9.673   7.077
17676WAT     H153270   4.905   9.639   7.156
17676WAT     H253271   4.892   9.721   7.016
17677WAT      O53272   9.058   3.435   4.995
17677WAT     H153273   9.109   3.521   5.001
17677WAT     H253274   9.077   3.390   4.908
17678WAT      O53275   0.653   0.936   8.518
17678WAT     H153276   0.647   1.027   8.557
17678WAT     H253277   0.742   0.896   8.539
17679WAT      O53278   2.484   7.276   7.863
17679WAT     H153279   2.494   7.326   7.777
17679WAT     H253280   2.564   7.217   7.876
17680WAT      O53281   4.027   8.315   4.017
17680WAT     H153282   3.976   8.390   3.975
17680WAT     H253283   3.981   8.286   4.101
17681WAT      O53284   6.911   3.943   6.837
17681WAT     H153285   6.943   3.989   6.920
17681WAT     H253286   6.923   3.844   6.847
17682WAT      O53287   7.569   5.616   3.890
17682WAT     H153288   7.617   5.584   3.808
17682WAT     H253289   7.611   5.701   3.922
17683WAT      O53290   6.794   5.992   1.981
17683WAT     H153291   6.773   5.978   2.077
17683WAT     H253292   6.867   6.060   1.973
17684WAT      O53293   1.797   7.640   7.710
17684WAT     H153294   1.880   7.596   7.676
17684WAT     H253295   1.822   7.711   7.776
17685WAT      O53296   6.345   9.506   5.560
17685WAT     H153297   6.391   9.418   5.554
17685WAT     H253298   6.262   9.497   5.615
17686WAT      O53299   5.041   1.497   9.288
17686WAT     H153300   5.032   1.411   9.339
17686WAT     H253301   4.957   1.550   9.298
17687WAT      O53302   4.400   0.709   4.385
17687WAT     H153303   4.390   0.794   4.334
17687WAT     H253304   4.495   0.698   4.413
17688WAT      O53305   9.243   2.732   4.064
17688WAT     H153306   9.311   2.799   4.036
17688WAT     H253307   9.174   2.722   3.991
17689WAT      O53308   4.819   2.462   2.416
17689WAT     H153309   4.885   2.516   2.364
17689WAT     H253310   4.867   2.399   2.476
17690WAT      O53311   0.276   8.372   2.435
17690WAT     H153312   0.371   8.398   2.414
17690WAT     H253313   0.215   8.413   2.368
17691WAT      O53314   7.051   7.014   2.218
17691WAT     H153315   7.061   7.050   2.126
17691WAT     H253316   7.136   7.028   2.269
17692WAT      O53317   5.239   3.119   7.983
17692WAT     H153318   5.236   3.219   7.978
17692WAT     H253319   5.286   3.092   8.067
17693WAT      O53320   9.632   2.907   7.244
17693WAT     H153321   9.708   2.944   7.298
17693WAT     H253322   9.546   2.938   7.283
17694WAT      O53323   0.682   5.644   3.977
17694WAT     H153324   0.648   5.590   3.900
17694WAT     H253325   0.607   5.701   4.012
17695WAT      O53326   1.782   4.464   7.082
17695WAT     H153327   1.696   4.513   7.085
17695WAT     H253328   1.821   4.468   6.990
17696WAT      O53329   8.112   1.123   6.446
17696WAT     H153330   8.172   1.192   6.405
17696WAT     H253331   8.017   1.142   6.420
17697WAT      O53332   5.445   5.734   5.366
17697WAT     H153333   5.388   5.717   5.286
17697WAT     H253334   5.518   5.665   5.371
17698WAT      O53335   9.770   1.106   7.602
17698WAT     H153336   9.854   1.094   7.549
17698WAT     H253337   9.777   1.189   7.657
17699WAT      O53338   2.870   8.798   6.396
17699WAT     H153339   2.957   8.817   6.350
17699WAT     H253340   2.815   8.881   6.397
17700WAT      O53341   1.075   5.149   4.185
17700WAT     H153342   1.131   5.197   4.118
17700WAT     H253343   1.014   5.214   4.231
17701WAT      O53344   2.054   5.327   6.228
17701WAT     H153345   2.110   5.291   6.302
17701WAT     H253346   2.038   5.255   6.161
17702WAT      O53347   8.376   8.586   4.950
17702WAT     H153348   8.460   8.545   4.986
17702WAT     H253349   8.362   8.675   4.993
17703WAT      O53350   9.028   1.427   9.044
17703WAT     H153351   8.931   1.408   9.060
17703WAT     H253352   9.045   1.435   8.946
17704WAT      O53353   0.154   3.094   4.740
17704WAT     H153354   0.245   3.099   4.698
17704WAT     H253355   0.091   3.049   4.677
17705WAT      O53356   5.691   4.037   6.799
17705WAT     H153357   5.625   4.108   6.775
17705WAT     H253358   5.761   4.075   6.860
17706WAT      O53359   0.429   3.708   7.862
17706WAT     H153360   0.409   3.738   7.769
17706WAT     H253361   0.511   3.650   7.862
17707WAT      O53362   4.072   5.969   8.194
17707WAT     H153363   4.103   6.001   8.284
17707WAT     H253364   3.978   5.999   8.179
17708WAT      O53365   0.384   5.626   3.651
17708WAT     H153366   0.318   5.628   3.726
17708WAT     H253367   0.413   5.719   3.630
17709WAT      O53368   7.293   6.372   5.915
17709WAT     H153369   7.303   6.438   5.840
17709WAT     H253370   7.350   6.399   5.992
17710WAT      O53371   6.446   6.388   0.610
17710WAT     H153372   6.440   6.350   0.518
17710WAT     H253373   6.485   6.480   0.606
17711WAT      O53374   2.902   3.192   9.223
17711WAT     H153375   2.831   3.158   9.162
17711WAT     H253376   2.872   3.183   9.318
17712WAT      O53377   6.935   0.666   4.766
17712WAT     H153378   6.911   0.747   4.820
17712WAT     H253379   6.918   0.685   4.669
17713WAT      O53380   5.298   0.814   8.630
17713WAT     H153381   5.335   0.726   8.660
17713WAT     H253382   5.199   0.814   8.641
17714WAT      O53383   4.283   7.411   6.203
17714WAT     H153384   4.221   7.486   6.228
17714WAT     H253385   4.243   7.358   6.128
17715WAT      O53386   5.015   9.365   6.774
17715WAT     H153387   5.039   9.415   6.857
17715WAT     H253388   4.981   9.428   6.704
17716WAT      O53389   4.683   2.837   7.394
17716WAT     H153390   4.593   2.817   7.354
17716WAT     H253391   4.680   2.818   7.492
17717WAT      O53392   4.572   7.839   4.734
17717WAT     H153393   4.623   7.753   4.741
17717WAT     H253394   4.567   7.881   4.825
17718WAT      O53395   6.296   4.146   8.959
17718WAT     H153396   6.382   4.114   8.998
17718WAT     H253397   6.270   4.088   8.881
17719WAT      O53398   5.857   5.980   2.255
17719WAT     H153399   5.885   5.914   2.185
17719WAT     H253400   5.921   5.976   2.332
17720WAT      O53401   0.238   8.183   8.373
17720WAT     H153402   0.270   8.265   8.326
17720WAT     H253403   0.243   8.104   8.311
17721WAT      O53404   1.534   8.707   3.426
17721WAT     H153405   1.477   8.788   3.441
17721WAT     H253406   1.521   8.643   3.502
17722WAT      O53407   7.494   4.529   5.356
17722WAT     H153408   7.480   4.624   5.384
17722WAT     H253409   7.492   4.523   5.256
17723WAT      O53410   4.713   5.983   6.730
17723WAT     H153411   4.773   5.932   6.793
17723WAT     H253412   4.672   5.920   6.665
17724WAT      O53413   0.486   2.763   0.158
17724WAT     H153414   0.466   2.749   0.061
17724WAT     H253415   0.585   2.767   0.172
17725WAT      O53416   2.867   2.050   8.016
17725WAT     H153417   2.848   2.093   8.104
17725WAT     H253418   2.924   1.969   8.031
17726WAT      O53419   5.250   1.709   8.692
17726WAT     H153420   5.189   1.706   8.771
17726WAT     H253421   5.301   1.623   8.686
17727WAT      O53422   0.857   1.549   3.428
17727WAT     H153423   0.785   1.616   3.409
17727WAT     H253424   0.843   1.468   3.371
17728WAT      O53425   5.671   3.363   1.445
17728WAT     H153426   5.707   3.407   1.527
17728WAT     H253427   5.571   3.353   1.453
17729WAT      O53428   7.040   5.277   5.204
17729WAT     H153429   7.110   5.331   5.157
17729WAT     H253430   7.023   5.318   5.294
17730WAT      O53431   7.685   9.767   9.014
17730WAT     H153432   7.646   9.853   8.981
17730WAT     H253433   7.696   9.704   8.937
17731WAT      O53434   6.014   0.157   4.528
17731WAT     H153435   6.041   0.222   4.599
17731WAT     H253436   5.950   0.091   4.567
17732WAT      O53437   3.008   3.110   0.749
17732WAT     H153438   2.973   3.052   0.676
17732WAT     H253439   2.939   3.177   0.774
17733WAT      O53440   1.499   7.059   3.279
17733WAT     H153441   1.533   7.046   3.372
17733WAT     H253442   1.483   7.156   3.262
17734WAT      O53443   5.416   3.767   0.920
17734WAT     H153444   5.476   3.732   0.992
17734WAT     H253445   5.396   3.693   0.855
17735WAT      O53446   0.230   8.732   3.533
17735WAT     H153447   0.312   8.678   3.515
17735WAT     H253448   0.152   8.671   3.548
17736WAT      O53449   3.588   7.377   8.837
17736WAT     H153450   3.561   7.288   8.875
17736WAT     H253451   3.539   7.450   8.885
17737WAT      O53452   8.978   5.010   2.343
17737WAT     H153453   8.964   4.912   2.350
17737WAT     H253454   9.058   5.029   2.287
17738WAT      O53455   2.365   7.535   1.838
17738WAT     H153456   2.307   7.524   1.919
17738WAT     H253457   2.315   7.503   1.757
17739WAT      O53458   1.005   8.005   1.608
17739WAT     H153459   1.088   8.044   1.569
17739WAT     H253460   0.926   8.058   1.579
17740WAT      O53461   0.028   4.849   4.658
17740WAT     H153462   0.085   4.931   4.649
17740WAT     H253463  -0.066   4.876   4.680
17741WAT      O53464   4.523   2.188   4.224
17741WAT     H153465   4.553   2.281   4.200
17741WAT     H253466   4.564   2.122   4.162
17742WAT      O53467   4.503   9.052   8.475
17742WAT     H153468   4.524   8.954   8.467
17742WAT     H253469   4.437   9.078   8.404
17743WAT      O53470   2.526   0.819   8.387
17743WAT     H153471   2.444   0.808   8.443
17743WAT     H253472   2.560   0.912   8.395
17744WAT      O53473   7.825   3.751   9.777
17744WAT     H153474   7.805   3.730   9.682
17744WAT     H253475   7.906   3.700   9.806
17745WAT      O53476   0.072   8.818   3.044
17745WAT     H153477   0.020   8.786   2.965
17745WAT     H253478   0.022   8.795   3.128
17746WAT      O53479   7.402   1.248   3.673
17746WAT     H153480   7.316   1.211   3.707
17746WAT     H253481   7.408   1.233   3.574
17747WAT      O53482   6.605   9.769   0.153
17747WAT     H153483   6.675   9.711   0.113
17747WAT     H253484   6.516   9.724   0.145
17748WAT      O53485   7.808   7.583   1.655
17748WAT     H153486   7.777   7.510   1.715
17748WAT     H253487   7.825   7.547   1.564
17749WAT      O53488   7.827   5.278   0.300
17749WAT     H153489   7.899   5.244   0.361
17749WAT     H253490   7.778   5.352   0.345
17750WAT      O53491   2.568   6.295   1.358
17750WAT     H153492   2.500   6.359   1.323
17750WAT     H253493   2.526   6.204   1.366
17751WAT      O53494   1.089   7.225   3.193
17751WAT     H153495   1.142   7.193   3.114
17751WAT     H253496   1.003   7.174   3.198
17752WAT      O53497   7.776   8.488   4.861
17752WAT     H153498   7.875   8.498   4.870
17752WAT     H253499   7.731   8.533   4.939
17753WAT      O53500   0.201   7.655   3.055
17753WAT     H153501   0.294   7.642   3.021
17753WAT     H253502   0.161   7.566   3.077
17754WAT      O53503   3.329   8.725   6.629
17754WAT     H153504   3.414   8.761   6.667
17754WAT     H253505   3.283   8.668   6.697
17755WAT      O53506   8.823   8.919   1.136
17755WAT     H153507   8.917   8.898   1.109
17755WAT     H253508   8.771   8.834   1.143
17756WAT      O53509   1.033   3.102   5.512
17756WAT     H153510   1.076   3.015   5.488
17756WAT     H253511   0.943   3.108   5.469
17757WAT      O53512   4.220   3.747   2.501
17757WAT     H153513   4.232   3.656   2.460
17757WAT     H253514   4.196   3.813   2.431
17758WAT      O53515   4.781   2.567   6.025
17758WAT     H153516   4.741   2.659   6.022
17758WAT     H253517   4.879   2.573   6.043
17759WAT      O53518   7.452   6.985   2.964
17759WAT     H153519   7.470   6.940   2.876
17759WAT     H253520   7.382   7.056   2.951
17760WAT      O53521   6.282   2.187   7.584
17760WAT     H153522   6.304   2.097   7.624
17760WAT     H253523   6.290   2.182   7.485
17761WAT      O53524   5.593   1.840   6.530
17761WAT     H153525   5.633   1.870   6.443
17761WAT     H253526   5.609   1.742   6.543
17762WAT      O53527   5.577   8.483   8.043
17762WAT     H153528   5.551   8.416   7.974
17762WAT     H253529   5.674   8.472   8.066
17763WAT      O53530   7.832   1.904   7.364
17763WAT     H153531   7.831   1.940   7.271
17763WAT     H253532   7.861   1.809   7.363
17764WAT      O53533   3.227   6.753   0.236
17764WAT     H153534   3.263   6.770   0.327
17764WAT     H253535   3.276   6.676   0.194
17765WAT      O53536   6.152   1.881   5.676
17765WAT     H153537   6.176   1.932   5.758
17765WAT     H253538   6.233   1.834   5.640
17766WAT      O53539   5.587   9.135   1.594
17766WAT     H153540   5.505   9.146   1.650
17766WAT     H253541   5.648   9.068   1.637
17767WAT      O53542   8.282   1.148   3.759
17767WAT     H153543   8.210   1.082   3.782
17767WAT     H253544   8.241   1.229   3.718
17768WAT      O53545   8.100   5.421   5.560
17768WAT     H153546   8.055   5.350   5.614
17768WAT     H253547   8.175   5.381   5.508
17769WAT      O53548   5.246   5.328   8.268
17769WAT     H153549   5.289   5.238   8.261
17769WAT     H253550   5.181   5.329   8.343
17770WAT      O53551   0.473   0.581   6.382
17770WAT     H153552   0.573   0.579   6.379
17770WAT     H253553   0.439   0.487   6.381
17771WAT      O53554   2.579   5.502   6.550
17771WAT     H153555   2.545   5.427   6.606
17771WAT     H253556   2.534   5.501   6.461
17772WAT      O53557   9.096   5.936   9.480
17772WAT     H153558   9.003   5.928   9.444
17772WAT     H253559   9.115   5.858   9.540
17773WAT      O53560   0.341   7.477   7.909
17773WAT     H153561   0.276   7.550   7.886
17773WAT     H253562   0.381   7.440   7.825
17774WAT      O53563   9.081   0.723   7.039
17774WAT     H153564   9.033   0.797   6.991
17774WAT     H253565   9.043   0.714   7.132
17775WAT      O53566   9.364   3.935   2.434
17775WAT     H153567   9.436   3.947   2.365
17775WAT     H253568   9.341   3.838   2.441
17776WAT      O53569   9.427   6.082   8.412
17776WAT     H153570   9.380   6.041   8.335
17776WAT     H253571   9.439   6.013   8.484
17777WAT      O53572   0.575   4.044   8.508
17777WAT     H153573   0.500   4.086   8.560
17777WAT     H253574   0.635   4.116   8.473
17778WAT      O53575   8.084   0.796   8.320
17778WAT     H153576   8.057   0.890   8.342
17778WAT     H253577   8.128   0.794   8.231
17779WAT      O53578   6.325   1.618   4.381
17779WAT     H153579   6.311   1.587   4.287
17779WAT     H253580   6.398   1.564   4.423
17780WAT      O53581   8.070   0.063   6.098
17780WAT     H153582   8.025   0.145   6.132
17780WAT     H253583   8.017   0.026   6.022
17781WAT      O53584   0.895   6.707   9.628
17781WAT     H153585   0.985   6.697   9.670
17781WAT     H253586   0.879   6.631   9.564
17782WAT      O53587   0.700   3.266   7.642
17782WAT     H153588   0.675   3.260   7.739
17782WAT     H253589   0.672   3.354   7.605
17783WAT      O53590   1.527   4.900   9.385
17783WAT     H153591   1.557   4.950   9.465
17783WAT     H253592   1.605   4.882   9.325
17784WAT      O53593   2.554   2.324   8.358
17784WAT     H153594   2.602   2.254   8.411
17784WAT     H253595   2.516   2.283   8.275
17785WAT      O53596   8.742   2.005   8.250
17785WAT     H153597   8.668   2.010   8.318
17785WAT     H253598   8.801   1.928   8.272
17786WAT      O53599   8.715   9.319   6.497
17786WAT     H153600   8.758   9.253   6.558
17786WAT     H253601   8.784   9.357   6.435
17787WAT      O53602   6.352   9.047   0.589
17787WAT     H153603   6.424   9.065   0.656
17787WAT     H253604   6.328   8.950   0.590
17788WAT      O53605   1.706   7.371   5.029
17788WAT     H153606   1.717   7.467   5.001
17788WAT     H253607   1.652   7.322   4.961
17789WAT      O53608   9.832   8.264   5.067
17789WAT     H153609   9.893   8.197   5.025
17789WAT     H253610   9.881   8.314   5.138
17790WAT      O53611   9.118   0.248   3.834
17790WAT     H153612   9.115   0.155   3.871
17790WAT     H253613   9.129   0.314   3.908
17791WAT      O53614   8.892   3.837   4.360
17791WAT     H153615   8.839   3.898   4.301
17791WAT     H253616   8.971   3.886   4.396
17792WAT      O53617   1.671   1.260   5.444
17792WAT     H153618   1.595   1.196   5.462
17792WAT     H253619   1.709   1.292   5.531
17793WAT      O53620   1.326   7.527   4.556
17793WAT     H153621   1.294   7.433   4.566
17793WAT     H253622   1.279   7.570   4.479
17794WAT      O53623   9.467   6.963   1.629
17794WAT     H153624   9.404   6.885   1.635
17794WAT     H253625   9.532   6.948   1.555
17795WAT      O53626   0.534   0.142   8.983
17795WAT     H153627   0.476   0.063   9.001
17795WAT     H253628   0.489   0.201   8.916
17796WAT      O53629   1.436   6.938   0.997
17796WAT     H153630   1.411   6.884   1.077
17796WAT     H253631   1.355   6.989   0.965
17797WAT      O53632   8.450   4.320   8.851
17797WAT     H153633   8.514   4.262   8.800
17797WAT     H253634   8.385   4.263   8.900
17798WAT      O53635   4.193   7.920   2.648
17798WAT     H153636   4.117   7.891   2.590
17798WAT     H253637   4.277   7.876   2.617
17799WAT      O53638   1.533   0.191   9.842
17799WAT     H153639   1.596   0.260   9.807
17799WAT     H253640   1.580   0.133   9.908
17800WAT      O53641   9.000   4.709   0.304
17800WAT     H153642   9.009   4.790   0.246
17800WAT     H253643   9.063   4.638   0.272
17801WAT      O53644   2.926   3.679   1.654
17801WAT     H153645   2.858   3.749   1.632
17801WAT     H253646   3.017   3.710   1.626
17802WAT      O53647   7.367   4.403   2.333
17802WAT     H153648   7.355   4.306   2.354
17802WAT     H253649   7.293   4.433   2.272
17803WAT      O53650   2.619   3.773   8.126
17803WAT     H153651   2.551   3.809   8.190
17803WAT     H253652   2.669   3.849   8.084
17804WAT      O53653   4.826   6.338   6.187
17804WAT     H153654   4.742   6.295   6.221
17804WAT     H253655   4.872   6.276   6.124
17805WAT      O53656   4.066   5.210   8.100
17805WAT     H153657   4.053   5.172   8.191
17805WAT     H253658   4.155   5.255   8.095
17806WAT      O53659   8.032   4.931   5.652
17806WAT     H153660   8.035   4.870   5.731
17806WAT     H253661   8.103   4.905   5.587
17807WAT      O53662   7.792   8.192   4.804
17807WAT     H153663   7.756   8.125   4.868
17807WAT     H253664   7.760   8.284   4.829
17808WAT      O53665   5.855   5.567   0.843
17808WAT     H153666   5.949   5.599   0.846
17808WAT     H253667   5.853   5.469   0.827
17809WAT      O53668   7.659   4.780   0.547
17809WAT     H153669   7.672   4.814   0.640
17809WAT     H253670   7.637   4.682   0.550
17810WAT      O53671   8.042   8.617   6.778
17810WAT     H153672   8.094   8.634   6.695
17810WAT     H253673   7.992   8.700   6.804
17811WAT      O53674   4.097   4.656   1.618
17811WAT     H153675   4.109   4.755   1.625
17811WAT     H253676   4.036   4.635   1.541
17812WAT      O53677   5.785   3.996   9.350
17812WAT     H153678   5.803   4.095   9.353
17812WAT     H253679   5.837   3.950   9.421
17813WAT      O53680   2.888   8.773   0.464
17813WAT     H153681   2.820   8.770   0.538
17813WAT     H253682   2.872   8.697   0.402
17814WAT      O53683   7.600   5.235   3.029
17814WAT     H153684   7.555   5.305   3.085
17814WAT     H253685   7.532   5.175   2.988
17815WAT      O53686   8.453   8.852   4.076
17815WAT     H153687   8.475   8.773   4.019
17815WAT     H253688   8.517   8.856   4.153
17816WAT      O53689   3.158   8.916   6.262
17816WAT     H153690   3.199   8.958   6.343
17816WAT     H253691   3.126   8.988   6.200
17817WAT      O53692   3.467   6.030   7.824
17817WAT     H153693   3.471   5.998   7.729
17817WAT     H253694   3.559   6.042   7.859
17818WAT      O53695   6.144   3.886   5.864
17818WAT     H153696   6.095   3.965   5.826
17818WAT     H253697   6.110   3.803   5.820
17819WAT      O53698   7.510   2.814   6.102
17819WAT     H153699   7.590   2.841   6.048
17819WAT     H253700   7.429   2.861   6.067
17820WAT      O53701   9.831   1.568   5.182
17820WAT     H153702   9.767   1.571   5.106
17820WAT     H253703   9.843   1.659   5.220
17821WAT      O53704   6.463   2.402   2.788
17821WAT     H153705   6.415   2.490   2.800
17821WAT     H253706   6.397   2.333   2.758
17822WAT      O53707   3.890   9.473   3.654
17822WAT     H153708   3.791   9.483   3.656
17822WAT     H253709   3.914   9.383   3.619
17823WAT      O53710   3.826   3.815   1.767
17823WAT     H153711   3.781   3.836   1.854
17823WAT     H253712   3.775   3.744   1.719
17824WAT      O53713   4.627   8.006   6.941
17824WAT     H153714   4.562   8.071   6.982
17824WAT     H253715   4.720   8.044   6.948
17825WAT      O53716   2.955   1.943   4.477
17825WAT     H153717   2.968   1.847   4.503
17825WAT     H253718   2.931   1.997   4.557
17826WAT      O53719   5.339   8.752   1.812
17826WAT     H153720   5.366   8.728   1.719
17826WAT     H253721   5.391   8.831   1.843
17827WAT      O53722   7.420   8.840   4.798
17827WAT     H153723   7.356   8.779   4.845
17827WAT     H253724   7.485   8.877   4.865
17828WAT      O53725   8.157   3.064   5.995
17828WAT     H153726   8.100   3.062   5.913
17828WAT     H253727   8.231   3.131   5.982
17829WAT      O53728   6.055   9.102   7.283
17829WAT     H153729   5.977   9.088   7.221
17829WAT     H253730   6.024   9.092   7.378
17830WAT      O53731   1.540   9.665   2.921
17830WAT     H153732   1.621   9.607   2.928
17830WAT     H253733   1.484   9.654   3.003
17831WAT      O53734   1.267   8.397   5.096
17831WAT     H153735   1.332   8.328   5.128
17831WAT     H253736   1.311   8.455   5.027
17832WAT      O53737   0.233   2.359   7.354
17832WAT     H153738   0.327   2.346   7.387
17832WAT     H253739   0.235   2.386   7.258
17833WAT      O53740   0.341   6.252   4.242
17833WAT     H153741   0.336   6.214   4.335
17833WAT     H253742   0.433   6.287   4.225
17834WAT      O53743   4.044   0.561   4.647
17834WAT     H153744   3.973   0.618   4.689
17834WAT     H253745   4.031   0.559   4.548
17835WAT      O53746   0.478   0.950   5.223
17835WAT     H153747   0.410   1.018   5.196
17835WAT     H253748   0.491   0.953   5.322
17836WAT      O53749   8.241   1.486   7.316
17836WAT     H153750   8.222   1.510   7.412
17836WAT     H253751   8.210   1.560   7.256
17837WAT      O53752   1.249   5.842   0.313
17837WAT     H153753   1.264   5.868   0.409
17837WAT     H253754   1.318   5.776   0.285
17838WAT      O53755   0.779   2.888   0.405
17838WAT     H153756   0.686   2.921   0.424
17838WAT     H253757   0.788   2.869   0.307
17839WAT      O53758   6.199   0.068   3.814
17839WAT     H153759   6.229  -0.006   3.752
17839WAT     H253760   6.215   0.156   3.770
17840WAT      O53761   9.070   4.875   9.004
17840WAT     H153762   9.086   4.800   9.069
17840WAT     H253763   9.157   4.910   8.971
17841WAT      O53764   5.774   4.140   4.049
17841WAT     H153765   5.683   4.111   4.079
17841WAT     H253766   5.806   4.080   3.975
17842WAT      O53767   6.527   1.479   1.784
17842WAT     H153768   6.516   1.494   1.882
17842WAT     H253769   6.572   1.559   1.743
17843WAT      O53770   4.672   5.536   8.263
17843WAT     H153771   4.583   5.524   8.308
17843WAT     H253772   4.732   5.460   8.285
17844WAT      O53773   9.526   5.159   7.796
17844WAT     H153774   9.482   5.228   7.854
17844WAT     H253775   9.459   5.124   7.730
17845WAT      O53776   3.433   9.745   9.570
17845WAT     H153777   3.352   9.708   9.525
17845WAT     H253778   3.498   9.672   9.587
17846WAT      O53779   0.468   0.593   7.529
17846WAT     H153780   0.438   0.686   7.551
17846WAT     H253781   0.504   0.591   7.435
17847WAT      O53782   0.145   0.743   0.513
17847WAT     H153783   0.091   0.681   0.570
17847WAT     H253784   0.242   0.720   0.522
17848WAT      O53785   3.628   0.801   9.793
17848WAT     H153786   3.576   0.743   9.731
17848WAT     H253787   3.693   0.746   9.844
17849WAT      O53788   3.865   1.114   1.762
17849WAT     H153789   3.905   1.065   1.684
17849WAT     H253790   3.766   1.121   1.748
17850WAT      O53791   6.174   1.367   0.061
17850WAT     H153792   6.120   1.282   0.062
17850WAT     H253793   6.195   1.394   0.155
17851WAT      O53794   9.457   5.293   7.356
17851WAT     H153795   9.479   5.362   7.287
17851WAT     H253796   9.396   5.333   7.425
17852WAT      O53797   8.337   1.887   9.560
17852WAT     H153798   8.361   1.803   9.609
17852WAT     H253799   8.286   1.948   9.620
17853WAT      O53800   7.593   3.761   1.592
17853WAT     H153801   7.565   3.698   1.665
17853WAT     H253802   7.512   3.810   1.558
17854WAT      O53803   4.175   7.408   1.831
17854WAT     H153804   4.127   7.329   1.870
17854WAT     H253805   4.175   7.401   1.731
17855WAT      O53806   8.670   1.587   0.438
17855WAT     H153807   8.732   1.516   0.470
17855WAT     H253808   8.632   1.561   0.349
17856WAT      O53809   7.091   8.179   6.715
17856WAT     H153810   7.121   8.198   6.809
17856WAT     H253811   7.114   8.258   6.657
17857WAT      O53812   7.785   7.031   5.601
17857WAT     H153813   7.836   6.953   5.564
17857WAT     H253814   7.688   7.019   5.580
17858WAT      O53815   8.311   4.430   2.590
17858WAT     H153816   8.382   4.464   2.651
17858WAT     H253817   8.236   4.497   2.584
17859WAT      O53818   3.858   2.212   7.071
17859WAT     H153819   3.922   2.137   7.085
17859WAT     H253820   3.770   2.176   7.039
17860WAT      O53821   0.283   3.913   2.150
17860WAT     H153822   0.294   3.817   2.175
17860WAT     H253823   0.327   3.971   2.219
17861WAT      O53824   7.100   8.982   7.006
17861WAT     H153825   7.193   9.021   7.002
17861WAT     H253826   7.102   8.896   7.056
17862WAT      O53827   5.835   9.011   8.214
17862WAT     H153828   5.761   8.967   8.164
17862WAT     H253829   5.827   8.989   8.312
17863WAT      O53830   5.805   2.460   9.275
17863WAT     H153831   5.825   2.508   9.190
17863WAT     H253832   5.720   2.495   9.314
17864WAT      O53833   9.675   8.861   9.245
17864WAT     H153834   9.676   8.804   9.327
17864WAT     H253835   9.665   8.957   9.272
17865WAT      O53836   4.521   2.638   1.896
17865WAT     H153837   4.486   2.630   1.802
17865WAT     H253838   4.612   2.597   1.901
17866WAT      O53839   6.445   5.616   7.190
17866WAT     H153840   6.420   5.681   7.261
17866WAT     H253841   6.366   5.557   7.169
17867WAT      O53842   6.016   4.043   6.704
17867WAT     H153843   5.963   4.061   6.787
17867WAT     H253844   5.953   4.035   6.627
17868WAT      O53845   2.101   0.183   5.202
17868WAT     H153846   2.086   0.171   5.104
17868WAT     H253847   2.023   0.147   5.252
17869WAT      O53848   8.102   3.648   1.743
17869WAT     H153849   8.106   3.659   1.643
17869WAT     H253850   8.101   3.739   1.786
17870WAT      O53851   8.112   4.511   6.815
17870WAT     H153852   8.061   4.595   6.796
17870WAT     H253853   8.066   4.459   6.887
17871WAT      O53854   7.332   6.469   7.464
17871WAT     H153855   7.409   6.449   7.524
17871WAT     H253856   7.270   6.534   7.509
17872WAT      O53857   1.671   1.619   4.470
17872WAT     H153858   1.720   1.685   4.527
17872WAT     H253859   1.611   1.564   4.527
17873WAT      O53860   2.852   5.074   5.744
17873WAT     H153861   2.782   5.010   5.775
17873WAT     H253862   2.845   5.158   5.797
17874WAT      O53863   1.166   1.688   2.943
17874WAT     H153864   1.145   1.594   2.919
17874WAT     H253865   1.265   1.697   2.957
17875WAT      O53866   5.353   4.457   4.330
17875WAT     H153867   5.308   4.521   4.392
17875WAT     H253868   5.290   4.384   4.305
17876WAT      O53869   5.677   7.416   3.263
17876WAT     H153870   5.722   7.482   3.322
17876WAT     H253871   5.599   7.376   3.310
17877WAT      O53872   6.569   0.617   3.978
17877WAT     H153873   6.513   0.552   3.927
17877WAT     H253874   6.615   0.568   4.053
17878WAT      O53875   4.936   9.483   6.314
17878WAT     H153876   5.026   9.473   6.272
17878WAT     H253877   4.884   9.399   6.302
17879WAT      O53878   2.970   8.522   5.678
17879WAT     H153879   3.054   8.569   5.704
17879WAT     H253880   2.925   8.572   5.604
17880WAT      O53881   3.320   1.657   4.804
17880WAT     H153882   3.259   1.578   4.801
17880WAT     H253883   3.298   1.713   4.883
17881WAT      O53884   7.264   4.922   8.522
17881WAT     H153885   7.348   4.973   8.508
17881WAT     H253886   7.211   4.964   8.596
17882WAT      O53887   7.299   5.877   9.376
17882WAT     H153888   7.251   5.795   9.345
17882WAT     H253889   7.387   5.851   9.415
17883WAT      O53890   2.645   7.850   8.290
17883WAT     H153891   2.623   7.785   8.362
17883WAT     H253892   2.626   7.943   8.321
17884WAT      O53893   9.571   4.769   4.896
17884WAT     H153894   9.598   4.825   4.818
17884WAT     H253895   9.596   4.674   4.880
17885WAT      O53896   5.603   1.630   9.032
17885WAT     H153897   5.529   1.696   9.030
17885WAT     H253898   5.566   1.538   9.044
17886WAT      O53899   8.233   8.503   8.356
17886WAT     H153900   8.297   8.444   8.305
17886WAT     H253901   8.249   8.491   8.454
17887WAT      O53902   7.301   0.083   7.945
17887WAT     H153903   7.232   0.102   8.015
17887WAT     H253904   7.392   0.100   7.982
17888WAT      O53905   5.067   3.025   3.549
17888WAT     H153906   5.092   3.075   3.465
17888WAT     H253907   5.122   3.059   3.625
17889WAT      O53908   8.197   5.391   7.335
17889WAT     H153909   8.125   5.407   7.402
17889WAT     H253910   8.184   5.452   7.257
17890WAT      O53911   4.020   7.306   6.516
17890WAT     H153912   4.038   7.211   6.490
17890WAT     H253913   4.107   7.351   6.539
17891WAT      O53914   9.336   5.447   4.939
17891WAT     H153915   9.344   5.348   4.942
17891WAT     H253916   9.243   5.474   4.962
17892WAT      O53917   4.076   7.535   8.665
17892WAT     H153918   4.063   7.634   8.671
17892WAT     H253919   4.004   7.488   8.716
17893WAT      O53920   7.340   5.463   3.829
17893WAT     H153921   7.417   5.518   3.861
17893WAT     H253922   7.364   5.419   3.742
17894WAT      O53923   6.759   8.674   0.775
17894WAT     H153924   6.809   8.757   0.802
17894WAT     H253925   6.661   8.687   0.793
17895WAT      O53926   3.467   1.238   8.181
17895WAT     H153927   3.554   1.193   8.199
17895WAT     H253928   3.447   1.234   8.083
17896WAT      O53929   9.635   9.005   2.367
17896WAT     H153930   9.566   9.035   2.432
17896WAT     H253931   9.596   9.006   2.274
17897WAT      O53932   4.220   4.853   8.199
17897WAT     H153933   4.262   4.869   8.110
17897WAT     H253934   4.142   4.792   8.188
17898WAT      O53935   2.934   8.770   2.539
17898WAT     H153936   2.920   8.723   2.626
17898WAT     H253937   3.021   8.818   2.539
17899WAT      O53938   6.012   7.841   0.550
17899WAT     H153939   6.029   7.803   0.641
17899WAT     H253940   6.042   7.936   0.548
17900WAT      O53941   6.225   8.204   6.583
17900WAT     H153942   6.189   8.129   6.526
17900WAT     H253943   6.288   8.259   6.529
17901WAT      O53944   6.921   5.223   7.373
17901WAT     H153945   6.940   5.317   7.401
17901WAT     H253946   6.952   5.210   7.279
17902WAT      O53947   0.000   8.210   2.209
17902WAT     H153948   0.081   8.153   2.225
17902WAT     H253949  -0.028   8.202   2.114
17903WAT      O53950   3.824   0.353   1.700
17903WAT     H153951   3.734   0.370   1.661
17903WAT     H253952   3.814   0.304   1.787
17904WAT      O53953   3.327   3.042   8.297
17904WAT     H153954   3.326   2.954   8.250
17904WAT     H253955   3.237   3.058   8.339
17905WAT      O53956   2.528   7.655   3.476
17905WAT     H153957   2.443   7.605   3.460
17905WAT     H253958   2.566   7.686   3.389
17906WAT      O53959   5.642   1.665   3.500
17906WAT     H153960   5.602   1.702   3.584
17906WAT     H253961   5.736   1.636   3.518
17907WAT      O53962   8.231   7.218   3.945
17907WAT     H153963   8.146   7.255   3.983
17907WAT     H253964   8.290   7.294   3.915
17908WAT      O53965   0.687   8.882   5.431
17908WAT     H153966   0.735   8.968   5.445
17908WAT     H253967   0.652   8.878   5.337
17909WAT      O53968   8.130   4.220   2.536
17909WAT     H153969   8.087   4.261   2.455
17909WAT     H253970   8.201   4.282   2.570
17910WAT      O53971   8.080   2.402   3.646
17910WAT     H153972   7.991   2.364   3.668
17910WAT     H253973   8.069   2.494   3.608
17911WAT      O53974   9.616   4.162   6.283
17911WAT     H153975   9.577   4.239   6.333
17911WAT     H253976   9.588   4.076   6.326
17912WAT      O53977   8.900   3.896   4.780
17912WAT     H153978   8.850   3.848   4.708
17912WAT     H253979   8.888   3.995   4.768
17913WAT      O53980   2.685   9.119   0.830
17913WAT     H153981   2.702   9.179   0.908
17913WAT     H253982   2.611   9.156   0.775
17914WAT      O53983   0.551   0.229   5.671
17914WAT     H153984   0.488   0.158   5.703
17914WAT     H253985   0.529   0.252   5.576
17915WAT      O53986   2.767   0.671   7.692
17915WAT     H153987   2.686   0.723   7.715
17915WAT     H253988   2.741   0.586   7.646
17916WAT      O53989   2.099   6.569   8.782
17916WAT     H153990   2.018   6.581   8.724
17916WAT     H253991   2.075   6.591   8.877
17917WAT      O53992   1.056   6.360   7.708
17917WAT     H153993   1.043   6.412   7.792
17917WAT     H253994   1.068   6.423   7.631
17918WAT      O53995   7.695   5.244   0.799
17918WAT     H153996   7.664   5.246   0.704
17918WAT     H253997   7.617   5.260   0.859
17919WAT      O53998   3.512   2.078   1.275
17919WAT     H153999   3.586   2.123   1.224
17919WAT     H254000   3.545   2.054   1.367
17920WAT      O54001   2.227   5.134   4.087
17920WAT     H154002   2.177   5.061   4.135
17920WAT     H254003   2.292   5.093   4.024
17921WAT      O54004   5.987   7.162   0.321
17921WAT     H154005   5.965   7.162   0.419
17921WAT     H254006   5.995   7.256   0.288
17922WAT      O54007   1.599   9.425   7.851
17922WAT     H154008   1.644   9.343   7.886
17922WAT     H254009   1.541   9.400   7.773
17923WAT      O54010   0.084   8.056   1.137
17923WAT     H154011   0.119   8.052   1.043
17923WAT     H254012   0.049   8.147   1.155
17924WAT      O54013   4.189   2.147   7.029
17924WAT     H154014   4.279   2.184   7.048
17924WAT     H254015   4.135   2.214   6.978
17925WAT      O54016   4.167   7.794   9.284
17925WAT     H154017   4.267   7.788   9.276
17925WAT     H254018   4.142   7.889   9.302
17926WAT      O54019   6.146   6.110   0.642
17926WAT     H154020   6.168   6.014   0.657
17926WAT     H254021   6.064   6.118   0.587
17927WAT      O54022   3.980   1.702   4.682
17927WAT     H154023   3.957   1.661   4.771
17927WAT     H254024   3.923   1.661   4.611
17928WAT      O54025   3.251   7.161   6.909
17928WAT     H154026   3.203   7.195   6.829
17928WAT     H254027   3.272   7.237   6.970
17929WAT      O54028   3.488   4.121   9.832
17929WAT     H154029   3.392   4.108   9.807
17929WAT     H254030   3.527   4.196   9.778
17930WAT      O54031   5.951   5.065   8.943
17930WAT     H154032   6.034   5.060   8.999
17930WAT     H254033   5.961   5.007   8.862
17931WAT      O54034   1.733   3.204   1.918
17931WAT     H154035   1.707   3.301   1.914
17931WAT     H254036   1.656   3.151   1.954
17932WAT      O54037   6.340   9.320   6.470
17932WAT     H154038   6.377   9.280   6.554
17932WAT     H254039   6.361   9.261   6.393
17933WAT      O54040   0.630   7.105   7.903
17933WAT     H154041   0.546   7.153   7.927
17933WAT     H254042   0.617   7.053   7.819
17934WAT      O54043   4.322   0.930   9.578
17934WAT     H154044   4.406   0.973   9.546
17934WAT     H254045   4.291   0.862   9.511
17935WAT      O54046   1.770   6.144   4.942
17935WAT     H154047   1.832   6.218   4.969
17935WAT     H254048   1.823   6.067   4.907
17936WAT      O54049   1.675   8.144   8.578
17936WAT     H154050   1.676   8.102   8.487
17936WAT     H254051   1.626   8.231   8.574
17937WAT      O54052   5.744   1.075   1.215
17937WAT     H154053   5.738   0.983   1.175
17937WAT     H254054   5.803   1.132   1.158
17938WAT      O54055   3.776   6.196   8.723
17938WAT     H154056   3.725   6.124   8.675
17938WAT     H254057   3.784   6.276   8.664
17939WAT      O54058   7.695   5.364   2.333
17939WAT     H154059   7.735   5.451   2.359
17939WAT     H254060   7.617   5.344   2.393
17940WAT      O54061   5.058   7.844   1.292
17940WAT     H154062   4.977   7.903   1.290
17940WAT     H254063   5.067   7.803   1.382
17941WAT      O54064   9.408   9.723   1.583
17941WAT     H154065   9.478   9.654   1.565
17941WAT     H254066   9.450   9.802   1.627
17942WAT      O54067   1.468   6.461   2.141
17942WAT     H154068   1.527   6.540   2.156
17942WAT     H254069   1.523   6.385   2.106
17943WAT      O54070   2.384   2.781   0.989
17943WAT     H154071   2.417   2.691   0.962
17943WAT     H254072   2.305   2.806   0.933
17944WAT      O54073   6.240   1.174   6.473
17944WAT     H154074   6.314   1.107   6.468
17944WAT     H254075   6.263   1.254   6.418
17945WAT      O54076   2.325   3.145   5.466
17945WAT     H154077   2.264   3.120   5.541
17945WAT     H254078   2.419   3.125   5.491
17946WAT      O54079   6.528   4.584   5.476
17946WAT     H154080   6.487   4.499   5.509
17946WAT     H254081   6.492   4.603   5.384
17947WAT      O54082   9.680   3.500   1.114
17947WAT     H154083   9.740   3.442   1.169
17947WAT     H254084   9.717   3.509   1.022
17948WAT      O54085   0.572   6.339   4.510
17948WAT     H154086   0.498   6.356   4.574
17948WAT     H254087   0.596   6.242   4.512
17949WAT      O54088   4.218   7.181   0.248
17949WAT     H154089   4.257   7.152   0.160
17949WAT     H254090   4.118   7.176   0.242
17950WAT      O54091   8.180   0.234   8.651
17950WAT     H154092   8.220   0.182   8.727
17950WAT     H254093   8.090   0.269   8.678
17951WAT      O54094   8.264   6.121   7.242
17951WAT     H154095   8.272   6.072   7.329
17951WAT     H254096   8.327   6.082   7.175
17952WAT      O54097   9.537   9.259   0.865
17952WAT     H154098   9.506   9.304   0.781
17952WAT     H254099   9.460   9.247   0.927
17953WAT      O54100   5.070   7.613   6.357
17953WAT     H154101   5.101   7.593   6.450
17953WAT     H254102   5.146   7.651   6.304
17954WAT      O54103   4.324   4.581   6.851
17954WAT     H154104   4.382   4.663   6.852
17954WAT     H254105   4.255   4.589   6.923
17955WAT      O54106   8.703   7.753   2.131
17955WAT     H154107   8.666   7.735   2.040
17955WAT     H254108   8.629   7.785   2.191
17956WAT      O54109   0.136   7.103   3.263
17956WAT     H154110   0.127   7.172   3.335
17956WAT     H254111   0.045   7.084   3.224
17957WAT      O54112   0.889   6.317   4.653
17957WAT     H154113   0.853   6.405   4.683
17957WAT     H254114   0.989   6.316   4.666
17958WAT      O54115   4.365   1.168   0.097
17958WAT     H154116   4.337   1.093   0.037
17958WAT     H254117   4.414   1.237   0.044
17959WAT      O54118   2.220   1.681   1.542
17959WAT     H154119   2.230   1.634   1.455
17959WAT     H254120   2.299   1.661   1.600
17960WAT      O54121   6.170   4.197   4.018
17960WAT     H154122   6.121   4.131   4.075
17960WAT     H254123   6.268   4.185   4.031
17961WAT      O54124   4.978   9.606   7.603
17961WAT     H154125   4.915   9.576   7.674
17961WAT     H254126   5.022   9.691   7.632
17962WAT      O54127   6.979   5.698   4.647
17962WAT     H154128   6.986   5.795   4.667
17962WAT     H254129   6.883   5.675   4.627
17963WAT      O54130   8.356   3.891   7.338
17963WAT     H154131   8.422   3.832   7.290
17963WAT     H254132   8.405   3.953   7.399
17964WAT      O54133   0.382   6.530   5.303
17964WAT     H154134   0.379   6.578   5.390
17964WAT     H254135   0.300   6.473   5.294
17965WAT      O54136   0.547   5.305   2.521
17965WAT     H154137   0.534   5.381   2.456
17965WAT     H254138   0.595   5.230   2.475
17966WAT      O54139   4.854   0.760   5.702
17966WAT     H154140   4.953   0.776   5.708
17966WAT     H254141   4.836   0.662   5.701
17967WAT      O54142   4.313   7.917   0.216
17967WAT     H154143   4.309   7.964   0.305
17967WAT     H254144   4.399   7.941   0.170
17968WAT      O54145   4.529   5.714   5.725
17968WAT     H154146   4.438   5.729   5.765
17968WAT     H254147   4.569   5.631   5.765
17969WAT      O54148   0.595   5.509   2.107
17969WAT     H154149   0.595   5.409   2.116
17969WAT     H254150   0.661   5.535   2.036
17970WAT      O54151   2.425   1.457   4.024
17970WAT     H154152   2.423   1.400   4.106
17970WAT     H254153   2.510   1.440   3.974
17971WAT      O54154   7.000   2.611   8.671
17971WAT     H154155   7.001   2.694   8.726
17971WAT     H254156   7.089   2.566   8.677
17972WAT      O54157   2.888   4.031   7.857
17972WAT     H154158   2.833   4.031   7.941
17972WAT     H254159   2.970   4.086   7.872
17973WAT      O54160   3.976   9.610   3.300
17973WAT     H154161   4.055   9.619   3.240
17973WAT     H254162   4.006   9.614   3.396
17974WAT      O54163   0.942   2.558   8.239
17974WAT     H154164   0.937   2.507   8.153
17974WAT     H254165   0.849   2.577   8.272
17975WAT      O54166   6.064   5.347   1.174
17975WAT     H154167   6.072   5.446   1.164
17975WAT     H254168   6.111   5.302   1.098
17976WAT      O54169   1.992   0.782   1.371
17976WAT     H154170   2.086   0.814   1.364
17976WAT     H254171   1.933   0.837   1.312
17977WAT      O54172   9.861   7.263   1.074
17977WAT     H154173   9.848   7.349   1.025
17977WAT     H254174   9.772   7.223   1.097
17978WAT      O54175   7.626   2.175   6.897
17978WAT     H154176   7.540   2.184   6.847
17978WAT     H254177   7.607   2.152   6.993
17979WAT      O54178   1.591   8.828   9.449
17979WAT     H154179   1.649   8.850   9.370
17979WAT     H254180   1.644   8.839   9.533
17980WAT      O54181   3.429   9.484   1.665
17980WAT     H154182   3.494   9.420   1.705
17980WAT     H254183   3.344   9.437   1.644
17981WAT      O54184   5.249   9.810   9.089
17981WAT     H154185   5.273   9.725   9.043
17981WAT     H254186   5.169   9.851   9.043
17982WAT      O54187   6.584   9.711   3.051
17982WAT     H154188   6.616   9.620   3.024
17982WAT     H254189   6.543   9.757   2.972
17983WAT      O54190   6.058   3.696   4.629
17983WAT     H154191   6.097   3.612   4.590
17983WAT     H254192   6.062   3.691   4.729
17984WAT      O54193   8.536   6.424   2.826
17984WAT     H154194   8.555   6.522   2.822
17984WAT     H254195   8.568   6.387   2.913
17985WAT      O54196   4.237   3.793   4.029
17985WAT     H154197   4.198   3.768   4.117
17985WAT     H254198   4.293   3.875   4.040
17986WAT      O54199   8.233   6.184   4.442
17986WAT     H154200   8.326   6.149   4.456
17986WAT     H254201   8.186   6.187   4.530
17987WAT      O54202   5.558   1.191   4.756
17987WAT     H154203   5.653   1.222   4.768
17987WAT     H254204   5.501   1.269   4.728
17988WAT      O54205   3.144   2.922   4.744
17988WAT     H154206   3.222   2.865   4.720
17988WAT     H254207   3.101   2.958   4.661
17989WAT      O54208   9.183   1.247   0.577
17989WAT     H154209   9.118   1.249   0.500
17989WAT     H254210   9.262   1.192   0.552
17990WAT      O54211   1.761   0.521   7.929
17990WAT     H154212   1.747   0.473   7.843
17990WAT     H254213   1.811   0.462   7.993
17991WAT      O54214   3.027   5.955   4.716
17991WAT     H154215   3.043   6.051   4.695
17991WAT     H254216   3.006   5.906   4.631
17992WAT      O54217   6.724   5.474   5.232
17992WAT     H154218   6.732   5.516   5.322
17992WAT     H254219   6.685   5.382   5.242
17993WAT      O54220   4.799   1.559   0.632
17993WAT     H154221   4.797   1.491   0.559
17993WAT     H254222   4.863   1.529   0.703
17994WAT      O54223   2.282   7.839   0.350
17994WAT     H154224   2.268   7.778   0.272
17994WAT     H254225   2.376   7.873   0.349
17995WAT      O54226   5.501   2.730   7.155
17995WAT     H154227   5.511   2.713   7.253
17995WAT     H254228   5.516   2.827   7.136
17996WAT      O54229   2.114   9.202   5.002
17996WAT     H154230   2.128   9.149   4.918
17996WAT     H254231   2.090   9.296   4.979
17997WAT      O54232   4.441   3.023   6.844
17997WAT     H154233   4.401   2.931   6.839
17997WAT     H254234   4.462   3.045   6.939
17998WAT      O54235   2.752   5.660   2.948
17998WAT     H154236   2.767   5.715   3.030
17998WAT     H254237   2.678   5.700   2.893
17999WAT      O54238   4.181   7.391   7.681
17999WAT     H154239   4.155   7.394   7.584
17999WAT     H254240   4.150   7.473   7.727
18000WAT      O54241   8.272   0.653   6.493
18000WAT     H154242   8.358   0.665   6.544
18000WAT     H254243   8.262   0.728   6.428
18001WAT      O54244   6.833   3.921   7.798
18001WAT     H154245   6.913   3.972   7.765
18001WAT     H254246   6.857   3.824   7.805
18002WAT      O54247   6.907   5.081   8.154
18002WAT     H154248   6.932   5.137   8.233
18002WAT     H254249   6.989   5.040   8.115
18003WAT      O54250   8.386   5.652   2.504
18003WAT     H154251   8.470   5.645   2.556
18003WAT     H254252   8.406   5.691   2.414
18004WAT      O54253   4.411   7.647   4.573
18004WAT     H154254   4.441   7.736   4.607
18004WAT     H254255   4.335   7.660   4.510
18005WAT      O54256   1.571   6.837   9.553
18005WAT     H154257   1.524   6.915   9.596
18005WAT     H254258   1.527   6.752   9.582
18006WAT      O54259   2.173   5.943   5.304
18006WAT     H154260   2.246   5.875   5.304
18006WAT     H254261   2.156   5.974   5.397
18007WAT      O54262   0.209   1.881   0.274
18007WAT     H154263   0.234   1.850   0.366
18007WAT     H254264   0.288   1.872   0.213
18008WAT      O54265   1.147   6.392   5.156
18008WAT     H154266   1.178   6.474   5.107
18008WAT     H254267   1.056   6.408   5.195
18009WAT      O54268   4.731   7.965   9.536
18009WAT     H154269   4.733   8.054   9.580
18009WAT     H254270   4.813   7.913   9.562
18010WAT      O54271   0.513   1.859   0.375
18010WAT     H154272   0.583   1.878   0.307
18010WAT     H254273   0.484   1.763   0.367
18011WAT      O54274   7.637   1.692   9.377
18011WAT     H154275   7.707   1.624   9.400
18011WAT     H254276   7.550   1.666   9.419
18012WAT      O54277   5.887   7.128   8.110
18012WAT     H154278   5.836   7.212   8.091
18012WAT     H254279   5.983   7.142   8.088
18013WAT      O54280   7.769   4.867   7.841
18013WAT     H154281   7.808   4.952   7.805
18013WAT     H254282   7.842   4.801   7.858
18014WAT      O54283   3.595   2.044   8.615
18014WAT     H154284   3.658   2.021   8.689
18014WAT     H254285   3.629   2.004   8.529
18015WAT      O54286   8.472   0.480   8.319
18015WAT     H154287   8.558   0.520   8.351
18015WAT     H254288   8.396   0.515   8.374
18016WAT      O54289   2.493   3.665   3.205
18016WAT     H154290   2.429   3.596   3.239
18016WAT     H254291   2.561   3.685   3.275
18017WAT      O54292   8.462   7.522   4.136
18017WAT     H154293   8.533   7.541   4.203
18017WAT     H254294   8.503   7.510   4.046
18018WAT      O54295   1.681   1.196   6.563
18018WAT     H154296   1.588   1.161   6.548
18018WAT     H254297   1.702   1.267   6.496
18019WAT      O54298   5.621   5.943   6.812
18019WAT     H154299   5.533   5.933   6.765
18019WAT     H254300   5.627   6.035   6.852
18020WAT      O54301   0.533   5.847   0.850
18020WAT     H154302   0.560   5.832   0.755
18020WAT     H254303   0.606   5.895   0.898
18021WAT      O54304   3.812   3.127   1.051
18021WAT     H154305   3.770   3.071   0.980
18021WAT     H254306   3.887   3.180   1.012
18022WAT      O54307   4.701   8.074   8.487
18022WAT     H154308   4.712   7.975   8.489
18022WAT     H254309   4.666   8.106   8.575
18023WAT      O54310   6.795   6.057   9.817
18023WAT     H154311   6.837   5.970   9.842
18023WAT     H254312   6.839   6.093   9.735
18024WAT      O54313   0.350   4.884   6.004
18024WAT     H154314   0.382   4.919   6.092
18024WAT     H254315   0.288   4.807   6.019
18025WAT      O54316   9.622   4.574   4.250
18025WAT     H154317   9.594   4.487   4.291
18025WAT     H254318   9.567   4.593   4.169
18026WAT      O54319   0.666   0.680   4.948
18026WAT     H154320   0.674   0.644   5.041
18026WAT     H254321   0.742   0.646   4.892
18027WAT      O54322   4.006   3.605   7.270
18027WAT     H154323   3.925   3.546   7.273
18027WAT     H254324   4.023   3.633   7.176
18028WAT      O54325   0.769   6.564   4.740
18028WAT     H154326   0.770   6.589   4.837
18028WAT     H254327   0.705   6.622   4.691
18029WAT      O54328   3.484   1.372   4.187
18029WAT     H154329   3.486   1.297   4.253
18029WAT     H254330   3.561   1.433   4.204
18030WAT      O54331   8.482   7.684   4.513
18030WAT     H154332   8.515   7.664   4.605
18030WAT     H254333   8.385   7.658   4.506
18031WAT      O54334   3.620   1.817   0.484
18031WAT     H154335   3.593   1.903   0.529
18031WAT     H254336   3.544   1.753   0.487
18032WAT      O54337   0.526   2.992   0.351
18032WAT     H154338   0.489   3.082   0.374
18032WAT     H254339   0.489   2.963   0.262
18033WAT      O54340   1.103   1.075   5.195
18033WAT     H154341   1.176   1.106   5.134
18033WAT     H254342   1.026   1.139   5.190
18034WAT      O54343   5.749   0.417   9.087
18034WAT     H154344   5.798   0.331   9.105
18034WAT     H254345   5.803   0.494   9.120
18035WAT      O54346   0.224   2.600   2.979
18035WAT     H154347   0.172   2.637   3.057
18035WAT     H254348   0.312   2.646   2.974
18036WAT      O54349   2.825   9.252   6.967
18036WAT     H154350   2.924   9.244   6.984
18036WAT     H254351   2.800   9.348   6.961
18037WAT      O54352   8.829   2.238   0.694
18037WAT     H154353   8.881   2.312   0.738
18037WAT     H254354   8.771   2.193   0.762
18038WAT      O54355   2.612   7.011   7.015
18038WAT     H154356   2.608   6.927   7.068
18038WAT     H254357   2.676   6.998   6.938
18039WAT      O54358   4.152   1.150   2.351
18039WAT     H154359   4.141   1.066   2.405
18039WAT     H254360   4.145   1.229   2.412
18040WAT      O54361   6.170   5.090   4.951
18040WAT     H154362   6.110   5.126   5.023
18040WAT     H254363   6.258   5.066   4.991
18041WAT      O54364   5.093   6.913   8.197
18041WAT     H154365   5.055   6.838   8.251
18041WAT     H254366   5.020   6.975   8.170
18042WAT      O54367   6.130   6.724   5.862
18042WAT     H154368   6.074   6.649   5.826
18042WAT     H254369   6.123   6.803   5.800
18043WAT      O54370   8.641   4.389   7.993
18043WAT     H154371   8.593   4.433   7.917
18043WAT     H254372   8.739   4.399   7.980
18044WAT      O54373   9.373   3.132   1.051
18044WAT     H154374   9.285   3.171   1.024
18044WAT     H254375   9.405   3.178   1.134
18045WAT      O54376   5.961   7.308   6.459
18045WAT     H154377   6.015   7.303   6.375
18045WAT     H254378   6.018   7.280   6.537
18046WAT      O54379   0.145   3.745   1.258
18046WAT     H154380   0.052   3.776   1.278
18046WAT     H254381   0.192   3.723   1.344
18047WAT      O54382   7.902   9.045   5.076
18047WAT     H154383   7.954   8.984   5.017
18047WAT     H254384   7.841   9.101   5.020
18048WAT      O54385   4.144   3.257   0.890
18048WAT     H154386   4.133   3.345   0.936
18048WAT     H254387   4.054   3.224   0.860
18049WAT      O54388   0.460   1.421   9.435
18049WAT     H154389   0.423   1.374   9.355
18049WAT     H254390   0.384   1.448   9.495
18050WAT      O54391   7.717   6.654   6.697
18050WAT     H154392   7.648   6.601   6.745
18050WAT     H254393   7.691   6.664   6.601
18051WAT      O54394   1.723   8.100   9.291
18051WAT     H154395   1.715   8.087   9.192
18051WAT     H254396   1.666   8.034   9.339
18052WAT      O54397   5.654   0.638   1.995
18052WAT     H154398   5.703   0.683   1.921
18052WAT     H254399   5.719   0.587   2.052
18053WAT      O54400   2.381   7.802   8.702
18053WAT     H154401   2.374   7.818   8.604
18053WAT     H254402   2.456   7.856   8.740
18054WAT      O54403   2.304   5.891   8.747
18054WAT     H154404   2.241   5.940   8.688
18054WAT     H254405   2.257   5.863   8.831
18055WAT      O54406   2.396   7.686   4.738
18055WAT     H154407   2.469   7.737   4.782
18055WAT     H254408   2.329   7.656   4.807
18056WAT      O54409   2.602   0.686   8.179
18056WAT     H154410   2.599   0.740   8.264
18056WAT     H254411   2.509   0.655   8.157
18057WAT      O54412   1.807   6.651   4.919
18057WAT     H154413   1.831   6.738   4.876
18057WAT     H254414   1.754   6.595   4.856
18058WAT      O54415   4.012   9.217   9.158
18058WAT     H154416   3.927   9.212   9.106
18058WAT     H254417   4.043   9.124   9.180
18059WAT      O54418   2.276   4.864   0.995
18059WAT     H154419   2.311   4.880   1.087
18059WAT     H254420   2.349   4.878   0.929
18060WAT      O54421   7.262   6.614   2.226
18060WAT     H154422   7.188   6.612   2.294
18060WAT     H254423   7.226   6.587   2.137
18061WAT      O54424   9.640   9.216   4.316
18061WAT     H154425   9.734   9.242   4.296
18061WAT     H254426   9.579   9.251   4.245
18062WAT      O54427   7.640   8.222   0.972
18062WAT     H154428   7.739   8.233   0.979
18062WAT     H254429   7.596   8.278   1.042
18063WAT      O54430   7.883   7.041   3.298
18063WAT     H154431   7.926   7.028   3.387
18063WAT     H254432   7.808   6.976   3.287
18064WAT      O54433   4.665   4.418   6.860
18064WAT     H154434   4.591   4.394   6.797
18064WAT     H254435   4.696   4.511   6.842
18065WAT      O54436   9.714   1.963   6.176
18065WAT     H154437   9.729   2.061   6.165
18065WAT     H254438   9.629   1.937   6.131
18066WAT      O54439   3.878   6.039   4.309
18066WAT     H154440   3.899   5.958   4.364
18066WAT     H254441   3.855   6.011   4.216
18067WAT      O54442   4.403   7.900   6.637
18067WAT     H154443   4.404   7.801   6.647
18067WAT     H254444   4.376   7.942   6.724
18068WAT      O54445   2.636   0.318   5.893
18068WAT     H154446   2.649   0.261   5.813
18068WAT     H254447   2.653   0.265   5.976
18069WAT      O54448   1.294   3.393   6.460
18069WAT     H154449   1.381   3.426   6.422
18069WAT     H254450   1.299   3.294   6.471
18070WAT      O54451   6.804   7.627   6.110
18070WAT     H154452   6.788   7.565   6.186
18070WAT     H254453   6.872   7.696   6.137
18071WAT      O54454   2.411   3.833   8.576
18071WAT     H154455   2.474   3.870   8.644
18071WAT     H254456   2.317   3.838   8.611
18072WAT      O54457   9.763   9.451   1.671
18072WAT     H154458   9.844   9.510   1.679
18072WAT     H254459   9.742   9.411   1.761
18073WAT      O54460   1.900   9.071   5.719
18073WAT     H154461   1.927   9.105   5.629
18073WAT     H254462   1.855   8.983   5.709
18074WAT      O54463   5.846   9.589   1.916
18074WAT     H154464   5.749   9.588   1.893
18074WAT     H254465   5.873   9.681   1.944
18075WAT      O54466   1.486   7.102   4.464
18075WAT     H154467   1.488   7.097   4.364
18075WAT     H254468   1.414   7.165   4.492
18076WAT      O54469   5.213   0.203   6.743
18076WAT     H154470   5.258   0.274   6.687
18076WAT     H254471   5.129   0.240   6.782
18077WAT      O54472   4.294   5.765   7.499
18077WAT     H154473   4.315   5.718   7.585
18077WAT     H254474   4.322   5.861   7.507
18078WAT      O54475   9.765   1.076   1.646
18078WAT     H154476   9.668   1.069   1.671
18078WAT     H254477   9.805   0.985   1.642
18079WAT      O54478   8.304   4.217   8.034
18079WAT     H154479   8.355   4.292   7.992
18079WAT     H254480   8.212   4.249   8.058
18080WAT      O54481   9.731   6.990   3.045
18080WAT     H154482   9.790   6.910   3.032
18080WAT     H254483   9.715   7.034   2.956
18081WAT      O54484   6.041   4.495   4.909
18081WAT     H154485   6.065   4.568   4.972
18081WAT     H254486   6.121   4.436   4.893
18082WAT      O54487   2.223   1.975   3.129
18082WAT     H154488   2.281   1.910   3.081
18082WAT     H254489   2.150   1.927   3.177
18083WAT      O54490   1.136   4.976   0.620
18083WAT     H154491   1.156   4.886   0.582
18083WAT     H254492   1.055   5.014   0.575
18084WAT      O54493   1.177   6.992   8.445
18084WAT     H154494   1.193   7.015   8.349
18084WAT     H254495   1.140   6.899   8.452
18085WAT      O54496   6.008   4.424   0.547
18085WAT     H154497   6.034   4.335   0.512
18085WAT     H254498   5.921   4.417   0.596
18086WAT      O54499   1.679   9.313   4.196
18086WAT     H154500   1.677   9.307   4.096
18086WAT     H254501   1.759   9.264   4.230
18087WAT      O54502   6.301   0.749   6.542
18087WAT     H154503   6.220   0.790   6.583
18087WAT     H254504   6.325   0.799   6.459
18088WAT      O54505   5.875   4.806   4.013
18088WAT     H154506   5.912   4.888   3.970
18088WAT     H254507   5.780   4.822   4.039
18089WAT      O54508   5.175   9.612   6.462
18089WAT     H154509   5.213   9.549   6.530
18089WAT     H254510   5.076   9.618   6.475
18090WAT      O54511   6.958   1.402   6.015
18090WAT     H154512   6.916   1.312   6.007
18090WAT     H254513   6.896   1.464   6.064
18091WAT      O54514   7.843   6.801   8.094
18091WAT     H154515   7.833   6.862   8.015
18091WAT     H254516   7.814   6.709   8.069
18092WAT      O54517   7.125   2.232   0.275
18092WAT     H154518   7.046   2.260   0.330
18092WAT     H254519   7.202   2.211   0.336
18093WAT      O54520   9.351   7.185   5.953
18093WAT     H154521   9.351   7.278   5.989
18093WAT     H254522   9.261   7.144   5.968
18094WAT      O54523   0.629   0.187   4.862
18094WAT     H154524   0.696   0.133   4.915
18094WAT     H254525   0.629   0.281   4.895
18095WAT      O54526   9.516   5.227   0.662
18095WAT     H154527   9.459   5.306   0.640
18095WAT     H254528   9.597   5.226   0.604
18096WAT      O54529   6.205   1.610   1.968
18096WAT     H154530   6.141   1.668   2.019
18096WAT     H254531   6.203   1.635   1.872
18097WAT      O54532   3.135   8.974   6.738
18097WAT     H154533   3.070   8.906   6.771
18097WAT     H254534   3.098   9.066   6.753
18098WAT      O54535   7.848   0.422   6.434
18098WAT     H154536   7.869   0.405   6.531
18098WAT     H254537   7.788   0.501   6.426
18099WAT      O54538   4.651   4.169   7.375
18099WAT     H154539   4.613   4.257   7.402
18099WAT     H254540   4.668   4.113   7.456
18100WAT      O54541   0.657   1.281   0.077
18100WAT     H154542   0.748   1.313   0.054
18100WAT     H254543   0.595   1.301   0.001
18101WAT      O54544   2.512   2.861   8.113
18101WAT     H154545   2.553   2.887   8.201
18101WAT     H254546   2.414   2.846   8.125
18102WAT      O54547   1.752   2.244   0.883
18102WAT     H154548   1.660   2.279   0.901
18102WAT     H254549   1.775   2.175   0.952
18103WAT      O54550   6.031   4.100   2.207
18103WAT     H154551   6.077   4.173   2.257
18103WAT     H254552   6.099   4.036   2.172
18104WAT      O54553   0.968   2.708   3.926
18104WAT     H154554   1.015   2.698   3.838
18104WAT     H254555   0.906   2.631   3.939
18105WAT      O54556   2.436   1.958   6.647
18105WAT     H154557   2.408   1.971   6.742
18105WAT     H254558   2.443   1.860   6.628
18106WAT      O54559   7.085   3.968   7.643
18106WAT     H154560   7.094   3.868   7.637
18106WAT     H254561   7.161   4.011   7.594
18107WAT      O54562   5.549   3.829   4.642
18107WAT     H154563   5.624   3.777   4.683
18107WAT     H254564   5.467   3.819   4.698
18108WAT      O54565   0.622   8.252   2.529
18108WAT     H154566   0.715   8.260   2.563
18108WAT     H254567   0.574   8.181   2.581
18109WAT      O54568   4.774   0.196   7.425
18109WAT     H154569   4.731   0.199   7.335
18109WAT     H254570   4.825   0.280   7.441
18110WAT      O54571   2.486   0.122   7.964
18110WAT     H154572   2.402   0.093   7.919
18110WAT     H254573   2.463   0.166   8.051
18111WAT      O54574   8.631   8.145   0.150
18111WAT     H154575   8.646   8.224   0.209
18111WAT     H254576   8.600   8.177   0.060
18112WAT      O54577   4.921   6.702   1.003
18112WAT     H154578   4.860   6.704   1.083
18112WAT     H254579   4.991   6.772   1.013
18113WAT      O54580   0.297   3.986   8.605
18113WAT     H154581   0.243   4.018   8.683
18113WAT     H254582   0.244   3.917   8.554
18114WAT      O54583   6.768   2.637   0.795
18114WAT     H154584   6.673   2.649   0.822
18114WAT     H254585   6.774   2.629   0.695
18115WAT      O54586   6.965   0.688   7.073
18115WAT     H154587   6.921   0.676   6.984
18115WAT     H254588   6.990   0.784   7.085
18116WAT      O54589   3.297   6.164   6.581
18116WAT     H154590   3.229   6.093   6.599
18116WAT     H254591   3.250   6.247   6.552
18117WAT      O54592   4.892   1.338   7.329
18117WAT     H154593   4.814   1.293   7.372
18117WAT     H254594   4.923   1.283   7.251
18118WAT      O54595   1.338   3.898   5.958
18118WAT     H154596   1.412   3.897   5.890
18118WAT     H254597   1.377   3.903   6.050
18119WAT      O54598   2.911   6.002   6.438
18119WAT     H154599   2.846   6.073   6.466
18119WAT     H254600   2.882   5.915   6.478
18120WAT      O54601   2.977   1.686   4.881
18120WAT     H154602   3.025   1.770   4.853
18120WAT     H254603   2.934   1.700   4.970
18121WAT      O54604   3.601   0.945   0.869
18121WAT     H154605   3.681   0.972   0.922
18121WAT     H254606   3.618   0.964   0.772
18122WAT      O54607   1.454   9.354   7.656
18122WAT     H154608   1.433   9.263   7.620
18122WAT     H254609   1.383   9.419   7.625
18123WAT      O54610   0.793   1.353   2.448
18123WAT     H154611   0.846   1.438   2.451
18123WAT     H254612   0.840   1.283   2.503
18124WAT      O54613   0.910   7.337   6.385
18124WAT     H154614   0.925   7.278   6.306
18124WAT     H254615   0.880   7.427   6.354
18125WAT      O54616   4.149   5.874   1.857
18125WAT     H154617   4.206   5.856   1.937
18125WAT     H254618   4.129   5.787   1.811
18126WAT      O54619   9.491   2.997   0.862
18126WAT     H154620   9.428   2.930   0.824
18126WAT     H254621   9.441   3.058   0.924
18127WAT      O54622   9.505   7.115   8.348
18127WAT     H154623   9.448   7.033   8.339
18127WAT     H254624   9.526   7.151   8.258
18128WAT      O54625   2.617   9.046   1.875
18128WAT     H154626   2.629   9.145   1.883
18128WAT     H254627   2.701   9.004   1.841
18129WAT      O54628   0.102   4.001   8.914
18129WAT     H154629   0.019   4.030   8.962
18129WAT     H254630   0.113   4.055   8.831
18130WAT      O54631   8.980   0.089   0.186
18130WAT     H154632   8.920   0.112   0.262
18130WAT     H254633   8.987  -0.010   0.177
18131WAT      O54634   9.235   1.125   7.724
18131WAT     H154635   9.211   1.189   7.797
18131WAT     H254636   9.164   1.127   7.654
18132WAT      O54637   8.338   1.571   5.326
18132WAT     H154638   8.356   1.630   5.247
18132WAT     H254639   8.277   1.497   5.299
18133WAT      O54640   7.541   0.480   8.959
18133WAT     H154641   7.465   0.427   8.997
18133WAT     H254642   7.553   0.457   8.863
18134WAT      O54643   2.635   8.780   6.922
18134WAT     H154644   2.588   8.790   6.834
18134WAT     H254645   2.657   8.683   6.937
18135WAT      O54646   0.561   2.430   4.665
18135WAT     H154647   0.591   2.342   4.629
18135WAT     H254648   0.479   2.459   4.616
18136WAT      O54649   3.747   6.078   7.902
18136WAT     H154650   3.842   6.048   7.886
18136WAT     H254651   3.733   6.093   8.000
18137WAT      O54652   7.251   0.543   5.395
18137WAT     H154653   7.331   0.579   5.444
18137WAT     H254654   7.202   0.479   5.455
18138WAT      O54655   2.824   7.056   9.458
18138WAT     H154656   2.884   7.092   9.530
18138WAT     H254657   2.739   7.024   9.500
18139WAT      O54658   9.208   7.315   5.131
18139WAT     H154659   9.267   7.234   5.131
18139WAT     H254660   9.264   7.396   5.113
18140WAT      O54661   4.092   0.043   5.960
18140WAT     H154662   4.150   0.050   5.878
18140WAT     H254663   4.144   0.071   6.040
18141WAT      O54664   9.454   5.391   6.471
18141WAT     H154665   9.545   5.409   6.434
18141WAT     H254666   9.461   5.333   6.552
18142WAT      O54667   7.781   7.641   8.540
18142WAT     H154668   7.708   7.705   8.563
18142WAT     H254669   7.845   7.634   8.617
18143WAT      O54670   3.096   9.583   8.237
18143WAT     H154671   3.159   9.657   8.261
18143WAT     H254672   3.149   9.500   8.218
18144WAT      O54673   9.146   0.722   2.851
18144WAT     H154674   9.243   0.747   2.850
18144WAT     H254675   9.135   0.630   2.888
18145WAT      O54676   0.550   0.046   2.187
18145WAT     H154677   0.595   0.125   2.228
18145WAT     H254678   0.584  -0.038   2.229
18146WAT      O54679   9.053   7.423   3.210
18146WAT     H154680   9.100   7.366   3.276
18146WAT     H254681   8.967   7.457   3.249
18147WAT      O54682   7.753   6.336   3.742
18147WAT     H154683   7.719   6.429   3.757
18147WAT     H254684   7.846   6.341   3.705
18148WAT      O54685   4.605   2.232   8.648
18148WAT     H154686   4.517   2.184   8.643
18148WAT     H254687   4.593   2.326   8.618
18149WAT      O54688   2.946   8.490   8.486
18149WAT     H154689   3.018   8.542   8.441
18149WAT     H254690   2.937   8.520   8.580
18150WAT      O54691   2.478   5.926   6.595
18150WAT     H154692   2.385   5.913   6.559
18150WAT     H254693   2.519   5.838   6.617
18151WAT      O54694   4.280   6.169   1.492
18151WAT     H154695   4.375   6.165   1.463
18151WAT     H254696   4.267   6.109   1.571
18152WAT      O54697   3.471   8.250   4.543
18152WAT     H154698   3.412   8.220   4.618
18152WAT     H254699   3.518   8.334   4.569
18153WAT      O54700   4.827   9.739   8.859
18153WAT     H154701   4.751   9.795   8.891
18153WAT     H254702   4.853   9.768   8.767
18154WAT      O54703   4.137   4.352   4.995
18154WAT     H154704   4.212   4.351   4.929
18154WAT     H254705   4.073   4.425   4.972
18155WAT      O54706   4.977   9.407   3.661
18155WAT     H154707   4.923   9.482   3.623
18155WAT     H254708   4.916   9.337   3.697
18156WAT      O54709   3.362   3.617   5.435
18156WAT     H154710   3.320   3.670   5.361
18156WAT     H254711   3.443   3.666   5.469
18157WAT      O54712   4.519   8.800   6.164
18157WAT     H154713   4.569   8.884   6.149
18157WAT     H254714   4.557   8.752   6.244
18158WAT      O54715   0.312   9.084   3.872
18158WAT     H154716   0.399   9.087   3.824
18158WAT     H254717   0.265   8.998   3.851
18159WAT      O54718   6.815   0.552   4.989
18159WAT     H154719   6.900   0.509   5.020
18159WAT     H254720   6.830   0.595   4.900
18160WAT      O54721   1.823   4.021   3.551
18160WAT     H154722   1.900   3.967   3.586
18160WAT     H254723   1.776   4.065   3.628
18161WAT      O54724   7.660   0.437   2.728
18161WAT     H154725   7.760   0.428   2.726
18161WAT     H254726   7.630   0.498   2.655
18162WAT      O54727   6.060   2.148   4.166
18162WAT     H154728   6.037   2.095   4.084
18162WAT     H254729   5.988   2.135   4.234
18163WAT      O54730   9.384   7.807   3.067
18163WAT     H154731   9.315   7.874   3.039
18163WAT     H254732   9.437   7.778   2.987
18164WAT      O54733   8.817   7.849   6.947
18164WAT     H154734   8.811   7.938   6.992
18164WAT     H254735   8.909   7.812   6.959
18165WAT      O54736   1.629   0.464   7.665
18165WAT     H154737   1.675   0.496   7.582
18165WAT     H254738   1.586   0.542   7.711
18166WAT      O54739   3.106   6.759   8.035
18166WAT     H154740   3.050   6.685   7.997
18166WAT     H254741   3.154   6.726   8.116
18167WAT      O54742   9.706   8.385   1.460
18167WAT     H154743   9.742   8.468   1.503
18167WAT     H254744   9.606   8.387   1.463
18168WAT      O54745   1.426   4.930   1.312
18168WAT     H154746   1.463   4.936   1.405
18168WAT     H254747   1.328   4.910   1.316
18169WAT      O54748   6.368   3.035   6.619
18169WAT     H154749   6.285   2.986   6.594
18169WAT     H254750   6.435   2.970   6.656
18170WAT      O54751   8.383   7.797   3.239
18170WAT     H154752   8.478   7.825   3.255
18170WAT     H254753   8.382   7.700   3.214
18171WAT      O54754   1.678   4.727   4.049
18171WAT     H154755   1.596   4.737   3.993
18171WAT     H254756   1.720   4.638   4.031
18172WAT      O54757   8.109   0.471   1.329
18172WAT     H154758   8.084   0.450   1.234
18172WAT     H254759   8.053   0.417   1.391
18173WAT      O54760   9.775   1.182   5.730
18173WAT     H154761   9.871   1.201   5.749
18173WAT     H254762   9.718   1.222   5.801
18174WAT      O54763   9.288   7.402   0.221
18174WAT     H154764   9.283   7.352   0.134
18174WAT     H254765   9.245   7.349   0.293
18175WAT      O54766   0.797   8.109   3.188
18175WAT     H154767   0.707   8.075   3.215
18175WAT     H254768   0.822   8.073   3.098
18176WAT      O54769   8.497   8.255   3.765
18176WAT     H154770   8.459   8.346   3.750
18176WAT     H254771   8.597   8.262   3.775
18177WAT      O54772   2.428   3.086   5.146
18177WAT     H154773   2.355   3.132   5.196
18177WAT     H254774   2.399   3.071   5.052
18178WAT      O54775   8.110   2.536   6.914
18178WAT     H154776   8.069   2.505   6.828
18178WAT     H254777   8.111   2.460   6.980
18179WAT      O54778   3.705   7.022   2.159
18179WAT     H154779   3.614   7.061   2.147
18179WAT     H254780   3.711   6.979   2.249
18180WAT      O54781   5.739   2.294   3.720
18180WAT     H154782   5.640   2.289   3.710
18180WAT     H254783   5.767   2.389   3.733
18181WAT      O54784   2.858   1.503   1.369
18181WAT     H154785   2.813   1.462   1.289
18181WAT     H254786   2.939   1.449   1.393
18182WAT      O54787   5.439   4.687   4.584
18182WAT     H154788   5.367   4.629   4.547
18182WAT     H254789   5.528   4.650   4.557
18183WAT      O54790   8.956   6.444   6.783
18183WAT     H154791   8.892   6.368   6.784
18183WAT     H254792   8.906   6.529   6.762
18184WAT      O54793   1.407   9.830   6.743
18184WAT     H154794   1.456   9.813   6.829
18184WAT     H254795   1.323   9.776   6.741
18185WAT      O54796   4.762   1.540   9.345
18185WAT     H154797   4.697   1.616   9.344
18185WAT     H254798   4.755   1.491   9.431
18186WAT      O54799   4.381   4.027   9.738
18186WAT     H154800   4.455   4.074   9.785
18186WAT     H254801   4.416   3.944   9.694
18187WAT      O54802   4.725   9.489   8.659
18187WAT     H154803   4.788   9.436   8.601
18187WAT     H254804   4.759   9.582   8.669
18188WAT      O54805   3.229   2.986   8.829
18188WAT     H154806   3.137   2.946   8.831
18188WAT     H254807   3.236   3.051   8.754
18189WAT      O54808   1.215   7.341   4.154
18189WAT     H154809   1.268   7.419   4.188
18189WAT     H254810   1.131   7.373   4.111
18190WAT      O54811   4.376   1.091   9.173
18190WAT     H154812   4.292   1.037   9.184
18190WAT     H254813   4.420   1.101   9.263
18191WAT      O54814   0.217   1.245   3.792
18191WAT     H154815   0.162   1.170   3.829
18191WAT     H254816   0.204   1.327   3.848
18192WAT      O54817   7.177   5.934   2.359
18192WAT     H154818   7.170   5.860   2.291
18192WAT     H254819   7.268   5.976   2.352
18193WAT      O54820   8.353   3.797   8.791
18193WAT     H154821   8.299   3.749   8.860
18193WAT     H254822   8.445   3.759   8.788
18194WAT      O54823   8.651   6.443   9.586
18194WAT     H154824   8.572   6.501   9.571
18194WAT     H254825   8.724   6.496   9.631
18195WAT      O54826   2.680   1.037   0.586
18195WAT     H154827   2.718   0.963   0.530
18195WAT     H254828   2.609   0.999   0.646
18196WAT      O54829   0.403   7.028   3.890
18196WAT     H154830   0.333   7.049   3.957
18196WAT     H254831   0.487   7.079   3.911
18197WAT      O54832   9.371   5.386   6.082
18197WAT     H154833   9.347   5.339   6.167
18197WAT     H254834   9.297   5.375   6.016
18198WAT      O54835   9.846   4.735   7.697
18198WAT     H154836   9.920   4.718   7.632
18198WAT     H254837   9.875   4.707   7.788
18199WAT      O54838   5.866   5.717   6.318
18199WAT     H154839   5.779   5.733   6.364
18199WAT     H254840   5.919   5.802   6.315
18200WAT      O54841   9.796   2.683   2.194
18200WAT     H154842   9.812   2.691   2.292
18200WAT     H254843   9.824   2.768   2.149
18201WAT      O54844   3.695   3.113   0.141
18201WAT     H154845   3.678   3.035   0.201
18201WAT     H254846   3.793   3.135   0.142
18202WAT      O54847   9.399   0.583   3.735
18202WAT     H154848   9.472   0.531   3.780
18202WAT     H254849   9.338   0.520   3.686
18203WAT      O54850   6.502   2.188   0.155
18203WAT     H154851   6.452   2.105   0.179
18203WAT     H254852   6.516   2.191   0.056
18204WAT      O54853   5.912   5.879   3.363
18204WAT     H154854   5.867   5.799   3.403
18204WAT     H254855   5.844   5.949   3.344
18205WAT      O54856   6.308   5.199   7.698
18205WAT     H154857   6.387   5.260   7.688
18205WAT     H254858   6.335   5.118   7.749
18206WAT      O54859   3.701   4.941   3.119
18206WAT     H154860   3.744   4.911   3.204
18206WAT     H254861   3.705   4.867   3.052
18207WAT      O54862   7.520   7.800   4.847
18207WAT     H154863   7.476   7.882   4.810
18207WAT     H254864   7.609   7.788   4.804
18208WAT      O54865   3.999   3.913   0.544
18208WAT     H154866   4.066   3.931   0.616
18208WAT     H254867   4.043   3.918   0.454
18209WAT      O54868   2.896   1.786   3.543
18209WAT     H154869   2.858   1.786   3.635
18209WAT     H254870   2.867   1.868   3.494
18210WAT      O54871   2.776   3.593   4.567
18210WAT     H154872   2.759   3.510   4.514
18210WAT     H254873   2.873   3.597   4.592
18211WAT      O54874   3.162   5.743   2.634
18211WAT     H154875   3.098   5.736   2.711
18211WAT     H254876   3.124   5.805   2.565
18212WAT      O54877   7.557   5.586   0.908
18212WAT     H154878   7.467   5.548   0.931
18212WAT     H254879   7.563   5.597   0.809
18213WAT      O54880   1.925   7.443   1.756
18213WAT     H154881   1.950   7.470   1.849
18213WAT     H254882   1.834   7.477   1.734
18214WAT      O54883   6.604   0.331   1.106
18214WAT     H154884   6.666   0.303   1.033
18214WAT     H254885   6.594   0.430   1.105
18215WAT      O54886   3.513   6.586   1.840
18215WAT     H154887   3.514   6.524   1.761
18215WAT     H254888   3.562   6.670   1.816
18216WAT      O54889   0.217   2.810   4.221
18216WAT     H154890   0.123   2.785   4.195
18216WAT     H254891   0.278   2.735   4.198
18217WAT      O54892   8.771   9.815   4.625
18217WAT     H154893   8.723   9.793   4.710
18217WAT     H254894   8.741   9.905   4.593
18218WAT      O54895   8.105   4.807   9.671
18218WAT     H154896   8.052   4.891   9.665
18218WAT     H254897   8.044   4.728   9.676
18219WAT      O54898   9.013   8.038   9.580
18219WAT     H154899   9.080   8.098   9.536
18219WAT     H254900   8.930   8.034   9.524
18220WAT      O54901   6.044   6.668   9.132
18220WAT     H154902   5.955   6.714   9.134
18220WAT     H254903   6.101   6.710   9.061
18221WAT      O54904   0.353   0.700   9.017
18221WAT     H154905   0.286   0.626   9.015
18221WAT     H254906   0.439   0.669   8.976
18222WAT      O54907   7.414   6.288   2.866
18222WAT     H154908   7.348   6.295   2.791
18222WAT     H254909   7.498   6.335   2.841
18223WAT      O54910   5.558   7.437   4.913
18223WAT     H154911   5.560   7.337   4.919
18223WAT     H254912   5.650   7.471   4.895
18224WAT      O54913   8.569   8.493   5.122
18224WAT     H154914   8.653   8.445   5.146
18224WAT     H254915   8.528   8.530   5.205
18225WAT      O54916   9.536   0.366   6.183
18225WAT     H154917   9.596   0.395   6.258
18225WAT     H254918   9.592   0.337   6.105
18226WAT      O54919   3.194   3.621   2.466
18226WAT     H154920   3.101   3.601   2.434
18226WAT     H254921   3.251   3.540   2.455
18227WAT      O54922   5.444   0.006   0.014
18227WAT     H154923   5.511  -0.016  -0.057
18227WAT     H254924   5.384   0.079  -0.018
18228WAT      O54925   6.298   0.848   3.026
18228WAT     H154926   6.258   0.757   3.031
18228WAT     H254927   6.282   0.886   2.934
18229WAT      O54928   7.831   0.239   9.010
18229WAT     H154929   7.733   0.231   8.994
18229WAT     H254930   7.848   0.302   9.085
18230WAT      O54931   4.290   9.545   2.920
18230WAT     H154932   4.375   9.529   2.869
18230WAT     H254933   4.231   9.465   2.912
18231WAT      O54934   6.036   3.964   7.141
18231WAT     H154935   6.085   3.892   7.093
18231WAT     H254936   6.093   4.002   7.213
18232WAT      O54937   3.913   2.281   0.609
18232WAT     H154938   3.891   2.210   0.542
18232WAT     H254939   3.870   2.259   0.696
18233WAT      O54940   1.937   0.818   6.360
18233WAT     H154941   1.883   0.858   6.434
18233WAT     H254942   1.882   0.815   6.276
18234WAT      O54943   5.947   0.586   4.484
18234WAT     H154944   6.033   0.603   4.435
18234WAT     H254945   5.871   0.624   4.432
18235WAT      O54946   0.331   8.731   4.930
18235WAT     H154947   0.404   8.719   4.998
18235WAT     H254948   0.275   8.648   4.926
18236WAT      O54949   3.952   2.065   8.597
18236WAT     H154950   3.896   2.011   8.661
18236WAT     H254951   3.946   2.024   8.506
18237WAT      O54952   4.498   9.266   1.950
18237WAT     H154953   4.510   9.360   1.917
18237WAT     H254954   4.408   9.256   1.991
18238WAT      O54955   0.416   8.722   2.090
18238WAT     H154956   0.333   8.695   2.042
18238WAT     H254957   0.397   8.735   2.187
18239WAT      O54958   7.277   5.206   4.676
18239WAT     H154959   7.201   5.142   4.661
18239WAT     H254960   7.351   5.183   4.613
18240WAT      O54961   5.355   7.968   2.735
18240WAT     H154962   5.260   7.996   2.753
18240WAT     H254963   5.356   7.893   2.670
18241WAT      O54964   5.239   7.584   6.851
18241WAT     H154965   5.165   7.644   6.883
18241WAT     H254966   5.230   7.495   6.895
18242WAT      O54967   6.546   1.769   9.439
18242WAT     H154968   6.503   1.679   9.446
18242WAT     H254969   6.544   1.814   9.528
18243WAT      O54970   9.359   1.359   6.990
18243WAT     H154971   9.401   1.372   6.900
18243WAT     H254972   9.291   1.431   7.006
18244WAT      O54973   7.930   0.048   6.438
18244WAT     H154974   8.003   0.057   6.506
18244WAT     H254975   7.965   0.075   6.348
18245WAT      O54976   5.619   7.412   0.853
18245WAT     H154977   5.638   7.485   0.787
18245WAT     H254978   5.639   7.445   0.945
18246WAT      O54979   8.600   1.275   2.293
18246WAT     H154980   8.693   1.286   2.257
18246WAT     H254981   8.557   1.196   2.250
18247WAT      O54982   9.050   8.057   4.694
18247WAT     H154983   8.982   8.047   4.622
18247WAT     H254984   9.016   8.015   4.778
18248WAT      O54985   1.289   5.518   7.966
18248WAT     H154986   1.282   5.533   7.868
18248WAT     H254987   1.293   5.606   8.014
18249WAT      O54988   7.434   1.804   2.488
18249WAT     H154989   7.450   1.710   2.517
18249WAT     H254990   7.341   1.832   2.514
18250WAT      O54991   7.616   5.459   6.322
18250WAT     H154992   7.518   5.450   6.341
18250WAT     H254993   7.668   5.419   6.397
18251WAT      O54994   9.173   6.660   1.243
18251WAT     H154995   9.224   6.745   1.254
18251WAT     H254996   9.219   6.586   1.292
18252WAT      O54997   2.830   9.529   0.330
18252WAT     H154998   2.839   9.434   0.300
18252WAT     H254999   2.768   9.533   0.409
18253WAT      O55000   0.538   6.533   1.786
18253WAT     H155001   0.577   6.444   1.761
18253WAT     H255002   0.487   6.570   1.708
18254WAT      O55003   4.192   2.570   5.135
18254WAT     H155004   4.280   2.586   5.178
18254WAT     H255005   4.139   2.505   5.190
18255WAT      O55006   0.285   7.215   2.446
18255WAT     H155007   0.355   7.159   2.401
18255WAT     H255008   0.221   7.250   2.377
18256WAT      O55009   3.864   5.316   4.110
18256WAT     H155010   3.803   5.322   4.189
18256WAT     H255011   3.958   5.299   4.142
18257WAT      O55012   4.736   0.434   0.396
18257WAT     H155013   4.823   0.481   0.408
18257WAT     H255014   4.670   0.468   0.463
18258WAT      O55015   3.893   6.208   1.401
18258WAT     H155016   3.975   6.193   1.345
18258WAT     H255017   3.916   6.193   1.498
18259WAT      O55018   3.299   8.838   0.173
18259WAT     H155019   3.317   8.758   0.230
18259WAT     H255020   3.305   8.920   0.229
18260WAT      O55021   8.410   8.481   9.740
18260WAT     H155022   8.482   8.413   9.754
18260WAT     H255023   8.390   8.526   9.827
18261WAT      O55024   3.086   4.699   5.775
18261WAT     H155025   3.076   4.782   5.720
18261WAT     H255026   2.999   4.676   5.817
18262WAT      O55027   2.270   7.970   9.453
18262WAT     H155028   2.342   7.972   9.522
18262WAT     H255029   2.196   7.911   9.484
18263WAT      O55030   9.117   1.320   9.791
18263WAT     H155031   9.160   1.336   9.702
18263WAT     H255032   9.085   1.407   9.828
18264WAT      O55033   2.699   6.469   6.724
18264WAT     H155034   2.774   6.424   6.772
18264WAT     H255035   2.711   6.458   6.626
18265WAT      O55036   5.601   8.726   9.779
18265WAT     H155037   5.686   8.738   9.727
18265WAT     H255038   5.571   8.814   9.815
18266WAT      O55039   4.172   1.091   9.733
18266WAT     H155040   4.224   1.063   9.653
18266WAT     H255041   4.175   1.191   9.742
18267WAT      O55042   8.241   2.477   7.862
18267WAT     H155043   8.236   2.488   7.961
18267WAT     H255044   8.326   2.517   7.827
18268WAT      O55045   2.070   7.295   2.703
18268WAT     H155046   1.973   7.293   2.726
18268WAT     H255047   2.095   7.209   2.658
18269WAT      O55048   6.252   0.899   4.212
18269WAT     H155049   6.258   0.836   4.135
18269WAT     H255050   6.158   0.902   4.246
18270WAT      O55051   5.312   5.612   7.926
18270WAT     H155052   5.293   5.538   7.861
18270WAT     H255053   5.226   5.645   7.965
18271WAT      O55054   5.177   1.488   9.044
18271WAT     H155055   5.130   1.566   9.002
18271WAT     H255056   5.174   1.498   9.144
18272WAT      O55057   5.757   0.016   2.278
18272WAT     H155058   5.838   0.071   2.299
18272WAT     H255059   5.730   0.030   2.183
18273WAT      O55060   7.130   9.131   5.564
18273WAT     H155061   7.046   9.088   5.597
18273WAT     H255062   7.198   9.061   5.543
18274WAT      O55063   2.213   4.666   5.096
18274WAT     H155064   2.253   4.585   5.138
18274WAT     H255065   2.267   4.747   5.119
18275WAT      O55066   0.401   1.454   6.457
18275WAT     H155067   0.442   1.539   6.422
18275WAT     H255068   0.424   1.379   6.395
18276WAT      O55069   0.634   6.636   3.155
18276WAT     H155070   0.541   6.604   3.134
18276WAT     H255071   0.640   6.661   3.251
18277WAT      O55072   6.002   3.187   2.596
18277WAT     H155073   6.102   3.197   2.593
18277WAT     H255074   5.961   3.251   2.531
18278WAT      O55075   2.359   6.737   9.372
18278WAT     H155076   2.319   6.780   9.291
18278WAT     H255077   2.458   6.751   9.373
18279WAT      O55078   5.117   0.077   0.886
18279WAT     H155079   5.069   0.141   0.825
18279WAT     H255080   5.094  -0.017   0.860
18280WAT      O55081   7.842   8.654   9.150
18280WAT     H155082   7.848   8.726   9.220
18280WAT     H255083   7.754   8.661   9.103
18281WAT      O55084   4.626   5.066   1.075
18281WAT     H155085   4.631   5.137   1.004
18281WAT     H255086   4.579   4.986   1.039
18282WAT      O55087   4.398   6.589   2.120
18282WAT     H155088   4.478   6.530   2.109
18282WAT     H255089   4.424   6.670   2.173
18283WAT      O55090   5.705   1.472   4.205
18283WAT     H155091   5.801   1.500   4.194
18283WAT     H255092   5.646   1.552   4.194
18284WAT      O55093   9.232   9.069   2.557
18284WAT     H155094   9.155   9.031   2.609
18284WAT     H255095   9.308   9.005   2.559
18285WAT      O55096   9.883   6.181   7.291
18285WAT     H155097   9.860   6.126   7.211
18285WAT     H255098   9.937   6.260   7.263
18286WAT      O55099   3.493   9.674   6.003
18286WAT     H155100   3.518   9.771   5.998
18286WAT     H255101   3.402   9.665   6.044
18287WAT      O55102   4.683   6.307   7.245
18287WAT     H155103   4.612   6.267   7.302
18287WAT     H255104   4.772   6.300   7.291
18288WAT      O55105   1.080   9.187   3.635
18288WAT     H155106   1.111   9.261   3.695
18288WAT     H255107   1.094   9.214   3.540
18289WAT      O55108   4.932   8.112   4.546
18289WAT     H155109   4.921   8.146   4.639
18289WAT     H255110   4.860   8.045   4.526
18290WAT      O55111   8.056   9.824   2.221
18290WAT     H155112   8.117   9.767   2.166
18290WAT     H255113   7.993   9.873   2.161
18291WAT      O55114   4.699   6.121   2.012
18291WAT     H155115   4.780   6.096   2.066
18291WAT     H255116   4.726   6.185   1.940
18292WAT      O55117   8.854   1.217   9.734
18292WAT     H155118   8.821   1.123   9.742
18292WAT     H255119   8.934   1.229   9.792
18293WAT      O55120   9.042   1.149   2.800
18293WAT     H155121   9.114   1.085   2.773
18293WAT     H255122   8.959   1.128   2.749
18294WAT      O55123   9.577   2.981   7.980
18294WAT     H155124   9.557   3.039   8.059
18294WAT     H255125   9.577   2.885   8.009
18295WAT      O55126   7.842   0.628   9.022
18295WAT     H155127   7.753   0.673   9.036
18295WAT     H255128   7.834   0.531   9.045
18296WAT      O55129   5.849   2.689   2.869
18296WAT     H155130   5.850   2.685   2.769
18296WAT     H255131   5.889   2.775   2.899
18297WAT      O55132   3.684   1.037   6.656
18297WAT     H155133   3.590   1.047   6.689
18297WAT     H255134   3.747   1.058   6.731
18298WAT      O55135   7.106   4.599   3.451
18298WAT     H155136   7.080   4.609   3.355
18298WAT     H255137   7.113   4.690   3.493
18299WAT      O55138   7.248   6.844   9.851
18299WAT     H155139   7.193   6.802   9.779
18299WAT     H255140   7.345   6.834   9.828
18300WAT      O55141   7.813   3.373   7.448
18300WAT     H155142   7.827   3.274   7.438
18300WAT     H255143   7.716   3.392   7.463
18301WAT      O55144   7.223   7.222   3.576
18301WAT     H155145   7.201   7.225   3.478
18301WAT     H255146   7.313   7.263   3.591
18302WAT      O55147   5.842   9.352   2.716
18302WAT     H155148   5.751   9.394   2.720
18302WAT     H255149   5.903   9.401   2.779
18303WAT      O55150   3.645   9.408   1.849
18303WAT     H155151   3.679   9.499   1.871
18303WAT     H255152   3.604   9.368   1.931
18304WAT      O55153   6.094   7.424   7.635
18304WAT     H155154   6.050   7.477   7.562
18304WAT     H255155   6.182   7.466   7.658
18305WAT      O55156   8.655   9.329   3.989
18305WAT     H155157   8.715   9.293   3.917
18305WAT     H255158   8.608   9.410   3.955
18306WAT      O55159   1.533   2.208   0.467
18306WAT     H155160   1.471   2.284   0.487
18306WAT     H255161   1.583   2.228   0.383
18307WAT      O55162   0.057   8.543   6.233
18307WAT     H155163   0.088   8.629   6.273
18307WAT     H255164   0.027   8.481   6.307
18308WAT      O55165   2.161   9.840   9.059
18308WAT     H155166   2.120   9.758   9.100
18308WAT     H255167   2.139   9.843   8.961
18309WAT      O55168   2.901   2.675   2.019
18309WAT     H155169   2.928   2.579   2.009
18309WAT     H255170   2.899   2.719   1.929
18310WAT      O55171   0.947   5.165   9.594
18310WAT     H155172   0.919   5.191   9.502
18310WAT     H255173   1.042   5.132   9.592
18311WAT      O55174   7.731   3.440   5.700
18311WAT     H155175   7.685   3.395   5.623
18311WAT     H255176   7.663   3.488   5.756
18312WAT      O55177   3.344   0.303   3.969
18312WAT     H155178   3.248   0.313   3.992
18312WAT     H255179   3.379   0.388   3.930
18313WAT      O55180   1.104   7.837   4.009
18313WAT     H155181   1.067   7.767   4.071
18313WAT     H255182   1.187   7.876   4.047
18314WAT      O55183   5.330   6.916   2.843
18314WAT     H155184   5.295   6.929   2.936
18314WAT     H255185   5.381   6.997   2.816
18315WAT      O55186   8.231   4.547   1.736
18315WAT     H155187   8.262   4.638   1.761
18315WAT     H255188   8.311   4.487   1.726
18316WAT      O55189   6.349   4.896   3.299
18316WAT     H155190   6.335   4.957   3.378
18316WAT     H255191   6.425   4.834   3.319
18317WAT      O55192   8.851   2.053   3.621
18317WAT     H155193   8.780   2.056   3.551
18317WAT     H255194   8.814   2.085   3.708
18318WAT      O55195   9.279   5.110   9.155
18318WAT     H155196   9.256   5.135   9.061
18318WAT     H255197   9.280   5.011   9.164
18319WAT      O55198   6.847   1.033   8.335
18319WAT     H155199   6.818   1.083   8.253
18319WAT     H255200   6.934   0.987   8.318
18320WAT      O55201   6.377   4.142   1.903
18320WAT     H155202   6.374   4.069   1.971
18320WAT     H255203   6.310   4.212   1.927
18321WAT      O55204   7.354   1.906   1.206
18321WAT     H155205   7.399   1.970   1.268
18321WAT     H255206   7.261   1.938   1.187
18322WAT      O55207   9.056   1.813   1.374
18322WAT     H155208   9.105   1.730   1.399
18322WAT     H255209   9.076   1.885   1.441
18323WAT      O55210   8.431   7.461   2.595
18323WAT     H155211   8.384   7.374   2.605
18323WAT     H255212   8.442   7.481   2.497
18324WAT      O55213   9.488   0.452   7.205
18324WAT     H155214   9.506   0.521   7.276
18324WAT     H255215   9.488   0.495   7.115
18325WAT      O55216   3.335   0.231   1.089
18325WAT     H155217   3.401   0.286   1.039
18325WAT     H255218   3.274   0.185   1.024
18326WAT      O55219   4.759   4.683   1.056
18326WAT     H155220   4.757   4.781   1.075
18326WAT     H255221   4.706   4.664   0.974
18327WAT      O55222   6.716   3.908   4.586
18327WAT     H155223   6.648   3.982   4.584
18327WAT     H255224   6.729   3.878   4.681
18328WAT      O55225   5.414   3.178   6.396
18328WAT     H155226   5.443   3.088   6.362
18328WAT     H255227   5.411   3.177   6.496
18329WAT      O55228   5.863   6.017   1.828
18329WAT     H155229   5.875   6.108   1.789
18329WAT     H255230   5.782   6.017   1.887
18330WAT      O55231   7.416   1.562   4.955
18330WAT     H155232   7.390   1.471   4.988
18330WAT     H255233   7.462   1.612   5.028
18331WAT      O55234   0.017   7.563   5.805
18331WAT     H155235  -0.074   7.603   5.812
18331WAT     H255236   0.045   7.560   5.708
18332WAT      O55237   1.669   9.811   3.780
18332WAT     H155238   1.644   9.828   3.685
18332WAT     H255239   1.635   9.887   3.837
18333WAT      O55240   8.657   9.236   5.594
18333WAT     H155241   8.755   9.221   5.607
18333WAT     H255242   8.642   9.287   5.509
18334WAT      O55243   6.803   3.981   6.374
18334WAT     H155244   6.841   4.022   6.456
18334WAT     H255245   6.860   3.905   6.343
18335WAT      O55246   0.866   6.860   2.719
18335WAT     H155247   0.920   6.780   2.693
18335WAT     H255248   0.775   6.831   2.748
18336WAT      O55249   6.363   5.276   2.918
18336WAT     H155250   6.441   5.262   2.857
18336WAT     H255251   6.286   5.313   2.866
18337WAT      O55252   5.000   0.404   1.773
18337WAT     H155253   5.055   0.349   1.710
18337WAT     H255254   5.046   0.491   1.790
18338WAT      O55255   3.761   8.612   2.704
18338WAT     H155256   3.825   8.609   2.627
18338WAT     H255257   3.721   8.522   2.717
18339WAT      O55258   2.659   8.710   1.431
18339WAT     H155259   2.638   8.752   1.343
18339WAT     H255260   2.648   8.779   1.503
18340WAT      O55261   1.895   6.046   7.788
18340WAT     H155262   1.861   6.067   7.879
18340WAT     H255263   1.852   6.106   7.721
18341WAT      O55264   2.556   0.544   4.149
18341WAT     H155265   2.584   0.627   4.197
18341WAT     H255266   2.562   0.465   4.210
18342WAT      O55267   4.952   3.744   9.759
18342WAT     H155268   4.969   3.836   9.794
18342WAT     H255269   4.979   3.676   9.827
18343WAT      O55270   1.380   2.194   1.608
18343WAT     H155271   1.444   2.175   1.534
18343WAT     H255272   1.338   2.108   1.639
18344WAT      O55273   6.880   9.294   6.713
18344WAT     H155274   6.898   9.364   6.782
18344WAT     H255275   6.923   9.208   6.741
18345WAT      O55276   4.739   2.798   5.528
18345WAT     H155277   4.691   2.736   5.589
18345WAT     H255278   4.690   2.885   5.523
18346WAT      O55279   5.440   8.426   8.269
18346WAT     H155280   5.492   8.372   8.335
18346WAT     H255281   5.498   8.450   8.192
18347WAT      O55282   6.601   3.340   7.657
18347WAT     H155283   6.507   3.351   7.626
18347WAT     H255284   6.611   3.254   7.707
18348WAT      O55285   8.425   7.406   6.283
18348WAT     H155286   8.335   7.418   6.239
18348WAT     H255287   8.438   7.310   6.306
18349WAT      O55288   4.653   2.668   8.935
18349WAT     H155289   4.714   2.637   9.008
18349WAT     H255290   4.588   2.595   8.913
18350WAT      O55291   4.980   7.343   0.276
18350WAT     H155292   4.975   7.243   0.268
18350WAT     H255293   5.076   7.371   0.268
18351WAT      O55294   6.735   6.417   7.455
18351WAT     H155295   6.800   6.440   7.528
18351WAT     H255296   6.695   6.501   7.418
18352WAT      O55297   4.232   4.868   7.597
18352WAT     H155298   4.232   4.895   7.500
18352WAT     H255299   4.154   4.809   7.615
18353WAT      O55300   6.707   5.597   5.485
18353WAT     H155301   6.659   5.553   5.561
18353WAT     H255302   6.805   5.591   5.499
18354WAT      O55303   8.920   4.117   3.877
18354WAT     H155304   8.857   4.182   3.920
18354WAT     H255305   8.872   4.067   3.805
18355WAT      O55306   3.030   8.681   8.955
18355WAT     H155307   3.002   8.754   9.018
18355WAT     H255308   2.954   8.658   8.894
18356WAT      O55309   6.245   7.836   7.030
18356WAT     H155310   6.160   7.792   7.058
18356WAT     H255311   6.260   7.820   6.932
18357WAT      O55312   7.438   9.703   0.941
18357WAT     H155313   7.468   9.707   1.037
18357WAT     H255314   7.515   9.722   0.881
18358WAT      O55315   1.613   2.197   1.399
18358WAT     H155316   1.688   2.150   1.444
18358WAT     H255317   1.646   2.282   1.357
18359WAT      O55318   6.534   1.465   9.457
18359WAT     H155319   6.578   1.417   9.382
18359WAT     H255320   6.443   1.496   9.429
18360WAT      O55321   7.236   5.802   3.637
18360WAT     H155322   7.201   5.736   3.704
18360WAT     H255323   7.306   5.759   3.582
18361WAT      O55324   2.822   8.794   3.337
18361WAT     H155325   2.826   8.710   3.283
18361WAT     H255326   2.742   8.848   3.309
18362WAT      O55327   0.569   5.838   2.258
18362WAT     H155328   0.503   5.901   2.300
18362WAT     H255329   0.571   5.853   2.159
18363WAT      O55330   9.170   5.881   5.877
18363WAT     H155331   9.203   5.825   5.801
18363WAT     H255332   9.159   5.825   5.959
18364WAT      O55333   9.570   4.393   9.047
18364WAT     H155334   9.589   4.490   9.029
18364WAT     H255335   9.605   4.369   9.138
18365WAT      O55336   1.515   7.544   0.265
18365WAT     H155337   1.513   7.623   0.203
18365WAT     H255338   1.609   7.527   0.295
18366WAT      O55339   1.809   2.129   9.468
18366WAT     H155340   1.808   2.051   9.406
18366WAT     H255341   1.837   2.211   9.417
18367WAT      O55342   8.559   2.881   5.839
18367WAT     H155343   8.504   2.932   5.772
18367WAT     H255344   8.574   2.788   5.807
18368WAT      O55345   2.188   0.414   8.828
18368WAT     H155346   2.163   0.362   8.746
18368WAT     H255347   2.131   0.385   8.905
18369WAT      O55348   9.110   3.062   2.145
18369WAT     H155349   9.131   3.150   2.102
18369WAT     H255350   9.031   3.020   2.100
18370WAT      O55351   7.738   2.862   1.681
18370WAT     H155352   7.676   2.830   1.609
18370WAT     H255353   7.823   2.895   1.639
18371WAT      O55354   6.282   7.033   5.281
18371WAT     H155355   6.240   7.032   5.190
18371WAT     H255356   6.368   7.084   5.277
18372WAT      O55357   3.168   8.469   2.459
18372WAT     H155358   3.241   8.401   2.463
18372WAT     H255359   3.152   8.507   2.550
18373WAT      O55360   0.025   3.176   8.074
18373WAT     H155361   0.114   3.156   8.116
18373WAT     H255362  -0.044   3.185   8.146
18374WAT      O55363   1.461   3.235   9.320
18374WAT     H155364   1.413   3.154   9.287
18374WAT     H255365   1.453   3.241   9.419
18375WAT      O55366   1.299   9.683   7.142
18375WAT     H155367   1.343   9.770   7.124
18375WAT     H255368   1.361   9.608   7.116
18376WAT      O55369   1.637   4.305   1.440
18376WAT     H155370   1.558   4.337   1.492
18376WAT     H255371   1.615   4.218   1.396
18377WAT      O55372   0.227   4.376   4.475
18377WAT     H155373   0.188   4.462   4.508
18377WAT     H255374   0.232   4.311   4.551
18378WAT      O55375   5.194   8.058   0.417
18378WAT     H155376   5.270   8.106   0.460
18378WAT     H255377   5.226   7.972   0.379
18379WAT      O55378   8.338   3.253   5.931
18379WAT     H155379   8.394   3.289   5.855
18379WAT     H255380   8.365   3.298   6.016
18380WAT      O55381   2.937   5.030   9.579
18380WAT     H155382   2.867   5.024   9.508
18380WAT     H255383   2.894   5.034   9.669
18381WAT      O55384   3.103   2.236   1.530
18381WAT     H155385   3.161   2.244   1.611
18381WAT     H255386   3.123   2.150   1.483
18382WAT      O55387   4.578   3.821   8.211
18382WAT     H155388   4.635   3.897   8.243
18382WAT     H255389   4.603   3.738   8.259
18383WAT      O55390   5.022   7.896   0.029
18383WAT     H155391   5.002   7.822   0.093
18383WAT     H255392   5.082   7.963   0.073
18384WAT      O55393   1.169   8.995   3.058
18384WAT     H155394   1.128   8.911   3.025
18384WAT     H255395   1.099   9.054   3.097
18385WAT      O55396   0.382   5.138   8.860
18385WAT     H155397   0.293   5.172   8.830
18385WAT     H255398   0.418   5.073   8.792
18386WAT      O55399   6.081   1.734   0.275
18386WAT     H155400   6.046   1.805   0.335
18386WAT     H255401   6.169   1.763   0.237
18387WAT      O55402   7.151   8.726   4.212
18387WAT     H155403   7.074   8.750   4.270
18387WAT     H255404   7.209   8.659   4.259
18388WAT      O55405   1.705   1.584   9.532
18388WAT     H155406   1.615   1.625   9.517
18388WAT     H255407   1.706   1.491   9.497
18389WAT      O55408   3.352   0.579   6.769
18389WAT     H155409   3.425   0.599   6.835
18389WAT     H255410   3.264   0.604   6.809
18390WAT      O55411   8.196   6.700   0.769
18390WAT     H155412   8.264   6.699   0.842
18390WAT     H255413   8.151   6.611   0.764
18391WAT      O55414   7.485   7.837   9.285
18391WAT     H155415   7.409   7.902   9.289
18391WAT     H255416   7.526   7.827   9.376
18392WAT      O55417   2.859   1.679   7.877
18392WAT     H155418   2.875   1.707   7.783
18392WAT     H255419   2.793   1.603   7.879
18393WAT      O55420   5.495   4.351   0.406
18393WAT     H155421   5.431   4.370   0.332
18393WAT     H255422   5.453   4.376   0.494
18394WAT      O55423   5.250   7.856   8.433
18394WAT     H155424   5.227   7.946   8.395
18394WAT     H255425   5.263   7.790   8.359
18395WAT      O55426   2.269   5.449   6.119
18395WAT     H155427   2.257   5.533   6.067
18395WAT     H255428   2.186   5.432   6.174
18396WAT      O55429   9.093   5.146   2.895
18396WAT     H155430   9.072   5.109   2.804
18396WAT     H255431   9.025   5.215   2.919
18397WAT      O55432   2.371   7.109   2.478
18397WAT     H155433   2.428   7.063   2.410
18397WAT     H255434   2.422   7.184   2.519
18398WAT      O55435   9.812   8.941   7.097
18398WAT     H155436   9.828   9.007   7.025
18398WAT     H255437   9.719   8.906   7.091
18399WAT      O55438   4.122   5.536   6.231
18399WAT     H155439   4.053   5.481   6.277
18399WAT     H255440   4.114   5.631   6.261
18400WAT      O55441   2.761   2.721   6.545
18400WAT     H155442   2.769   2.722   6.445
18400WAT     H255443   2.689   2.658   6.572
18401WAT      O55444   0.358   4.421   1.363
18401WAT     H155445   0.352   4.514   1.327
18401WAT     H255446   0.454   4.392   1.364
18402WAT      O55447   0.859   7.903   9.818
18402WAT     H155448   0.917   7.837   9.771
18402WAT     H255449   0.764   7.872   9.815
18403WAT      O55450   0.766   7.072   8.374
18403WAT     H155451   0.806   7.004   8.313
18403WAT     H255452   0.718   7.027   8.449
18404WAT      O55453   9.324   6.283   7.045
18404WAT     H155454   9.270   6.298   6.962
18404WAT     H255455   9.392   6.212   7.027
18405WAT      O55456   2.798   3.075   0.224
18405WAT     H155457   2.817   3.044   0.131
18405WAT     H255458   2.827   3.171   0.233
18406WAT      O55459   0.813   6.606   5.976
18406WAT     H155460   0.906   6.614   5.939
18406WAT     H255461   0.747   6.616   5.902
18407WAT      O55462   3.998   6.569   1.879
18407WAT     H155463   3.949   6.578   1.966
18407WAT     H255464   3.943   6.514   1.816
18408WAT      O55465   6.902   1.764   4.170
18408WAT     H155466   6.876   1.798   4.260
18408WAT     H255467   6.909   1.841   4.106
18409WAT      O55468   4.248   2.131   7.619
18409WAT     H155469   4.327   2.080   7.583
18409WAT     H255470   4.269   2.229   7.620
18410WAT      O55471   3.027   7.504   4.893
18410WAT     H155472   2.947   7.564   4.891
18410WAT     H255473   3.029   7.454   4.980
18411WAT      O55474   7.120   8.065   3.204
18411WAT     H155475   7.190   8.132   3.179
18411WAT     H255476   7.133   7.982   3.149
18412WAT      O55477   1.748   1.428   6.709
18412WAT     H155478   1.734   1.338   6.667
18412WAT     H255479   1.806   1.419   6.789
18413WAT      O55480   8.401   0.764   5.416
18413WAT     H155481   8.455   0.840   5.382
18413WAT     H255482   8.402   0.689   5.350
18414WAT      O55483   8.849   5.963   6.163
18414WAT     H155484   8.755   5.986   6.136
18414WAT     H255485   8.888   6.037   6.217
18415WAT      O55486   6.466   7.458   1.624
18415WAT     H155487   6.443   7.484   1.718
18415WAT     H255488   6.483   7.540   1.570
18416WAT      O55489   2.267   0.959   1.751
18416WAT     H155490   2.268   0.915   1.841
18416WAT     H255491   2.210   1.041   1.754
18417WAT      O55492   8.538   0.044   6.544
18417WAT     H155493   8.518  -0.017   6.468
18417WAT     H255494   8.466   0.113   6.551
18418WAT      O55495   7.016   5.096   0.722
18418WAT     H155496   7.069   5.180   0.732
18418WAT     H255497   7.001   5.078   0.625
18419WAT      O55498   3.383   6.713   1.180
18419WAT     H155499   3.451   6.776   1.217
18419WAT     H255500   3.390   6.625   1.227
18420WAT      O55501   7.281   1.445   2.322
18420WAT     H155502   7.270   1.474   2.417
18420WAT     H255503   7.204   1.389   2.294
18421WAT      O55504   6.542   4.314   3.234
18421WAT     H155505   6.551   4.264   3.319
18421WAT     H255506   6.628   4.308   3.182
18422WAT      O55507   3.831   7.728   7.725
18422WAT     H155508   3.764   7.710   7.653
18422WAT     H255509   3.806   7.813   7.773
18423WAT      O55510   6.568   1.628   5.702
18423WAT     H155511   6.506   1.599   5.775
18423WAT     H255512   6.529   1.708   5.656
18424WAT      O55513   5.504   8.148   2.082
18424WAT     H155514   5.584   8.162   2.140
18424WAT     H255515   5.439   8.088   2.128
18425WAT      O55516   2.898   0.425   5.601
18425WAT     H155517   2.894   0.468   5.691
18425WAT     H255518   2.971   0.467   5.547
18426WAT      O55519   1.958   1.159   3.459
18426WAT     H155520   1.901   1.079   3.478
18426WAT     H255521   1.900   1.240   3.448
18427WAT      O55522   6.495   6.922   6.689
18427WAT     H155523   6.527   6.932   6.783
18427WAT     H255524   6.550   6.853   6.642
18428WAT      O55525   6.367   7.213   3.451
18428WAT     H155526   6.290   7.270   3.424
18428WAT     H255527   6.447   7.271   3.469
18429WAT      O55528   9.272   2.635   6.210
18429WAT     H155529   9.322   2.552   6.187
18429WAT     H255530   9.190   2.611   6.262
18430WAT      O55531   1.833   8.463   4.719
18430WAT     H155532   1.760   8.501   4.776
18430WAT     H255533   1.915   8.450   4.775
18431WAT      O55534   8.646   9.001   4.606
18431WAT     H155535   8.607   9.081   4.651
18431WAT     H255536   8.734   9.026   4.566
18432WAT      O55537   0.546   2.106   6.496
18432WAT     H155538   0.458   2.061   6.478
18432WAT     H255539   0.534   2.179   6.563
18433WAT      O55540   5.213   4.181   7.443
18433WAT     H155541   5.199   4.095   7.395
18433WAT     H255542   5.244   4.163   7.536
18434WAT      O55543   8.805   6.572   4.292
18434WAT     H155544   8.790   6.582   4.390
18434WAT     H255545   8.725   6.606   4.242
18435WAT      O55546   1.891   5.966   9.678
18435WAT     H155547   1.836   5.882   9.674
18435WAT     H255548   1.908   5.990   9.773
18436WAT      O55549   0.584   1.370   3.727
18436WAT     H155550   0.555   1.449   3.674
18436WAT     H255551   0.668   1.332   3.689
18437WAT      O55552   2.687   5.715   7.933
18437WAT     H155553   2.786   5.730   7.926
18437WAT     H255554   2.651   5.692   7.842
18438WAT      O55555   3.658   8.010   1.383
18438WAT     H155556   3.635   8.032   1.478
18438WAT     H255557   3.668   8.095   1.331
18439WAT      O55558   0.098   5.930   3.280
18439WAT     H155559   0.044   5.869   3.222
18439WAT     H255560   0.175   5.880   3.319
18440WAT      O55561   0.780   9.692   6.911
18440WAT     H155562   0.764   9.714   7.007
18440WAT     H255563   0.716   9.621   6.882
18441WAT      O55564   4.761   9.447   1.368
18441WAT     H155565   4.808   9.408   1.289
18441WAT     H255566   4.783   9.394   1.450
18442WAT      O55567   0.245   8.449   6.539
18442WAT     H155568   0.336   8.446   6.580
18442WAT     H255569   0.211   8.355   6.527
18443WAT      O55570   7.575   8.117   8.270
18443WAT     H155571   7.632   8.168   8.206
18443WAT     H255572   7.603   8.137   8.364
18444WAT      O55573   0.344   4.892   0.111
18444WAT     H155574   0.373   4.821   0.046
18444WAT     H255575   0.348   4.855   0.204
18445WAT      O55576   1.162   1.628   2.571
18445WAT     H155577   1.159   1.696   2.644
18445WAT     H255578   1.217   1.663   2.495
18446WAT      O55579   6.982   2.691   4.490
18446WAT     H155580   6.925   2.659   4.565
18446WAT     H255581   6.926   2.704   4.408
18447WAT      O55582   3.437   4.409   5.416
18447WAT     H155583   3.477   4.413   5.507
18447WAT     H255584   3.349   4.455   5.415
18448WAT      O55585   2.931   0.430   5.083
18448WAT     H155586   2.932   0.374   5.166
18448WAT     H255587   2.913   0.371   5.004
18449WAT      O55588   5.473   5.960   2.244
18449WAT     H155589   5.418   5.971   2.162
18449WAT     H255590   5.429   6.007   2.320
18450WAT      O55591   7.148   7.542   6.736
18450WAT     H155592   7.136   7.447   6.706
18450WAT     H255593   7.245   7.566   6.729
18451WAT      O55594   9.109   7.426   7.495
18451WAT     H155595   9.169   7.355   7.459
18451WAT     H255596   9.028   7.384   7.535
18452WAT      O55597   7.925   1.915   8.553
18452WAT     H155598   7.868   1.901   8.634
18452WAT     H255599   7.867   1.939   8.475
18453WAT      O55600   6.054   7.631   3.904
18453WAT     H155601   6.084   7.669   3.991
18453WAT     H255602   6.132   7.620   3.843
18454WAT      O55603   4.142   9.699   2.730
18454WAT     H155604   4.188   9.642   2.798
18454WAT     H255605   4.157   9.795   2.751
18455WAT      O55606   5.845   3.635   3.750
18455WAT     H155607   5.888   3.697   3.816
18455WAT     H255608   5.778   3.685   3.696
18456WAT      O55609   2.231   5.502   8.828
18456WAT     H155610   2.145   5.554   8.825
18456WAT     H255611   2.251   5.465   8.737
18457WAT      O55612   7.062   8.389   4.465
18457WAT     H155613   7.069   8.348   4.556
18457WAT     H255614   7.040   8.486   4.474
18458WAT      O55615   1.759   0.835   4.644
18458WAT     H155616   1.779   0.928   4.613
18458WAT     H255617   1.843   0.794   4.681
18459WAT      O55618   4.463   6.143   9.078
18459WAT     H155619   4.466   6.060   9.133
18459WAT     H255620   4.451   6.119   8.982
18460WAT      O55621   8.922   4.714   5.951
18460WAT     H155622   8.882   4.766   6.026
18460WAT     H255623   9.018   4.740   5.940
18461WAT      O55624   1.136   0.617   2.026
18461WAT     H155625   1.132   0.553   2.103
18461WAT     H255626   1.212   0.681   2.039
18462WAT      O55627   7.101   6.060   3.778
18462WAT     H155628   7.138   6.004   3.704
18462WAT     H255629   7.059   6.142   3.739
18463WAT      O55630   7.109   5.303   3.026
18463WAT     H155631   7.042   5.234   2.995
18463WAT     H255632   7.157   5.269   3.106
18464WAT      O55633   1.855   0.635   1.039
18464WAT     H155634   1.845   0.711   1.103
18464WAT     H255635   1.811   0.658   0.953
18465WAT      O55636   6.705   9.485   2.451
18465WAT     H155637   6.612   9.520   2.463
18465WAT     H255638   6.701   9.393   2.412
18466WAT      O55639   4.916   4.667   4.411
18466WAT     H155640   4.823   4.654   4.378
18466WAT     H255641   4.938   4.764   4.415
18467WAT      O55642   2.369   2.964   8.558
18467WAT     H155643   2.350   3.060   8.537
18467WAT     H255644   2.300   2.907   8.514
18468WAT      O55645   1.107   6.416   8.662
18468WAT     H155646   1.011   6.445   8.662
18468WAT     H255647   1.113   6.322   8.628
18469WAT      O55648   0.706   2.228   6.939
18469WAT     H155649   0.773   2.154   6.933
18469WAT     H255650   0.637   2.216   6.867
18470WAT      O55651   3.146   0.726   3.760
18470WAT     H155652   3.075   0.766   3.819
18470WAT     H255653   3.226   0.786   3.759
18471WAT      O55654   9.386   5.270   1.001
18471WAT     H155655   9.331   5.241   0.923
18471WAT     H255656   9.471   5.312   0.969
18472WAT      O55657   5.082   9.305   8.734
18472WAT     H155658   5.030   9.353   8.663
18472WAT     H255659   5.123   9.223   8.696
18473WAT      O55660   0.368   3.465   7.223
18473WAT     H155661   0.275   3.445   7.193
18473WAT     H255662   0.365   3.517   7.308
18474WAT      O55663   8.221   2.913   8.716
18474WAT     H155664   8.168   2.875   8.792
18474WAT     H255665   8.160   2.933   8.639
18475WAT      O55666   5.936   2.053   2.851
18475WAT     H155667   5.943   2.150   2.872
18475WAT     H255668   5.921   2.001   2.935
18476WAT      O55669   2.687   3.340   8.854
18476WAT     H155670   2.728   3.393   8.781
18476WAT     H255671   2.731   3.250   8.860
18477WAT      O55672   8.555   8.942   6.596
18477WAT     H155673   8.599   8.898   6.517
18477WAT     H255674   8.462   8.969   6.571
18478WAT      O55675   2.803   8.852   2.985
18478WAT     H155676   2.898   8.872   3.009
18478WAT     H255677   2.797   8.764   2.938
18479WAT      O55678   1.720   2.701   3.141
18479WAT     H155679   1.736   2.799   3.157
18479WAT     H255680   1.792   2.665   3.082
18480WAT      O55681   7.901   3.122   7.479
18480WAT     H155682   7.883   3.033   7.436
18480WAT     H255683   7.966   3.109   7.554
18481WAT      O55684   2.442   0.224   7.576
18481WAT     H155685   2.396   0.136   7.582
18481WAT     H255686   2.465   0.256   7.668
18482WAT      O55687   5.744   8.247   5.660
18482WAT     H155688   5.719   8.152   5.679
18482WAT     H255689   5.664   8.306   5.672
18483WAT      O55690   2.229   1.641   9.386
18483WAT     H155691   2.204   1.676   9.476
18483WAT     H255692   2.194   1.703   9.315
18484WAT      O55693   3.856   5.960   5.820
18484WAT     H155694   3.944   6.007   5.826
18484WAT     H255695   3.783   6.019   5.856
18485WAT      O55696   4.570   8.179   4.064
18485WAT     H155697   4.542   8.132   4.148
18485WAT     H255698   4.670   8.182   4.060
18486WAT      O55699   2.946   1.396   8.108
18486WAT     H155700   2.930   1.492   8.131
18486WAT     H255701   2.897   1.373   8.024
18487WAT      O55702   3.860   6.749   5.566
18487WAT     H155703   3.937   6.690   5.592
18487WAT     H255704   3.805   6.702   5.497
18488WAT      O55705   3.533   8.078   2.445
18488WAT     H155706   3.604   8.134   2.488
18488WAT     H255707   3.489   8.021   2.514
18489WAT      O55708   4.195   8.456   5.416
18489WAT     H155709   4.226   8.535   5.470
18489WAT     H255710   4.264   8.432   5.349
18490WAT      O55711   5.585   7.361   5.566
18490WAT     H155712   5.486   7.349   5.580
18490WAT     H255713   5.632   7.277   5.594
18491WAT      O55714   8.182   0.193   9.559
18491WAT     H155715   8.260   0.245   9.592
18491WAT     H255716   8.101   0.215   9.614
18492WAT      O55717   6.666   6.156   7.523
18492WAT     H155718   6.705   6.087   7.462
18492WAT     H255719   6.669   6.245   7.478
18493WAT      O55720   1.417   8.802   4.324
18493WAT     H155721   1.468   8.841   4.401
18493WAT     H255722   1.323   8.839   4.325
18494WAT      O55723   8.369   7.924   4.820
18494WAT     H155724   8.269   7.920   4.822
18494WAT     H255725   8.400   8.000   4.878
18495WAT      O55726   3.006   0.481   1.511
18495WAT     H155727   3.034   0.532   1.429
18495WAT     H255728   3.087   0.456   1.564
18496WAT      O55729   6.311   4.474   9.638
18496WAT     H155730   6.331   4.480   9.736
18496WAT     H255731   6.271   4.560   9.607
18497WAT      O55732   4.060   8.015   0.446
18497WAT     H155733   4.033   7.927   0.406
18497WAT     H255734   4.159   8.022   0.447
18498WAT      O55735   7.406   2.098   1.421
18498WAT     H155736   7.384   2.195   1.424
18498WAT     H255737   7.503   2.085   1.443
18499WAT      O55738   8.877   5.826   6.792
18499WAT     H155739   8.788   5.794   6.759
18499WAT     H255740   8.900   5.778   6.877
18500WAT      O55741   7.292   4.245   5.127
18500WAT     H155742   7.273   4.310   5.201
18500WAT     H255743   7.383   4.263   5.090
18501WAT      O55744   3.229   9.675   3.160
18501WAT     H155745   3.177   9.745   3.113
18501WAT     H255746   3.249   9.600   3.097
18502WAT      O55747   4.244   8.813   7.752
18502WAT     H155748   4.253   8.814   7.852
18502WAT     H255749   4.297   8.737   7.714
18503WAT      O55750   3.730   7.914   1.121
18503WAT     H155751   3.726   7.956   1.211
18503WAT     H255752   3.693   7.978   1.053
18504WAT      O55753   6.245   8.015   4.499
18504WAT     H155754   6.249   8.092   4.436
18504WAT     H255755   6.337   7.982   4.519
18505WAT      O55756   6.592   5.961   1.764
18505WAT     H155757   6.659   5.975   1.837
18505WAT     H255758   6.563   5.866   1.763
18506WAT      O55759   0.143   0.532   2.669
18506WAT     H155760   0.087   0.571   2.742
18506WAT     H255761   0.210   0.469   2.708
18507WAT      O55762   5.098   7.603   0.432
18507WAT     H155763   5.127   7.535   0.498
18507WAT     H255764   5.175   7.664   0.412
18508WAT      O55765   8.195   6.551   6.761
18508WAT     H155766   8.145   6.529   6.678
18508WAT     H255767   8.156   6.501   6.839
18509WAT      O55768   4.006   4.152   4.059
18509WAT     H155769   3.917   4.182   4.025
18509WAT     H255770   4.018   4.055   4.042
18510WAT      O55771   3.726   1.886   5.843
18510WAT     H155772   3.708   1.818   5.772
18510WAT     H255773   3.762   1.970   5.801
18511WAT      O55774   6.047   6.777   4.970
18511WAT     H155775   6.015   6.762   5.064
18511WAT     H255776   6.141   6.745   4.962
18512WAT      O55777   3.717   7.564   0.678
18512WAT     H155778   3.783   7.608   0.618
18512WAT     H255779   3.765   7.508   0.745
18513WAT      O55780   1.796   1.047   9.477
18513WAT     H155781   1.710   1.094   9.490
18513WAT     H255782   1.846   1.044   9.564
18514WAT      O55783   8.367   8.340   9.230
18514WAT     H155784   8.335   8.281   9.304
18514WAT     H255785   8.439   8.294   9.179
18515WAT      O55786   7.625   1.935   5.412
18515WAT     H155787   7.716   1.923   5.372
18515WAT     H255788   7.577   2.010   5.365
18516WAT      O55789   1.092   3.098   9.193
18516WAT     H155790   1.152   3.160   9.143
18516WAT     H255791   1.130   3.082   9.284
18517WAT      O55792   1.720   1.046   7.268
18517WAT     H155793   1.733   1.016   7.362
18517WAT     H255794   1.720   0.966   7.207
18518WAT      O55795   6.684   5.144   3.520
18518WAT     H155796   6.653   5.159   3.427
18518WAT     H255797   6.736   5.224   3.551
18519WAT      O55798   0.144   5.036   9.426
18519WAT     H155799   0.072   4.992   9.373
18519WAT     H255800   0.155   5.130   9.394
18520WAT      O55801   3.959   0.461   9.041
18520WAT     H155802   3.884   0.489   8.981
18520WAT     H255803   3.944   0.367   9.072
18521WAT      O55804   2.635   8.799   5.535
18521WAT     H155805   2.610   8.831   5.626
18521WAT     H255806   2.576   8.721   5.510
18522WAT      O55807   6.239   0.825   5.367
18522WAT     H155808   6.315   0.870   5.321
18522WAT     H255809   6.156   0.834   5.312
18523WAT      O55810   9.024   4.797   5.116
18523WAT     H155811   9.002   4.869   5.051
18523WAT     H255812   9.123   4.795   5.132
18524WAT      O55813   2.399   7.125   1.538
18524WAT     H155814   2.409   7.044   1.595
18524WAT     H255815   2.309   7.126   1.495
18525WAT      O55816   3.421   6.732   6.670
18525WAT     H155817   3.468   6.690   6.748
18525WAT     H255818   3.344   6.674   6.643
18526WAT      O55819   0.640   6.042   3.229
18526WAT     H155820   0.570   6.019   3.161
18526WAT     H255821   0.717   5.979   3.218
18527WAT      O55822   9.493   8.455   4.412
18527WAT     H155823   9.402   8.498   4.417
18527WAT     H255824   9.483   8.358   4.388
18528WAT      O55825   1.656   9.412   0.314
18528WAT     H155826   1.605   9.474   0.255
18528WAT     H255827   1.661   9.450   0.406
18529WAT      O55828   9.626   9.665   1.889
18529WAT     H155829   9.714   9.705   1.916
18529WAT     H255830   9.628   9.566   1.908
18530WAT      O55831   4.511   2.948   4.400
18530WAT     H155832   4.590   2.968   4.459
18530WAT     H255833   4.445   2.893   4.451
18531WAT      O55834   3.462   4.459   9.604
18531WAT     H155835   3.411   4.534   9.646
18531WAT     H255836   3.544   4.440   9.657
18532WAT      O55837   8.594   2.092   3.387
18532WAT     H155838   8.670   2.074   3.325
18532WAT     H255839   8.523   2.145   3.340
18533WAT      O55840   9.431   6.840   3.451
18533WAT     H155841   9.523   6.856   3.487
18533WAT     H255842   9.372   6.917   3.473
18534WAT      O55843   6.296   0.892   9.401
18534WAT     H155844   6.341   0.838   9.330
18534WAT     H255845   6.354   0.969   9.426
18535WAT      O55846   0.658   8.819   0.886
18535WAT     H155847   0.646   8.744   0.820
18535WAT     H255848   0.719   8.888   0.848
18536WAT      O55849   0.086   0.063   7.535
18536WAT     H155850   0.084   0.072   7.436
18536WAT     H255851   0.127  -0.025   7.560
18537WAT      O55852   6.459   7.597   4.319
18537WAT     H155853   6.507   7.512   4.343
18537WAT     H255854   6.502   7.638   4.239
18538WAT      O55855   1.455   9.455   2.695
18538WAT     H155856   1.481   9.381   2.758
18538WAT     H255857   1.405   9.525   2.746
18539WAT      O55858   9.003   2.326   2.895
18539WAT     H155859   9.075   2.353   2.959
18539WAT     H255860   9.035   2.250   2.839
18540WAT      O55861   1.267   8.390   2.294
18540WAT     H155862   1.348   8.410   2.349
18540WAT     H255863   1.243   8.294   2.305
18541WAT      O55864   1.847   1.699   7.287
18541WAT     H155865   1.831   1.631   7.216
18541WAT     H255866   1.934   1.745   7.269
18542WAT      O55867   4.171   3.888   4.574
18542WAT     H155868   4.135   3.930   4.657
18542WAT     H255869   4.103   3.897   4.501
18543WAT      O55870   3.815   6.938   4.439
18543WAT     H155871   3.743   6.983   4.492
18543WAT     H255872   3.798   6.839   4.438
18544WAT      O55873   2.442   5.045   5.507
18544WAT     H155874   2.540   5.064   5.507
18544WAT     H255875   2.427   4.947   5.516
18545WAT      O55876   6.291   1.612   7.971
18545WAT     H155877   6.314   1.588   8.065
18545WAT     H255878   6.209   1.563   7.943
18546WAT      O55879   5.569   1.866   9.517
18546WAT     H155880   5.610   1.946   9.561
18546WAT     H255881   5.641   1.800   9.495
18547WAT      O55882   9.199   0.500   6.928
18547WAT     H155883   9.163   0.587   6.960
18547WAT     H255884   9.139   0.426   6.959
18548WAT      O55885   0.238   0.893   6.690
18548WAT     H155886   0.330   0.905   6.654
18548WAT     H255887   0.194   0.982   6.701
18549WAT      O55888   9.123   5.837   8.501
18549WAT     H155889   9.121   5.937   8.500
18549WAT     H255890   9.172   5.807   8.583
18550WAT      O55891   9.155   2.040   5.299
18550WAT     H155892   9.057   2.030   5.279
18550WAT     H255893   9.193   1.950   5.320
18551WAT      O55894   9.253   1.863   3.400
18551WAT     H155895   9.165   1.908   3.387
18551WAT     H255896   9.293   1.892   3.487
18552WAT      O55897   8.642   2.198   0.877
18552WAT     H155898   8.564   2.191   0.814
18552WAT     H255899   8.615   2.250   0.958
18553WAT      O55900   4.971   8.644   8.240
18553WAT     H155901   5.060   8.687   8.225
18553WAT     H255902   4.913   8.659   8.160
18554WAT      O55903   9.798   1.857   9.398
18554WAT     H155904   9.863   1.931   9.381
18554WAT     H255905   9.746   1.839   9.315
18555WAT      O55906   8.636   7.230   1.117
18555WAT     H155907   8.644   7.154   1.182
18555WAT     H255908   8.662   7.315   1.162
18556WAT      O55909   6.383   5.014   6.897
18556WAT     H155910   6.327   4.931   6.892
18556WAT     H255911   6.374   5.055   6.988
18557WAT      O55912   8.604   5.018   0.722
18557WAT     H155913   8.633   5.009   0.627
18557WAT     H255914   8.664   5.082   0.769
18558WAT      O55915   5.042   1.907   3.216
18558WAT     H155916   5.139   1.884   3.214
18558WAT     H255917   5.003   1.896   3.124
18559WAT      O55918   3.562   4.254   7.343
18559WAT     H155919   3.537   4.319   7.415
18559WAT     H255920   3.580   4.164   7.384
18560WAT      O55921   8.094   3.941   0.829
18560WAT     H155922   8.156   3.959   0.752
18560WAT     H255923   8.137   3.971   0.914
18561WAT      O55924   3.892   0.984   5.204
18561WAT     H155925   3.907   1.078   5.234
18561WAT     H255926   3.941   0.922   5.265
18562WAT      O55927   5.096   8.891   6.917
18562WAT     H155928   5.079   8.806   6.967
18562WAT     H255929   5.101   8.871   6.819
18563WAT      O55930   1.168   2.775   7.249
18563WAT     H155931   1.141   2.701   7.311
18563WAT     H255932   1.103   2.780   7.173
18564WAT      O55933   4.974   9.362   2.126
18564WAT     H155934   4.939   9.283   2.076
18564WAT     H255935   4.995   9.436   2.062
18565WAT      O55936   1.429   0.985   9.135
18565WAT     H155937   1.455   0.950   9.045
18565WAT     H255938   1.497   1.051   9.167
18566WAT      O55939   7.827   9.284   5.254
18566WAT     H155940   7.814   9.357   5.321
18566WAT     H255941   7.786   9.200   5.289
18567WAT      O55942   9.302   6.621   9.416
18567WAT     H155943   9.298   6.523   9.435
18567WAT     H255944   9.384   6.641   9.362
18568WAT      O55945   1.025   7.350   7.699
18568WAT     H155946   1.011   7.346   7.600
18568WAT     H255947   1.004   7.260   7.739
18569WAT      O55948   0.506   1.381   1.739
18569WAT     H155949   0.556   1.309   1.690
18569WAT     H255950   0.456   1.437   1.673
18570WAT      O55951   0.517   2.421   2.259
18570WAT     H155952   0.610   2.452   2.277
18570WAT     H255953   0.476   2.478   2.188
18571WAT      O55954   2.163   7.207   1.446
18571WAT     H155955   2.089   7.173   1.504
18571WAT     H255956   2.167   7.153   1.362
18572WAT      O55957   9.786   7.528   3.912
18572WAT     H155958   9.823   7.621   3.907
18572WAT     H255959   9.764   7.496   3.820
18573WAT      O55960   6.164   3.538   8.693
18573WAT     H155961   6.119   3.591   8.765
18573WAT     H255962   6.152   3.440   8.711
18574WAT      O55963   6.513   9.763   1.627
18574WAT     H155964   6.586   9.808   1.679
18574WAT     H255965   6.443   9.730   1.689
18575WAT      O55966   3.811   6.192   0.146
18575WAT     H155967   3.747   6.224   0.076
18575WAT     H255968   3.795   6.095   0.164
18576WAT      O55969   1.816   1.361   8.753
18576WAT     H155970   1.914   1.372   8.770
18576WAT     H255971   1.788   1.268   8.775
18577WAT      O55972   8.527   5.278   0.201
18577WAT     H155973   8.568   5.189   0.178
18577WAT     H255974   8.595   5.335   0.246
18578WAT      O55975   0.178   9.041   7.342
18578WAT     H155976   0.141   9.133   7.359
18578WAT     H255977   0.239   9.043   7.263
18579WAT      O55978   8.239   3.701   9.015
18579WAT     H155979   8.233   3.601   9.012
18579WAT     H255980   8.153   3.738   9.050
18580WAT      O55981   0.702   0.991   9.677
18580WAT     H155982   0.609   1.019   9.651
18580WAT     H255983   0.717   1.013   9.774
18581WAT      O55984   9.877   5.549   9.092
18581WAT     H155985   9.841   5.476   9.150
18581WAT     H255986   9.887   5.516   8.999
18582WAT      O55987   7.327   1.447   1.370
18582WAT     H155988   7.236   1.407   1.384
18582WAT     H255989   7.358   1.428   1.276
18583WAT      O55990   7.938   0.095   5.438
18583WAT     H155991   8.037   0.089   5.430
18583WAT     H255992   7.896   0.061   5.354
18584WAT      O55993   9.284   5.607   6.450
18584WAT     H155994   9.310   5.510   6.448
18584WAT     H255995   9.366   5.664   6.447
18585WAT      O55996   7.934   4.811   3.847
18585WAT     H155997   7.855   4.750   3.860
18585WAT     H255998   8.015   4.757   3.827
18586WAT      O55999   4.226   3.030   5.284
18586WAT     H156000   4.261   2.985   5.367
18586WAT     H256001   4.175   2.964   5.229
18587WAT      O56002   3.916   5.403   0.070
18587WAT     H156003   3.932   5.477   0.135
18587WAT     H256004   3.969   5.322   0.097
18588WAT      O56005   4.124   5.488   6.547
18588WAT     H156006   4.125   5.504   6.646
18588WAT     H256007   4.032   5.504   6.511
18589WAT      O56008   3.540   2.986   2.236
18589WAT     H156009   3.605   3.010   2.308
18589WAT     H256010   3.580   3.006   2.147
18590WAT      O56011   5.895   1.993   1.262
18590WAT     H156012   5.816   2.052   1.250
18590WAT     H256013   5.905   1.933   1.183
18591WAT      O56014   9.249   3.019   7.870
18591WAT     H156015   9.346   3.014   7.895
18591WAT     H256016   9.227   3.113   7.844
18592WAT      O56017   2.207   3.123   7.385
18592WAT     H156018   2.242   3.040   7.427
18592WAT     H256019   2.146   3.170   7.449
18593WAT      O56020   1.808   9.345   9.788
18593WAT     H156021   1.769   9.437   9.781
18593WAT     H256022   1.826   9.323   9.884
18594WAT      O56023   7.314   4.881   6.236
18594WAT     H156024   7.325   4.783   6.256
18594WAT     H256025   7.280   4.892   6.143
18595WAT      O56026   6.814   1.996   3.133
18595WAT     H156027   6.844   1.924   3.194
18595WAT     H256028   6.721   2.023   3.155
18596WAT      O56029   1.502   4.072   4.418
18596WAT     H156030   1.427   4.059   4.353
18596WAT     H256031   1.588   4.046   4.375
18597WAT      O56032   6.490   1.422   3.340
18597WAT     H156033   6.532   1.332   3.330
18597WAT     H256034   6.412   1.416   3.401
18598WAT      O56035   5.949   3.604   8.918
18598WAT     H156036   5.905   3.655   8.992
18598WAT     H256037   5.880   3.555   8.865
18599WAT      O56038   4.163   0.753   5.093
18599WAT     H156039   4.175   0.712   5.183
18599WAT     H256040   4.066   0.749   5.067
18600WAT      O56041   7.815   5.903   7.827
18600WAT     H156042   7.803   5.882   7.730
18600WAT     H256043   7.819   6.003   7.839
18601WAT      O56044   6.337   0.257   9.113
18601WAT     H156045   6.431   0.237   9.140
18601WAT     H256046   6.337   0.332   9.047
18602WAT      O56047   8.290   1.860   7.313
18602WAT     H156048   8.373   1.853   7.369
18602WAT     H256049   8.292   1.947   7.262
18603WAT      O56050   8.213   7.161   2.156
18603WAT     H156051   8.239   7.123   2.067
18603WAT     H256052   8.114   7.152   2.168
18604WAT      O56053   9.683   2.908   6.397
18604WAT     H156054   9.643   2.994   6.367
18604WAT     H256055   9.712   2.915   6.493
18605WAT      O56056   6.740   0.931   4.196
18605WAT     H156057   6.761   1.006   4.134
18605WAT     H256058   6.788   0.848   4.166
18606WAT      O56059   3.588   0.704   0.993
18606WAT     H156060   3.585   0.786   0.936
18606WAT     H256061   3.683   0.685   1.017
18607WAT      O56062   5.726   6.221   1.386
18607WAT     H156063   5.681   6.283   1.450
18607WAT     H256064   5.714   6.255   1.293
18608WAT      O56065   6.619   5.812   0.684
18608WAT     H156066   6.595   5.749   0.611
18608WAT     H256067   6.706   5.856   0.663
18609WAT      O56068   8.552   4.775   8.113
18609WAT     H156069   8.487   4.717   8.161
18609WAT     H256070   8.583   4.848   8.174
18610WAT      O56071   9.671   3.003   5.708
18610WAT     H156072   9.689   2.905   5.723
18610WAT     H256073   9.642   3.018   5.614
18611WAT      O56074   6.199   0.007   1.957
18611WAT     H156075   6.261   0.084   1.941
18611WAT     H256076   6.220  -0.067   1.894
18612WAT      O56077   4.370   3.875   5.059
18612WAT     H156078   4.319   3.799   5.018
18612WAT     H256079   4.463   3.875   5.024
18613WAT      O56080   8.783   0.025   8.397
18613WAT     H156081   8.833  -0.040   8.340
18613WAT     H256082   8.806   0.010   8.493
18614WAT      O56083   6.393   0.803   4.823
18614WAT     H156084   6.433   0.783   4.733
18614WAT     H256085   6.317   0.742   4.840
18615WAT      O56086   3.821   2.419   3.306
18615WAT     H156087   3.760   2.498   3.309
18615WAT     H256088   3.911   2.447   3.273
18616WAT      O56089   9.553   8.921   4.658
18616WAT     H156090   9.546   8.864   4.575
18616WAT     H256091   9.635   8.977   4.652
18617WAT      O56092   1.053   3.310   4.846
18617WAT     H156093   1.135   3.348   4.888
18617WAT     H256094   0.973   3.362   4.876
18618WAT      O56095   2.537   7.271   0.218
18618WAT     H156096   2.553   7.253   0.315
18618WAT     H256097   2.492   7.191   0.177
18619WAT      O56098   6.643   3.483   8.069
18619WAT     H156099   6.603   3.392   8.057
18619WAT     H256100   6.640   3.532   7.983
18620WAT      O56101   6.774   1.322   6.655
18620WAT     H156102   6.679   1.326   6.623
18620WAT     H256103   6.807   1.228   6.651
18621WAT      O56104   0.407   4.245   8.806
18621WAT     H156105   0.420   4.245   8.905
18621WAT     H256106   0.491   4.274   8.761
18622WAT      O56107   7.958   5.720   4.405
18622WAT     H156108   8.006   5.752   4.324
18622WAT     H256109   7.869   5.683   4.379
18623WAT      O56110   0.755   4.508   1.019
18623WAT     H156111   0.841   4.475   1.058
18623WAT     H256112   0.763   4.511   0.919
18624WAT      O56113   2.368   1.668   6.300
18624WAT     H156114   2.292   1.685   6.238
18624WAT     H256115   2.383   1.569   6.309
18625WAT      O56116   3.707   8.583   7.335
18625WAT     H156117   3.623   8.562   7.386
18625WAT     H256118   3.786   8.557   7.390
18626WAT      O56119   6.395   8.303   8.840
18626WAT     H156120   6.379   8.263   8.750
18626WAT     H256121   6.474   8.364   8.837
18627WAT      O56122   0.272   6.431   0.425
18627WAT     H156123   0.343   6.364   0.405
18627WAT     H256124   0.183   6.385   0.424
18628WAT      O56125   6.769   9.293   7.049
18628WAT     H156126   6.695   9.317   7.113
18628WAT     H256127   6.802   9.376   7.004
18629WAT      O56128   4.155   6.746   6.336
18629WAT     H156129   4.064   6.712   6.360
18629WAT     H256130   4.154   6.781   6.242
18630WAT      O56131   2.490   8.771   1.872
18630WAT     H156132   2.514   8.868   1.875
18630WAT     H256133   2.571   8.717   1.848
18631WAT      O56134   7.217   1.756   3.480
18631WAT     H156135   7.272   1.777   3.560
18631WAT     H256136   7.276   1.717   3.408
18632WAT      O56137   0.933   9.133   6.709
18632WAT     H156138   0.888   9.044   6.700
18632WAT     H256139   1.010   9.138   6.645
18633WAT      O56140   2.240   8.924   1.206
18633WAT     H156141   2.321   8.896   1.154
18633WAT     H256142   2.258   8.912   1.304
18634WAT      O56143   5.545   6.227   8.366
18634WAT     H156144   5.540   6.129   8.385
18634WAT     H256145   5.507   6.277   8.443
18635WAT      O56146   2.055   4.367   4.712
18635WAT     H156147   2.076   4.328   4.622
18635WAT     H256148   1.991   4.443   4.701
18636WAT      O56149   8.378   0.959   7.380
18636WAT     H156150   8.300   0.978   7.320
18636WAT     H256151   8.461   1.000   7.341
18637WAT      O56152   6.517   8.862   8.211
18637WAT     H156153   6.441   8.921   8.238
18637WAT     H256154   6.500   8.826   8.120
18638WAT      O56155   4.542   8.982   0.525
18638WAT     H156156   4.444   8.970   0.511
18638WAT     H256157   4.567   8.950   0.617
18639WAT      O56158   4.406   5.705   3.642
18639WAT     H156159   4.482   5.689   3.705
18639WAT     H256160   4.410   5.641   3.566
18640WAT      O56161   6.948   7.141   4.924
18640WAT     H156162   6.894   7.225   4.913
18640WAT     H256163   6.919   7.074   4.855
18641WAT      O56164   0.703   5.030   3.796
18641WAT     H156165   0.748   5.081   3.869
18641WAT     H256166   0.769   4.971   3.750
18642WAT      O56167   3.089   9.269   6.723
18642WAT     H156168   3.073   9.367   6.723
18642WAT     H256169   3.017   9.223   6.671
18643WAT      O56170   9.461   7.573   7.534
18643WAT     H156171   9.370   7.596   7.568
18643WAT     H256172   9.524   7.566   7.612
18644WAT      O56173   3.140   6.587   7.443
18644WAT     H156174   3.219   6.647   7.455
18644WAT     H256175   3.163   6.495   7.474
18645WAT      O56176   5.928   3.586   8.510
18645WAT     H156177   6.027   3.592   8.521
18645WAT     H256178   5.886   3.557   8.596
18646WAT      O56179   6.446   5.013   9.026
18646WAT     H156180   6.427   4.938   8.963
18646WAT     H256181   6.512   5.076   8.985
18647WAT      O56182   0.654   9.017   9.298
18647WAT     H156183   0.563   9.049   9.323
18647WAT     H256184   0.723   9.083   9.327
18648WAT      O56185   3.886   6.359   1.020
18648WAT     H156186   3.904   6.270   0.979
18648WAT     H256187   3.838   6.346   1.107
18649WAT      O56188   9.435   2.155   1.064
18649WAT     H156189   9.499   2.148   0.988
18649WAT     H256190   9.480   2.124   1.148
18650WAT      O56191   5.962   6.924   0.253
18650WAT     H156192   5.969   7.017   0.291
18650WAT     H256193   6.054   6.890   0.232
18651WAT      O56194   8.445   0.718   9.074
18651WAT     H156195   8.378   0.710   9.148
18651WAT     H256196   8.439   0.809   9.034
18652WAT      O56197   5.729   8.394   7.654
18652WAT     H156198   5.821   8.419   7.626
18652WAT     H256199   5.666   8.470   7.633
18653WAT      O56200   7.226   1.090   0.590
18653WAT     H156201   7.302   1.155   0.588
18653WAT     H256202   7.226   1.036   0.506
18654WAT      O56203   4.063   4.209   1.085
18654WAT     H156204   4.076   4.117   1.048
18654WAT     H256205   4.083   4.208   1.183
18655WAT      O56206   3.398   8.259   3.786
18655WAT     H156207   3.330   8.333   3.780
18655WAT     H256208   3.366   8.191   3.852
18656WAT      O56209   9.327   6.829   9.862
18656WAT     H156210   9.284   6.809   9.774
18656WAT     H256211   9.353   6.925   9.865
18657WAT      O56212   1.651   8.077   8.031
18657WAT     H156213   1.638   8.115   7.939
18657WAT     H256214   1.724   8.126   8.077
18658WAT      O56215   7.388   4.810   5.383
18658WAT     H156216   7.362   4.904   5.363
18658WAT     H256217   7.313   4.748   5.359
18659WAT      O56218   1.737   0.434   6.692
18659WAT     H156219   1.826   0.462   6.655
18659WAT     H256220   1.693   0.513   6.735
18660WAT      O56221   0.580   2.941   0.693
18660WAT     H156222   0.590   2.897   0.782
18660WAT     H256223   0.627   2.886   0.623
18661WAT      O56224   1.312   9.603   5.972
18661WAT     H156225   1.363   9.518   5.989
18661WAT     H256226   1.345   9.675   6.033
18662WAT      O56227   1.272   8.684   0.596
18662WAT     H156228   1.289   8.605   0.536
18662WAT     H256229   1.177   8.714   0.584
18663WAT      O56230   2.898   5.103   1.115
18663WAT     H156231   2.803   5.134   1.124
18663WAT     H256232   2.910   5.018   1.167
18664WAT      O56233   3.689   3.167   3.899
18664WAT     H156234   3.787   3.178   3.912
18664WAT     H256235   3.646   3.257   3.890
18665WAT      O56236   8.411   5.752   9.336
18665WAT     H156237   8.329   5.739   9.280
18665WAT     H256238   8.391   5.817   9.410
18666WAT      O56239   9.442   8.645   1.262
18666WAT     H156240   9.485   8.685   1.181
18666WAT     H256241   9.436   8.546   1.251
18667WAT      O56242   1.210   9.214   7.870
18667WAT     H156243   1.198   9.116   7.853
18667WAT     H256244   1.197   9.264   7.784
18668WAT      O56245   7.618   3.799   8.415
18668WAT     H156246   7.529   3.843   8.426
18668WAT     H256247   7.684   3.865   8.377
18669WAT      O56248   3.103   7.297   7.965
18669WAT     H156249   3.122   7.245   8.048
18669WAT     H256250   3.054   7.381   7.989
18670WAT      O56251   5.676   5.433   8.673
18670WAT     H156252   5.590   5.459   8.717
18670WAT     H256253   5.657   5.405   8.579
18671WAT      O56254   0.748   6.435   7.233
18671WAT     H156255   0.842   6.411   7.258
18671WAT     H256256   0.704   6.356   7.190
18672WAT      O56257   6.042   6.163   9.397
18672WAT     H156258   6.073   6.191   9.488
18672WAT     H256259   6.121   6.151   9.338
18673WAT      O56260   7.737   7.939   6.784
18673WAT     H156261   7.690   8.018   6.825
18673WAT     H256262   7.770   7.878   6.856
18674WAT      O56263   3.755   0.428   5.924
18674WAT     H156264   3.846   0.463   5.949
18674WAT     H256265   3.748   0.332   5.953
18675WAT      O56266   8.521   4.477   7.379
18675WAT     H156267   8.610   4.446   7.345
18675WAT     H256268   8.449   4.445   7.318
18676WAT      O56269   6.657   5.960   3.483
18676WAT     H156270   6.692   5.913   3.402
18676WAT     H256271   6.717   6.037   3.504
18677WAT      O56272   6.776   1.863   5.199
18677WAT     H156273   6.833   1.787   5.168
18677WAT     H256274   6.824   1.913   5.271
18678WAT      O56275   8.389   9.233   6.046
18678WAT     H156276   8.364   9.165   6.116
18678WAT     H256277   8.308   9.255   5.991
18679WAT      O56278   5.017   0.069   8.967
18679WAT     H156279   4.948   0.009   8.925
18679WAT     H256280   5.017   0.157   8.920
18680WAT      O56281   4.716   6.286   1.539
18680WAT     H156282   4.636   6.265   1.483
18680WAT     H256283   4.782   6.337   1.485
18681WAT      O56284   5.992   1.367   0.470
18681WAT     H156285   5.900   1.347   0.437
18681WAT     H256286   6.038   1.282   0.495
18682WAT      O56287   8.674   5.286   0.535
18682WAT     H156288   8.659   5.385   0.526
18682WAT     H256289   8.658   5.258   0.629
18683WAT      O56290   7.665   5.009   9.237
18683WAT     H156291   7.630   5.067   9.163
18683WAT     H256292   7.685   4.918   9.201
18684WAT      O56293   7.852   8.121   3.469
18684WAT     H156294   7.866   8.220   3.475
18684WAT     H256295   7.941   8.076   3.458
18685WAT      O56296   0.567   2.771   5.898
18685WAT     H156297   0.524   2.853   5.860
18685WAT     H256298   0.661   2.765   5.863
18686WAT      O56299   9.694   5.167   7.215
18686WAT     H156300   9.636   5.198   7.291
18686WAT     H256301   9.786   5.147   7.250
18687WAT      O56302   0.689   4.054   4.695
18687WAT     H156303   0.704   4.073   4.598
18687WAT     H256304   0.688   4.140   4.746
18688WAT      O56305   1.432   2.900   3.275
18688WAT     H156306   1.521   2.904   3.320
18688WAT     H256307   1.361   2.883   3.344
18689WAT      O56308   7.014   9.567   8.138
18689WAT     H156309   7.096   9.534   8.185
18689WAT     H256310   6.936   9.508   8.162
18690WAT      O56311   6.649   5.312   3.279
18690WAT     H156312   6.628   5.407   3.302
18690WAT     H256313   6.696   5.309   3.190
18691WAT      O56314   2.525   6.862   3.367
18691WAT     H156315   2.486   6.772   3.387
18691WAT     H256316   2.609   6.874   3.421
18692WAT      O56317   7.283   9.724   7.159
18692WAT     H156318   7.369   9.772   7.168
18692WAT     H256319   7.219   9.755   7.229
18693WAT      O56320   0.634   8.777   6.332
18693WAT     H156321   0.661   8.873   6.341
18693WAT     H256322   0.713   8.723   6.307
18694WAT      O56323   9.830   4.157   1.270
18694WAT     H156324   9.780   4.182   1.353
18694WAT     H256325   9.927   4.174   1.283
18695WAT      O56326   7.087   9.084   9.472
18695WAT     H156327   6.991   9.085   9.445
18695WAT     H256328   7.140   9.138   9.407
18696WAT      O56329   0.863   6.831   6.794
18696WAT     H156330   0.878   6.761   6.864
18696WAT     H256331   0.935   6.826   6.726
18697WAT      O56332   9.828   8.490   9.866
18697WAT     H156333   9.824   8.433   9.949
18697WAT     H256334   9.912   8.469   9.816
18698WAT      O56335   6.862   6.830   6.489
18698WAT     H156336   6.830   6.924   6.475
18698WAT     H256337   6.877   6.786   6.400
18699WAT      O56338   3.654   3.217   5.731
18699WAT     H156339   3.689   3.246   5.820
18699WAT     H256340   3.670   3.289   5.664
18700WAT      O56341   2.422   7.954   3.760
18700WAT     H156342   2.411   8.052   3.744
18700WAT     H256343   2.506   7.938   3.813
18701WAT      O56344   0.849   0.977   3.537
18701WAT     H156345   0.854   0.917   3.457
18701WAT     H256346   0.763   0.962   3.585
18702WAT      O56347   6.902   5.908   7.791
18702WAT     H156348   6.826   5.918   7.855
18702WAT     H256349   6.929   5.999   7.758
18703WAT      O56350   4.744   9.616   8.276
18703WAT     H156351   4.832   9.663   8.268
18703WAT     H256352   4.759   9.517   8.282
18704WAT      O56353   5.969   0.911   4.252
18704WAT     H156354   5.890   0.863   4.289
18704WAT     H256355   5.942   0.963   4.171
18705WAT      O56356   4.893   6.742   4.698
18705WAT     H156357   4.962   6.673   4.676
18705WAT     H256358   4.905   6.772   4.793
18706WAT      O56359   1.439   8.659   4.631
18706WAT     H156360   1.430   8.612   4.543
18706WAT     H256361   1.477   8.750   4.616
18707WAT      O56362   6.792   0.240   6.512
18707WAT     H156363   6.848   0.193   6.444
18707WAT     H256364   6.851   0.282   6.581
18708WAT      O56365   6.424   9.363   2.177
18708WAT     H156366   6.497   9.311   2.222
18708WAT     H256367   6.342   9.307   2.171
18709WAT      O56368   8.350   6.045   3.907
18709WAT     H156369   8.335   6.123   3.846
18709WAT     H256370   8.432   6.061   3.962
18710WAT      O56371   6.532   7.117   6.348
18710WAT     H156372   6.502   7.176   6.273
18710WAT     H256373   6.576   7.035   6.310
18711WAT      O56374   9.165   1.021   8.138
18711WAT     H156375   9.178   1.116   8.168
18711WAT     H256376   9.172   0.960   8.217
18712WAT      O56377   4.041   3.065   1.698
18712WAT     H156378   4.057   2.991   1.633
18712WAT     H256379   4.028   3.027   1.789
18713WAT      O56380   4.675   1.420   0.146
18713WAT     H156381   4.609   1.398   0.218
18713WAT     H256382   4.716   1.509   0.165
18714WAT      O56383   9.826   0.417   1.588
18714WAT     H156384   9.763   0.342   1.567
18714WAT     H256385   9.903   0.382   1.641
18715WAT      O56386   0.370   5.103   9.150
18715WAT     H156387   0.410   5.113   9.059
18715WAT     H256388   0.434   5.053   9.209
18716WAT      O56389   7.772   2.937   7.056
18716WAT     H156390   7.718   2.900   6.980
18716WAT     H256391   7.723   3.015   7.097
18717WAT      O56392   0.776   0.634   8.598
18717WAT     H156393   0.778   0.721   8.647
18717WAT     H256394   0.829   0.643   8.513
18718WAT      O56395   8.359   9.290   8.273
18718WAT     H156396   8.295   9.365   8.260
18718WAT     H256397   8.445   9.311   8.227
18719WAT      O56398   5.982   3.666   5.663
18719WAT     H156399   6.052   3.634   5.599
18719WAT     H256400   5.986   3.611   5.746
18720WAT      O56401   6.248   6.235   4.348
18720WAT     H156402   6.209   6.145   4.328
18720WAT     H256403   6.307   6.263   4.272
18721WAT      O56404   5.201   6.238   9.457
18721WAT     H156405   5.140   6.204   9.529
18721WAT     H256406   5.275   6.173   9.443
18722WAT      O56407   1.651   2.638   9.296
18722WAT     H156408   1.607   2.550   9.313
18722WAT     H256409   1.650   2.657   9.197
18723WAT      O56410   0.328   4.761   3.339
18723WAT     H156411   0.330   4.844   3.283
18723WAT     H256412   0.408   4.704   3.318
18724WAT      O56413   4.341   2.806   4.539
18724WAT     H156414   4.306   2.752   4.462
18724WAT     H256415   4.388   2.745   4.603
18725WAT      O56416   8.018   1.015   1.228
18725WAT     H156417   8.097   1.073   1.209
18725WAT     H256418   7.984   1.034   1.320
18726WAT      O56419   4.240   8.392   3.063
18726WAT     H156420   4.292   8.430   3.139
18726WAT     H256421   4.194   8.466   3.013
18727WAT      O56422   2.832   1.765   1.890
18727WAT     H156423   2.912   1.723   1.933
18727WAT     H256424   2.767   1.792   1.960
18728WAT      O56425   2.333   5.688   1.698
18728WAT     H156426   2.368   5.625   1.629
18728WAT     H256427   2.250   5.732   1.663
18729WAT      O56428   4.973   7.754   6.879
18729WAT     H156429   4.890   7.723   6.834
18729WAT     H256430   4.957   7.762   6.977
18730WAT      O56431   9.636   9.815   2.930
18730WAT     H156432   9.553   9.867   2.913
18730WAT     H256433   9.681   9.796   2.842
18731WAT      O56434   6.930   5.098   4.530
18731WAT     H156435   6.973   5.147   4.454
18731WAT     H256436   6.923   5.160   4.609
18732WAT      O56437   0.122   4.049   2.857
18732WAT     H156438   0.159   4.109   2.927
18732WAT     H256439   0.195   3.993   2.818
18733WAT      O56440   8.832   0.642   5.610
18733WAT     H156441   8.930   0.654   5.590
18733WAT     H256442   8.799   0.560   5.562
18734WAT      O56443   1.975   4.536   7.282
18734WAT     H156444   1.925   4.576   7.359
18734WAT     H256445   1.910   4.511   7.210
18735WAT      O56446   7.170   8.704   4.920
18735WAT     H156447   7.127   8.793   4.937
18735WAT     H256448   7.133   8.636   4.984
18736WAT      O56449   2.158   3.066   5.672
18736WAT     H156450   2.159   3.052   5.771
18736WAT     H256451   2.076   3.118   5.647
18737WAT      O56452   7.623   1.830   3.397
18737WAT     H156453   7.573   1.804   3.480
18737WAT     H256454   7.650   1.747   3.347
18738WAT      O56455   6.132   8.399   7.762
18738WAT     H156456   6.055   8.442   7.715
18738WAT     H256457   6.107   8.380   7.857
18739WAT      O56458   5.338   1.296   6.419
18739WAT     H156459   5.242   1.324   6.423
18739WAT     H256460   5.358   1.235   6.495
18740WAT      O56461   2.681   0.063   1.857
18740WAT     H156462   2.768   0.104   1.883
18740WAT     H256463   2.620   0.061   1.935
18741WAT      O56464   3.003   0.849   9.354
18741WAT     H156465   3.044   0.885   9.439
18741WAT     H256466   3.072   0.850   9.282
18742WAT      O56467   0.533   0.171   1.395
18742WAT     H156468   0.580   0.241   1.448
18742WAT     H256469   0.504   0.097   1.455
18743WAT      O56470   9.713   6.213   3.134
18743WAT     H156471   9.627   6.259   3.157
18743WAT     H256472   9.695   6.119   3.108
18744WAT      O56473   7.240   8.734   7.611
18744WAT     H156474   7.241   8.799   7.535
18744WAT     H256475   7.315   8.668   7.600
18745WAT      O56476   3.709   3.029   2.458
18745WAT     H156477   3.790   2.972   2.445
18745WAT     H256478   3.656   2.994   2.535
18746WAT      O56479   4.699   8.975   4.302
18746WAT     H156480   4.742   8.886   4.285
18746WAT     H256481   4.753   9.047   4.258
18747WAT      O56482   7.220   4.615   7.080
18747WAT     H156483   7.280   4.653   7.152
18747WAT     H256484   7.161   4.545   7.120
18748WAT      O56485   4.335   8.865   9.676
18748WAT     H156486   4.321   8.867   9.775
18748WAT     H256487   4.291   8.945   9.634
18749WAT      O56488   1.018   8.310   6.788
18749WAT     H156489   1.001   8.216   6.758
18749WAT     H256490   0.950   8.371   6.748
18750WAT      O56491   4.897   4.050   1.168
18750WAT     H156492   4.885   4.149   1.158
18750WAT     H256493   4.827   4.015   1.230
18751WAT      O56494   2.604   0.768   9.279
18751WAT     H156495   2.505   0.774   9.290
18751WAT     H256496   2.635   0.675   9.299
18752WAT      O56497   1.662   9.360   5.638
18752WAT     H156498   1.642   9.387   5.733
18752WAT     H256499   1.761   9.360   5.624
18753WAT      O56500   1.406   8.571   4.194
18753WAT     H156501   1.496   8.572   4.149
18753WAT     H256502   1.393   8.658   4.243
18754WAT      O56503   4.362   2.773   6.838
18754WAT     H156504   4.395   2.721   6.918
18754WAT     H256505   4.405   2.737   6.755
18755WAT      O56506   0.389   9.104   2.796
18755WAT     H156507   0.415   9.095   2.699
18755WAT     H256508   0.314   9.169   2.804
18756WAT      O56509   8.795   0.117   2.388
18756WAT     H156510   8.843   0.201   2.413
18756WAT     H256511   8.705   0.140   2.350
18757WAT      O56512   6.460   4.002   3.526
18757WAT     H156513   6.499   3.931   3.583
18757WAT     H256514   6.360   3.995   3.528
18758WAT      O56515   4.894   0.367   6.538
18758WAT     H156516   4.869   0.304   6.465
18758WAT     H256517   4.957   0.436   6.503
18759WAT      O56518   3.326   8.258   2.506
18759WAT     H156519   3.403   8.209   2.465
18759WAT     H256520   3.273   8.196   2.563
18760WAT      O56521   7.660   9.531   2.831
18760WAT     H156522   7.584   9.526   2.896
18760WAT     H256523   7.625   9.527   2.737
18761WAT      O56524   8.719   7.287   4.695
18761WAT     H156525   8.675   7.220   4.635
18761WAT     H256526   8.658   7.308   4.772
18762WAT      O56527   5.189   2.525   0.525
18762WAT     H156528   5.220   2.431   0.539
18762WAT     H256529   5.184   2.572   0.613
18763WAT      O56530   2.305   1.859   4.274
18763WAT     H156531   2.209   1.854   4.247
18763WAT     H256532   2.312   1.863   4.374
18764WAT      O56533   0.796   7.096   1.244
18764WAT     H156534   0.752   7.101   1.154
18764WAT     H256535   0.749   7.028   1.300
18765WAT      O56536   3.025   9.415   3.596
18765WAT     H156537   3.115   9.386   3.629
18765WAT     H256538   3.008   9.376   3.506
18766WAT      O56539   1.239   0.126   2.858
18766WAT     H156540   1.211   0.043   2.906
18766WAT     H256541   1.213   0.206   2.913
18767WAT      O56542   3.477   5.485   8.423
18767WAT     H156543   3.489   5.433   8.508
18767WAT     H256544   3.406   5.555   8.437
18768WAT      O56545   9.616   4.213   7.627
18768WAT     H156546   9.692   4.149   7.615
18768WAT     H256547   9.651   4.306   7.639
18769WAT      O56548   2.954   6.451   4.787
18769WAT     H156549   2.926   6.505   4.867
18769WAT     H256550   2.975   6.513   4.711
18770WAT      O56551   8.597   4.168   6.449
18770WAT     H156552   8.693   4.197   6.451
18770WAT     H256553   8.587   4.091   6.386
18771WAT      O56554   7.207   9.236   9.253
18771WAT     H156555   7.260   9.171   9.199
18771WAT     H256556   7.267   9.307   9.290
18772WAT      O56557   1.548   2.405   6.172
18772WAT     H156558   1.540   2.403   6.073
18772WAT     H256559   1.475   2.351   6.213
18773WAT      O56560   6.003   1.661   0.963
18773WAT     H156561   6.077   1.604   0.998
18773WAT     H256562   6.041   1.744   0.922
18774WAT      O56563   2.720   9.485  -0.003
18774WAT     H156564   2.799   9.540   0.022
18774WAT     H256565   2.639   9.520   0.045
18775WAT      O56566   6.716   3.466   1.826
18775WAT     H156567   6.704   3.559   1.791
18775WAT     H256568   6.771   3.469   1.910
18776WAT      O56569   6.029   3.426   1.772
18776WAT     H156570   6.120   3.442   1.734
18776WAT     H256571   6.007   3.329   1.768
18777WAT      O56572   5.363   7.494   2.949
18777WAT     H156573   5.357   7.410   3.003
18777WAT     H256574   5.416   7.562   3.000
18778WAT      O56575   2.687   5.430   7.251
18778WAT     H156576   2.617   5.501   7.258
18778WAT     H256577   2.772   5.471   7.216
18779WAT      O56578   1.801   4.270   6.319
18779WAT     H156579   1.832   4.224   6.402
18779WAT     H256580   1.829   4.217   6.239
18780WAT      O56581   6.352   7.567   7.277
18780WAT     H156582   6.366   7.662   7.303
18780WAT     H256583   6.255   7.544   7.284
18781WAT      O56584   4.582   3.059   0.272
18781WAT     H156585   4.614   2.977   0.224
18781WAT     H256586   4.534   3.118   0.208
18782WAT      O56587   9.056   8.107   9.078
18782WAT     H156588   9.137   8.156   9.108
18782WAT     H256589   8.992   8.171   9.035
18783WAT      O56590   3.683   5.131   3.461
18783WAT     H156591   3.742   5.055   3.487
18783WAT     H256592   3.739   5.208   3.430
18784WAT      O56593   2.463   4.011   3.996
18784WAT     H156594   2.561   4.009   4.019
18784WAT     H256595   2.428   3.917   3.992
18785WAT      O56596   6.821   8.894   2.584
18785WAT     H156597   6.811   8.795   2.575
18785WAT     H256598   6.872   8.930   2.506
18786WAT      O56599   0.146   5.139   1.726
18786WAT     H156600   0.098   5.100   1.804
18786WAT     H256601   0.235   5.175   1.756
18787WAT      O56602   4.089   5.698   1.648
18787WAT     H156603   4.113   5.602   1.663
18787WAT     H256604   4.127   5.728   1.560
18788WAT      O56605   9.636   2.091   5.514
18788WAT     H156606   9.672   2.119   5.425
18788WAT     H256607   9.706   2.106   5.584
18789WAT      O56608   5.915   2.897   0.414
18789WAT     H156609   6.003   2.945   0.419
18789WAT     H256610   5.861   2.934   0.338
18790WAT      O56611   1.922   1.200   0.181
18790WAT     H156612   1.967   1.111   0.183
18790WAT     H256613   1.967   1.258   0.113
18791WAT      O56614   3.569   6.411   2.087
18791WAT     H156615   3.573   6.484   2.019
18791WAT     H256616   3.494   6.349   2.065
18792WAT      O56617   7.075   2.892   0.861
18792WAT     H156618   7.111   2.967   0.916
18792WAT     H256619   6.983   2.868   0.892
18793WAT      O56620   7.697   0.779   9.559
18793WAT     H156621   7.629   0.709   9.537
18793WAT     H256622   7.677   0.862   9.508
18794WAT      O56623   1.140   0.794   2.407
18794WAT     H156624   1.193   0.709   2.400
18794WAT     H256625   1.201   0.872   2.397
18795WAT      O56626   6.544   3.485   5.555
18795WAT     H156627   6.460   3.537   5.567
18795WAT     H256628   6.620   3.534   5.596
18796WAT      O56629   1.424   4.309   6.671
18796WAT     H156630   1.380   4.301   6.581
18796WAT     H256631   1.520   4.335   6.659
18797WAT      O56632   6.321   2.136   2.688
18797WAT     H156633   6.228   2.167   2.670
18797WAT     H256634   6.348   2.069   2.619
18798WAT      O56635   8.450   0.471   3.778
18798WAT     H156636   8.532   0.423   3.810
18798WAT     H256637   8.371   0.410   3.787
18799WAT      O56638   2.934   7.067   0.467
18799WAT     H156639   2.967   7.161   0.469
18799WAT     H256640   2.849   7.060   0.519
18800WAT      O56641   8.270   1.551   6.607
18800WAT     H156642   8.350   1.568   6.666
18800WAT     H256643   8.276   1.609   6.526
18801WAT      O56644   5.948   0.019   8.488
18801WAT     H156645   6.023   0.065   8.441
18801WAT     H256646   5.912  -0.054   8.431
18802WAT      O56647   0.497   0.901   5.906
18802WAT     H156648   0.593   0.888   5.880
18802WAT     H256649   0.450   0.813   5.908
18803WAT      O56650   8.437   2.278   3.944
18803WAT     H156651   8.404   2.253   3.853
18803WAT     H256652   8.522   2.329   3.936
18804WAT      O56653   7.115   3.677   4.569
18804WAT     H156654   7.095   3.643   4.478
18804WAT     H256655   7.101   3.603   4.636
18805WAT      O56656   1.607   3.632   4.606
18805WAT     H156657   1.518   3.612   4.647
18805WAT     H256658   1.678   3.623   4.677
18806WAT      O56659   3.740   4.027   0.512
18806WAT     H156660   3.831   3.999   0.481
18806WAT     H256661   3.722   4.120   0.483
18807WAT      O56662   8.981   4.505   6.855
18807WAT     H156663   8.911   4.450   6.809
18807WAT     H256664   8.948   4.599   6.865
18808WAT      O56665   7.084   3.603   7.232
18808WAT     H156666   7.040   3.602   7.322
18808WAT     H256667   7.072   3.514   7.188
18809WAT      O56668   7.278   8.980   5.426
18809WAT     H156669   7.258   8.882   5.430
18809WAT     H256670   7.377   8.994   5.432
18810WAT      O56671   2.156   4.061   7.490
18810WAT     H156672   2.059   4.055   7.469
18810WAT     H256673   2.209   4.014   7.420
18811WAT      O56674   6.716   3.657   4.534
18811WAT     H156675   6.757   3.623   4.450
18811WAT     H256676   6.724   3.757   4.538
18812WAT      O56677   5.018   7.920   8.228
18812WAT     H156678   4.930   7.928   8.182
18812WAT     H256679   5.041   8.007   8.271
18813WAT      O56680   7.369   9.193   0.870
18813WAT     H156681   7.373   9.291   0.893
18813WAT     H256682   7.448   9.146   0.910
18814WAT      O56683   1.219   3.205   8.965
18814WAT     H156684   1.302   3.151   8.980
18814WAT     H256685   1.228   3.293   9.011
18815WAT      O56686   3.483   1.480   9.792
18815WAT     H156687   3.532   1.565   9.812
18815WAT     H256688   3.549   1.408   9.772
18816WAT      O56689   6.973   5.170   3.250
18816WAT     H156690   6.929   5.257   3.225
18816WAT     H256691   6.923   5.095   3.208
18817WAT      O56692   7.736   6.564   5.722
18817WAT     H156693   7.698   6.472   5.731
18817WAT     H256694   7.734   6.592   5.626
18818WAT      O56695   6.699   8.278   1.318
18818WAT     H156696   6.686   8.365   1.271
18818WAT     H256697   6.742   8.294   1.407
18819WAT      O56698   3.237   6.551   4.855
18819WAT     H156699   3.188   6.553   4.768
18819WAT     H256700   3.246   6.644   4.890
18820WAT      O56701   4.688   6.652   1.138
18820WAT     H156702   4.647   6.564   1.161
18820WAT     H256703   4.656   6.681   1.048
18821WAT      O56704   2.124   2.685   6.211
18821WAT     H156705   2.184   2.765   6.204
18821WAT     H256706   2.049   2.695   6.146
18822WAT      O56707   5.892   4.122   6.961
18822WAT     H156708   5.819   4.173   7.007
18822WAT     H256709   5.937   4.062   7.028
18823WAT      O56710   3.185   3.086   3.993
18823WAT     H156711   3.215   3.123   4.081
18823WAT     H256712   3.255   3.103   3.924
18824WAT      O56713   1.539   4.018   8.531
18824WAT     H156714   1.636   4.033   8.548
18824WAT     H256715   1.485   4.079   8.590
18825WAT      O56716   4.459   9.232   0.207
18825WAT     H156717   4.406   9.297   0.153
18825WAT     H256718   4.498   9.278   0.286
18826WAT      O56719   7.164   2.183   3.366
18826WAT     H156720   7.171   2.095   3.319
18826WAT     H256721   7.161   2.257   3.298
18827WAT      O56722   6.726   8.755   3.700
18827WAT     H156723   6.735   8.854   3.690
18827WAT     H256724   6.668   8.720   3.627
18828WAT      O56725   0.690   2.723   7.550
18828WAT     H156726   0.616   2.737   7.485
18828WAT     H256727   0.692   2.799   7.615
18829WAT      O56728   5.262   4.853   7.138
18829WAT     H156729   5.269   4.827   7.041
18829WAT     H256730   5.181   4.911   7.151
18830WAT      O56731   5.795   9.234   9.778
18830WAT     H156732   5.871   9.286   9.819
18830WAT     H256733   5.735   9.201   9.850
18831WAT      O56734   2.746   0.801   1.418
18831WAT     H156735   2.818   0.835   1.357
18831WAT     H256736   2.785   0.787   1.510
18832WAT      O56737   5.213   8.235   2.504
18832WAT     H156738   5.312   8.218   2.504
18832WAT     H256739   5.164   8.148   2.509
18833WAT      O56740   5.110   3.583   0.968
18833WAT     H156741   5.048   3.597   0.890
18833WAT     H256742   5.205   3.585   0.936
18834WAT      O56743   0.762   8.980   2.929
18834WAT     H156744   0.689   8.914   2.947
18834WAT     H256745   0.733   9.043   2.857
18835WAT      O56746   8.859   0.727   2.173
18835WAT     H156747   8.914   0.644   2.186
18835WAT     H256748   8.798   0.715   2.095
18836WAT      O56749   3.933   3.615   6.714
18836WAT     H156750   4.023   3.601   6.673
18836WAT     H256751   3.925   3.710   6.745
18837WAT      O56752   0.961   3.095   3.950
18837WAT     H156753   0.869   3.071   3.981
18837WAT     H256754   1.023   3.018   3.965
18838WAT      O56755   2.027   2.746   7.768
18838WAT     H156756   2.086   2.779   7.842
18838WAT     H256757   2.063   2.776   7.680
18839WAT      O56758   1.604   7.183   0.407
18839WAT     H156759   1.552   7.178   0.322
18839WAT     H256760   1.657   7.268   0.409
18840WAT      O56761   2.876   1.586   0.217
18840WAT     H156762   2.876   1.600   0.118
18840WAT     H256763   2.971   1.585   0.251
18841WAT      O56764   1.661   4.212   5.353
18841WAT     H156765   1.738   4.270   5.326
18841WAT     H256766   1.613   4.255   5.429
18842WAT      O56767   3.739   8.795   8.954
18842WAT     H156768   3.759   8.785   8.857
18842WAT     H256769   3.819   8.834   9.001
18843WAT      O56770   2.612   3.595   9.840
18843WAT     H156771   2.682   3.657   9.874
18843WAT     H256772   2.646   3.546   9.760
18844WAT      O56773   1.058   0.540   0.039
18844WAT     H156774   1.019   0.632   0.031
18844WAT     H256775   1.157   0.545   0.026
18845WAT      O56776   3.134   2.087   2.592
18845WAT     H156777   3.227   2.122   2.578
18845WAT     H256778   3.138   2.002   2.646
18846WAT      O56779   1.069   7.704   0.483
18846WAT     H156780   1.074   7.771   0.556
18846WAT     H256781   1.131   7.731   0.409
18847WAT      O56782   1.267   2.248   0.061
18847WAT     H156783   1.268   2.230  -0.038
18847WAT     H256784   1.329   2.324   0.081
18848WAT      O56785   8.520   1.370   5.158
18848WAT     H156786   8.556   1.364   5.251
18848WAT     H256787   8.581   1.425   5.102
18849WAT      O56788   7.285   0.264   6.564
18849WAT     H156789   7.238   0.177   6.552
18849WAT     H256790   7.370   0.250   6.614
18850WAT      O56791   8.423   3.098   0.708
18850WAT     H156792   8.343   3.109   0.768
18850WAT     H256793   8.445   3.001   0.700
18851WAT      O56794   5.973   7.611   2.196
18851WAT     H156795   5.899   7.627   2.262
18851WAT     H256796   5.976   7.514   2.172
18852WAT      O56797   0.035   5.261   3.282
18852WAT     H156798   0.081   5.340   3.323
18852WAT     H256799   0.081   5.238   3.196
18853WAT      O56800   8.098   3.759   8.016
18853WAT     H156801   8.120   3.752   7.918
18853WAT     H256802   8.155   3.830   8.058
18854WAT      O56803   9.546   2.252   6.217
18854WAT     H156804   9.597   2.287   6.139
18854WAT     H256805   9.468   2.198   6.185
18855WAT      O56806   8.206   1.601   4.927
18855WAT     H156807   8.142   1.535   4.966
18855WAT     H256808   8.244   1.564   4.842
18856WAT      O56809   9.516   2.798   8.920
18856WAT     H156810   9.556   2.887   8.897
18856WAT     H256811   9.590   2.732   8.932
18857WAT      O56812   6.765   9.830   8.499
18857WAT     H156813   6.739   9.829   8.402
18857WAT     H256814   6.860   9.801   8.509
18858WAT      O56815   0.498   3.302   3.142
18858WAT     H156816   0.483   3.387   3.092
18858WAT     H256817   0.466   3.225   3.086
18859WAT      O56818   9.097   3.648   4.315
18859WAT     H156819   9.190   3.685   4.319
18859WAT     H256820   9.035   3.708   4.365
18860WAT      O56821   0.141   9.246   5.393
18860WAT     H156822   0.152   9.345   5.393
18860WAT     H256823   0.136   9.213   5.299
18861WAT      O56824   5.445   0.267   8.263
18861WAT     H156825   5.489   0.210   8.194
18861WAT     H256826   5.494   0.257   8.350
18862WAT      O56827   0.341   1.240   6.601
18862WAT     H156828   0.337   1.243   6.700
18862WAT     H256829   0.367   1.330   6.565
18863WAT      O56830   6.547   8.213   6.368
18863WAT     H156831   6.546   8.129   6.423
18863WAT     H256832   6.633   8.219   6.318
18864WAT      O56833   2.635   6.231   9.232
18864WAT     H156834   2.539   6.239   9.259
18864WAT     H256835   2.644   6.159   9.164
18865WAT      O56836   1.308   2.455   2.796
18865WAT     H156837   1.363   2.447   2.879
18865WAT     H256838   1.351   2.521   2.734
18866WAT      O56839   8.108   2.415   6.327
18866WAT     H156840   8.035   2.351   6.351
18866WAT     H256841   8.091   2.503   6.371
18867WAT      O56842   8.734   4.705   2.671
18867WAT     H156843   8.662   4.691   2.604
18867WAT     H256844   8.823   4.708   2.624
18868WAT      O56845   4.402   3.266   2.015
18868WAT     H156846   4.494   3.227   2.013
18868WAT     H256847   4.397   3.342   1.951
18869WAT      O56848   8.911   9.353   7.478
18869WAT     H156849   8.922   9.284   7.549
18869WAT     H256850   8.842   9.419   7.507
18870WAT      O56851   3.689   8.367   8.486
18870WAT     H156852   3.593   8.382   8.460
18870WAT     H256853   3.706   8.269   8.496
18871WAT      O56854   5.555   1.696   4.151
18871WAT     H156855   5.579   1.731   4.242
18871WAT     H256856   5.611   1.743   4.082
18872WAT      O56857   8.968   3.281   1.686
18872WAT     H156858   8.923   3.358   1.731
18872WAT     H256859   8.947   3.197   1.735
18873WAT      O56860   1.524   4.435   9.064
18873WAT     H156861   1.589   4.437   8.987
18873WAT     H256862   1.567   4.389   9.142
18874WAT      O56863   2.154   3.904   8.204
18874WAT     H156864   2.191   3.936   8.116
18874WAT     H256865   2.057   3.882   8.194
18875WAT      O56866   2.065   4.033   5.696
18875WAT     H156867   2.055   4.101   5.623
18875WAT     H256868   2.003   3.957   5.679
18876WAT      O56869   5.646   4.754   5.752
18876WAT     H156870   5.562   4.726   5.705
18876WAT     H256871   5.689   4.674   5.794
18877WAT      O56872   8.498   9.497   5.474
18877WAT     H156873   8.518   9.595   5.484
18877WAT     H256874   8.537   9.464   5.389
18878WAT      O56875   1.262   3.357   2.727
18878WAT     H156876   1.320   3.433   2.755
18878WAT     H256877   1.172   3.366   2.770
18879WAT      O56878   1.714   8.571   7.624
18879WAT     H156879   1.650   8.562   7.547
18879WAT     H256880   1.761   8.659   7.617
18880WAT      O56881   2.870   9.221   2.978
18880WAT     H156882   2.906   9.307   2.942
18880WAT     H256883   2.942   9.174   3.029
18881WAT      O56884   7.503   1.756   3.625
18881WAT     H156885   7.505   1.662   3.660
18881WAT     H256886   7.550   1.816   3.689
18882WAT      O56887   3.775   8.174   3.900
18882WAT     H156888   3.730   8.263   3.896
18882WAT     H256889   3.873   8.187   3.914
18883WAT      O56890   0.139   0.485   0.295
18883WAT     H156891   0.217   0.440   0.337
18883WAT     H256892   0.108   0.560   0.354
18884WAT      O56893   7.789   0.154   9.782
18884WAT     H156894   7.759   0.059   9.773
18884WAT     H256895   7.819   0.188   9.693
18885WAT      O56896   3.491   0.490   5.995
18885WAT     H156897   3.417   0.460   5.935
18885WAT     H256898   3.579   0.477   5.949
18886WAT      O56899   1.645   8.301   2.851
18886WAT     H156900   1.693   8.291   2.938
18886WAT     H256901   1.559   8.251   2.854
18887WAT      O56902   0.379   7.209   7.989
18887WAT     H156903   0.374   7.308   7.976
18887WAT     H256904   0.393   7.189   8.086
18888WAT      O56905   0.282   5.578   0.154
18888WAT     H156906   0.322   5.549   0.067
18888WAT     H256907   0.193   5.622   0.137
18889WAT      O56908   7.342   6.007   6.900
18889WAT     H156909   7.421   5.990   6.959
18889WAT     H256910   7.311   5.920   6.861
18890WAT      O56911   9.272   2.302   8.919
18890WAT     H156912   9.189   2.315   8.974
18890WAT     H256913   9.256   2.229   8.852
18891WAT      O56914   4.408   3.595   8.502
18891WAT     H156915   4.313   3.604   8.474
18891WAT     H256916   4.412   3.578   8.601
18892WAT      O56917   9.213   2.025   0.394
18892WAT     H156918   9.157   2.101   0.359
18892WAT     H256919   9.238   2.044   0.489
18893WAT      O56920   7.553   3.282   4.031
18893WAT     H156921   7.614   3.314   4.103
18893WAT     H256922   7.458   3.296   4.059
18894WAT      O56923   3.676   1.451   2.830
18894WAT     H156924   3.632   1.438   2.919
18894WAT     H256925   3.624   1.402   2.760
18895WAT      O56926   9.716   0.465   9.111
18895WAT     H156927   9.667   0.392   9.159
18895WAT     H256928   9.796   0.426   9.066
18896WAT      O56929   0.791   2.109   9.728
18896WAT     H156930   0.810   2.047   9.652
18896WAT     H256931   0.750   2.058   9.803
18897WAT      O56932   8.980   8.289   5.100
18897WAT     H156933   8.989   8.199   5.144
18897WAT     H256934   9.030   8.357   5.153
18898WAT      O56935   3.376   5.401   2.166
18898WAT     H156936   3.334   5.482   2.124
18898WAT     H256937   3.472   5.420   2.185
18899WAT      O56938   2.002   3.573   5.349
18899WAT     H156939   2.016   3.489   5.297
18899WAT     H256940   1.904   3.593   5.354
18900WAT      O56941   1.634   5.158   4.653
18900WAT     H156942   1.564   5.197   4.592
18900WAT     H256943   1.590   5.098   4.719
18901WAT      O56944   1.230   3.288   0.868
18901WAT     H156945   1.171   3.303   0.947
18901WAT     H256946   1.176   3.300   0.784
18902WAT      O56947   3.977   1.261   8.816
18902WAT     H156948   3.973   1.274   8.915
18902WAT     H256949   4.063   1.217   8.792
18903WAT      O56950   2.609   4.454   1.605
18903WAT     H156951   2.540   4.487   1.541
18903WAT     H256952   2.664   4.383   1.562
18904WAT      O56953   5.189   6.357   2.340
18904WAT     H156954   5.132   6.343   2.421
18904WAT     H256955   5.177   6.450   2.306
18905WAT      O56956   5.582   4.922   4.203
18905WAT     H156957   5.599   4.982   4.125
18905WAT     H256958   5.529   4.971   4.272
18906WAT      O56959   2.494   9.200   3.332
18906WAT     H156960   2.551   9.225   3.253
18906WAT     H256961   2.536   9.234   3.416
18907WAT      O56962   4.952   6.134   6.425
18907WAT     H156963   4.854   6.150   6.437
18907WAT     H256964   4.983   6.064   6.490
18908WAT      O56965   9.195   6.972   3.164
18908WAT     H156966   9.257   7.050   3.170
18908WAT     H256967   9.128   6.990   3.092
18909WAT      O56968   8.454   8.032   1.710
18909WAT     H156969   8.461   8.038   1.610
18909WAT     H256970   8.376   8.088   1.740
18910WAT      O56971   8.275   6.126   6.131
18910WAT     H156972   8.340   6.187   6.087
18910WAT     H256973   8.320   6.040   6.154
18911WAT      O56974   8.223   9.759   2.878
18911WAT     H156975   8.169   9.819   2.819
18911WAT     H256976   8.207   9.785   2.974
18912WAT      O56977   6.902   1.704   0.753
18912WAT     H156978   6.873   1.753   0.834
18912WAT     H256979   6.865   1.748   0.671
18913WAT      O56980   0.092   4.849   9.872
18913WAT     H156981   0.176   4.868   9.822
18913WAT     H256982   0.106   4.867   9.969
18914WAT      O56983   9.793   3.250   9.335
18914WAT     H156984   9.786   3.152   9.353
18914WAT     H256985   9.704   3.293   9.347
18915WAT      O56986   4.702   8.971   2.453
18915WAT     H156987   4.697   9.053   2.397
18915WAT     H256988   4.795   8.935   2.453
18916WAT      O56989   6.646   9.519   8.525
18916WAT     H156990   6.616   9.566   8.442
18916WAT     H256991   6.599   9.559   8.604
18917WAT      O56992   1.743   2.708   7.378
18917WAT     H156993   1.676   2.676   7.312
18917WAT     H256994   1.705   2.703   7.470
18918WAT      O56995   8.564   5.127   1.431
18918WAT     H156996   8.506   5.048   1.449
18918WAT     H256997   8.615   5.151   1.513
18919WAT      O56998   2.920   2.604   3.082
18919WAT     H156999   2.986   2.659   3.133
18919WAT     H257000   2.909   2.516   3.126
18920WAT      O57001   4.665   7.873   8.772
18920WAT     H157002   4.597   7.944   8.752
18920WAT     H257003   4.625   7.783   8.754
18921WAT      O57004   1.605   6.649   3.303
18921WAT     H157005   1.584   6.660   3.206
18921WAT     H257006   1.689   6.597   3.313
18922WAT      O57007   6.526   2.129   9.026
18922WAT     H157008   6.583   2.089   9.097
18922WAT     H257009   6.572   2.209   8.987
18923WAT      O57010   7.237   4.108   0.415
18923WAT     H157011   7.246   4.166   0.335
18923WAT     H257012   7.242   4.164   0.498
18924WAT      O57013   1.583   1.882   8.865
18924WAT     H157014   1.574   1.867   8.767
18924WAT     H257015   1.496   1.859   8.910
18925WAT      O57016   8.906   4.533   3.254
18925WAT     H157017   8.840   4.608   3.260
18925WAT     H257018   8.858   4.446   3.259
18926WAT      O57019   8.160   9.231   0.151
18926WAT     H157020   8.239   9.275   0.108
18926WAT     H257021   8.187   9.193   0.240
18927WAT      O57022   4.765   0.487   8.733
18927WAT     H157023   4.684   0.502   8.677
18927WAT     H257024   4.825   0.421   8.688
18928WAT      O57025   6.579   7.027   8.869
18928WAT     H157026   6.508   7.092   8.843
18928WAT     H257027   6.661   7.043   8.814
18929WAT      O57028   5.448   4.198   8.659
18929WAT     H157029   5.507   4.224   8.735
18929WAT     H257030   5.352   4.208   8.687
18930WAT      O57031   1.786   7.641   1.112
18930WAT     H157032   1.747   7.552   1.132
18930WAT     H257033   1.803   7.650   1.014
18931WAT      O57034   0.862   5.205   0.206
18931WAT     H157035   0.952   5.165   0.223
18931WAT     H257036   0.811   5.145   0.144
18932WAT      O57037   8.370   9.260   8.698
18932WAT     H157038   8.288   9.234   8.648
18932WAT     H257039   8.394   9.188   8.762
18933WAT      O57040   7.135   9.686   9.481
18933WAT     H157041   7.198   9.630   9.428
18933WAT     H257042   7.145   9.782   9.454
18934WAT      O57043   6.225   0.384   7.170
18934WAT     H157044   6.312   0.434   7.170
18934WAT     H257045   6.149   0.449   7.163
18935WAT      O57046   6.354   7.659   0.426
18935WAT     H157047   6.310   7.674   0.337
18935WAT     H257048   6.371   7.746   0.471
18936WAT      O57049   1.016   1.444   1.375
18936WAT     H157050   1.077   1.387   1.430
18936WAT     H257051   0.928   1.453   1.421
18937WAT      O57052   4.157   4.342   5.478
18937WAT     H157053   4.153   4.257   5.530
18937WAT     H257054   4.166   4.321   5.381
18938WAT      O57055   5.491   6.124   1.113
18938WAT     H157056   5.460   6.114   1.018
18938WAT     H257057   5.564   6.193   1.117
18939WAT      O57058   9.381   3.130   5.401
18939WAT     H157059   9.442   3.081   5.339
18939WAT     H257060   9.293   3.145   5.356
18940WAT      O57061   8.885   6.435   6.223
18940WAT     H157062   8.900   6.523   6.267
18940WAT     H257063   8.787   6.414   6.222
18941WAT      O57064   2.257   1.814   0.684
18941WAT     H157065   2.184   1.864   0.638
18941WAT     H257066   2.223   1.777   0.770
18942WAT      O57067   3.554   0.743   2.384
18942WAT     H157068   3.569   0.675   2.455
18942WAT     H257069   3.472   0.720   2.331
18943WAT      O57070   2.144   9.256   2.162
18943WAT     H157071   2.045   9.246   2.151
18943WAT     H257072   2.176   9.333   2.107
18944WAT      O57073   2.805   3.823   3.134
18944WAT     H157074   2.714   3.864   3.142
18944WAT     H257075   2.841   3.840   3.042
18945WAT      O57076   9.341   9.535   1.795
18945WAT     H157077   9.389   9.602   1.739
18945WAT     H257078   9.362   9.551   1.892
18946WAT      O57079   9.717   0.753   9.593
18946WAT     H157080   9.648   0.730   9.662
18946WAT     H257081   9.780   0.822   9.630
18947WAT      O57082   7.003   1.989   4.551
18947WAT     H157083   6.938   1.916   4.575
18947WAT     H257084   6.957   2.077   4.556
18948WAT      O57085   2.722   2.160   8.523
18948WAT     H157086   2.650   2.138   8.589
18948WAT     H257087   2.807   2.177   8.572
18949WAT      O57088   1.544   1.215   9.276
18949WAT     H157089   1.472   1.284   9.279
18949WAT     H257090   1.535   1.154   9.355
18950WAT      O57091   7.322   9.523   8.448
18950WAT     H157092   7.279   9.455   8.388
18950WAT     H257093   7.417   9.537   8.420
18951WAT      O57094   2.686   8.175   5.321
18951WAT     H157095   2.779   8.211   5.317
18951WAT     H257096   2.673   8.126   5.407
18952WAT      O57097   8.784   3.225   2.737
18952WAT     H157098   8.846   3.157   2.699
18952WAT     H257099   8.730   3.267   2.664
18953WAT      O57100   6.163   6.224   3.492
18953WAT     H157101   6.123   6.307   3.531
18953WAT     H257102   6.120   6.144   3.534
18954WAT      O57103   0.405   1.474   3.205
18954WAT     H157104   0.477   1.450   3.140
18954WAT     H257105   0.319   1.485   3.157
18955WAT      O57106   3.007   5.703   7.474
18955WAT     H157107   3.035   5.729   7.566
18955WAT     H257108   2.929   5.759   7.446
18956WAT      O57109   2.304   6.642   5.483
18956WAT     H157110   2.256   6.719   5.440
18956WAT     H257111   2.320   6.571   5.414
18957WAT      O57112   5.622   5.916   5.721
18957WAT     H157113   5.596   5.824   5.691
18957WAT     H257114   5.691   5.908   5.793
18958WAT      O57115   0.585   7.220   3.365
18958WAT     H157116   0.543   7.194   3.279
18958WAT     H257117   0.598   7.319   3.368
18959WAT      O57118   9.587   3.265   2.534
18959WAT     H157119   9.535   3.234   2.454
18959WAT     H257120   9.610   3.187   2.591
18960WAT      O57121   6.479   6.404   7.914
18960WAT     H157122   6.499   6.306   7.910
18960WAT     H257123   6.388   6.421   7.878
18961WAT      O57124   2.279   3.126   0.312
18961WAT     H157125   2.180   3.140   0.309
18961WAT     H257126   2.325   3.214   0.317
18962WAT      O57127   0.037   3.010   6.859
18962WAT     H157128   0.125   2.974   6.830
18962WAT     H257129   0.032   3.010   6.959
18963WAT      O57130   1.356   2.739   1.206
18963WAT     H157131   1.383   2.657   1.155
18963WAT     H257132   1.261   2.728   1.238
18964WAT      O57133   9.185   2.719   3.775
18964WAT     H157134   9.268   2.691   3.728
18964WAT     H257135   9.148   2.801   3.731
18965WAT      O57136   7.229   4.055   3.149
18965WAT     H157137   7.231   4.111   3.066
18965WAT     H257138   7.295   3.981   3.140
18966WAT      O57139   0.193   9.788   6.463
18966WAT     H157140   0.121   9.852   6.434
18966WAT     H257141   0.165   9.695   6.441
18967WAT      O57142   8.794   5.573   5.338
18967WAT     H157143   8.845   5.496   5.374
18967WAT     H257144   8.813   5.655   5.393
18968WAT      O57145   1.162   8.296   3.682
18968WAT     H157146   1.074   8.344   3.682
18968WAT     H257147   1.150   8.206   3.639
18969WAT      O57148   1.919   5.917   1.875
18969WAT     H157149   1.858   5.967   1.815
18969WAT     H257150   1.980   5.859   1.821
18970WAT      O57151   8.958   9.005   6.419
18970WAT     H157152   8.881   9.018   6.357
18970WAT     H257153   9.029   9.072   6.397
18971WAT      O57154   7.701   4.734   6.462
18971WAT     H157155   7.699   4.726   6.561
18971WAT     H257156   7.758   4.812   6.435
18972WAT      O57157   5.482   3.179   5.153
18972WAT     H157158   5.560   3.124   5.121
18972WAT     H257159   5.440   3.134   5.232
18973WAT      O57160   7.030   2.093   6.855
18973WAT     H157161   6.956   2.160   6.861
18973WAT     H257162   7.031   2.053   6.763
18974WAT      O57163   8.956   7.280   1.387
18974WAT     H157164   9.046   7.237   1.394
18974WAT     H257165   8.941   7.312   1.293
18975WAT      O57166   6.814   4.685   2.570
18975WAT     H157167   6.778   4.766   2.524
18975WAT     H257168   6.803   4.696   2.669
18976WAT      O57169   1.205   1.119   9.213
18976WAT     H157170   1.237   1.213   9.225
18976WAT     H257171   1.282   1.061   9.186
18977WAT      O57172   2.355   8.273   4.381
18977WAT     H157173   2.307   8.300   4.297
18977WAT     H257174   2.379   8.176   4.376
18978WAT      O57175   4.472   4.525   0.982
18978WAT     H157176   4.545   4.519   0.914
18978WAT     H257177   4.446   4.621   0.996
18979WAT      O57178   4.248   8.315   6.411
18979WAT     H157179   4.244   8.221   6.445
18979WAT     H257180   4.244   8.315   6.311
18980WAT      O57181   0.639   0.076   7.967
18980WAT     H157182   0.642   0.140   8.044
18980WAT     H257183   0.597   0.121   7.889
18981WAT      O57184   7.492   0.449   3.206
18981WAT     H157185   7.533   0.470   3.117
18981WAT     H257186   7.495   0.530   3.264
18982WAT      O57187   8.327   6.746   8.706
18982WAT     H157188   8.247   6.731   8.765
18982WAT     H257189   8.299   6.798   8.625
18983WAT      O57190   9.209   6.528   7.447
18983WAT     H157191   9.260   6.469   7.384
18983WAT     H257192   9.219   6.493   7.540
18984WAT      O57193   3.472   4.011   5.279
18984WAT     H157194   3.400   3.942   5.268
18984WAT     H257195   3.484   4.030   5.377
18985WAT      O57196   8.551   4.705   2.481
18985WAT     H157197   8.470   4.729   2.534
18985WAT     H257198   8.562   4.769   2.405
18986WAT      O57199   8.788   5.280   8.642
18986WAT     H157200   8.787   5.358   8.580
18986WAT     H257201   8.713   5.217   8.619
18987WAT      O57202   8.310   6.801   4.297
18987WAT     H157203   8.267   6.810   4.207
18987WAT     H257204   8.245   6.757   4.360
18988WAT      O57205   8.219   6.715   7.206
18988WAT     H157206   8.246   6.629   7.248
18988WAT     H257207   8.249   6.791   7.265
18989WAT      O57208   9.564   2.376   3.696
18989WAT     H157209   9.656   2.347   3.725
18989WAT     H257210   9.573   2.449   3.628
18990WAT      O57211   5.820   8.773   9.649
18990WAT     H157212   5.900   8.714   9.658
18990WAT     H257213   5.844   8.867   9.673
18991WAT      O57214   6.056   5.202   5.195
18991WAT     H157215   6.062   5.128   5.261
18991WAT     H257216   6.046   5.290   5.243
18992WAT      O57217   9.342   2.880   1.919
18992WAT     H157218   9.426   2.825   1.912
18992WAT     H257219   9.340   2.927   2.007
18993WAT      O57220   0.444   4.875   4.396
18993WAT     H157221   0.544   4.881   4.396
18993WAT     H257222   0.413   4.831   4.312
18994WAT      O57223   1.029   1.833   3.702
18994WAT     H157224   1.117   1.827   3.656
18994WAT     H257225   1.041   1.873   3.793
18995WAT      O57226   7.465   6.048   4.065
18995WAT     H157227   7.403   6.032   4.141
18995WAT     H257228   7.430   6.003   3.983
18996WAT      O57229   3.455   5.840   5.359
18996WAT     H157230   3.483   5.761   5.305
18996WAT     H257231   3.494   5.923   5.318
18997WAT      O57232   2.069   2.147   8.775
18997WAT     H157233   2.121   2.185   8.852
18997WAT     H257234   2.079   2.048   8.774
18998WAT      O57235   4.835   4.947   2.855
18998WAT     H157236   4.788   5.036   2.853
18998WAT     H257237   4.930   4.958   2.825
18999WAT      O57238   9.376   3.226   1.344
18999WAT     H157239   9.289   3.202   1.388
18999WAT     H257240   9.386   3.326   1.343
19000WAT      O57241   5.595   2.260   7.586
19000WAT     H157242   5.545   2.292   7.666
19000WAT     H257243   5.574   2.318   7.507
19001WAT      O57244   2.342   8.958   4.991
19001WAT     H157245   2.267   8.970   4.926
19001WAT     H257246   2.409   9.032   4.979
19002WAT      O57247   8.279   0.835   6.309
19002WAT     H157248   8.292   0.927   6.346
19002WAT     H257249   8.274   0.839   6.210
19003WAT      O57250   3.569   0.148   7.870
19003WAT     H157251   3.661   0.175   7.897
19003WAT     H257252   3.543   0.197   7.787
19004WAT      O57253   8.533   6.222   7.215
19004WAT     H157254   8.478   6.296   7.177
19004WAT     H257255   8.596   6.260   7.284
19005WAT      O57256   6.347   4.348   6.845
19005WAT     H157257   6.311   4.358   6.752
19005WAT     H257258   6.281   4.385   6.910
19006WAT      O57259   0.509   9.533   1.088
19006WAT     H157260   0.525   9.606   1.021
19006WAT     H257261   0.430   9.479   1.061
19007WAT      O57262   4.883   9.772   8.600
19007WAT     H157263   4.978   9.786   8.571
19007WAT     H257264   4.822   9.800   8.527
19008WAT      O57265   9.032   3.633   6.949
19008WAT     H157266   9.104   3.574   6.984
19008WAT     H257267   9.072   3.711   6.901
19009WAT      O57268   6.928   3.810   2.332
19009WAT     H157269   6.906   3.796   2.235
19009WAT     H257270   6.901   3.902   2.360
19010WAT      O57271   0.485   9.108   1.964
19010WAT     H157272   0.564   9.165   1.989
19010WAT     H257273   0.422   9.162   1.908
19011WAT      O57274   4.899   1.938   5.498
19011WAT     H157275   4.956   2.007   5.543
19011WAT     H257276   4.930   1.926   5.404
19012WAT      O57277   9.030   4.525   7.348
19012WAT     H157278   9.000   4.576   7.428
19012WAT     H257279   9.113   4.474   7.370
19013WAT      O57280   0.234   5.912   3.865
19013WAT     H157281   0.219   5.814   3.862
19013WAT     H257282   0.158   5.959   3.820
19014WAT      O57283   9.032   8.712   0.852
19014WAT     H157284   9.118   8.682   0.811
19014WAT     H257285   9.047   8.797   0.902
19015WAT      O57286   9.328   2.694   1.524
19015WAT     H157287   9.340   2.644   1.438
19015WAT     H257288   9.335   2.792   1.508
19016WAT      O57289   1.109   3.149   8.097
19016WAT     H157290   1.171   3.227   8.108
19016WAT     H257291   1.042   3.148   8.171
19017WAT      O57292   2.225   4.258   9.204
19017WAT     H157293   2.311   4.231   9.162
19017WAT     H257294   2.244   4.305   9.291
19018WAT      O57295   6.725   7.940   7.271
19018WAT     H157296   6.779   7.968   7.192
19018WAT     H257297   6.627   7.949   7.251
19019WAT      O57298   5.816   4.707   8.783
19019WAT     H157299   5.902   4.726   8.736
19019WAT     H257300   5.827   4.626   8.840
19020WAT      O57301   3.951   0.010   3.472
19020WAT     H157302   3.994   0.074   3.409
19020WAT     H257303   4.018  -0.060   3.499
19021WAT      O57304   6.812   7.897   6.422
19021WAT     H157305   6.888   7.937   6.474
19021WAT     H257306   6.842   7.876   6.329
19022WAT      O57307   5.876   5.788   1.194
19022WAT     H157308   5.940   5.864   1.180
19022WAT     H257309   5.783   5.818   1.174
19023WAT      O57310   1.452   9.401   8.552
19023WAT     H157311   1.423   9.346   8.631
19023WAT     H257312   1.391   9.383   8.475
19024WAT      O57313   2.220   8.465   7.919
19024WAT     H157314   2.307   8.416   7.912
19024WAT     H257315   2.145   8.399   7.916
19025WAT      O57316   9.665   6.203   4.712
19025WAT     H157317   9.628   6.117   4.749
19025WAT     H257318   9.590   6.266   4.692
19026WAT      O57319   0.091   1.042   8.565
19026WAT     H157320   0.003   1.075   8.532
19026WAT     H257321   0.155   1.118   8.571
19027WAT      O57322   8.623   7.705   7.663
19027WAT     H157323   8.619   7.753   7.576
19027WAT     H257324   8.623   7.771   7.738
19028WAT      O57325   8.238   4.055   9.677
19028WAT     H157326   8.154   4.038   9.727
19028WAT     H257327   8.216   4.074   9.581
19029WAT      O57328   5.942   0.077   3.909
19029WAT     H157329   5.917  -0.014   3.942
19029WAT     H257330   6.020   0.069   3.846
19030WAT      O57331   2.005   4.656   8.526
19030WAT     H157332   1.953   4.623   8.447
19030WAT     H257333   2.028   4.753   8.514
19031WAT      O57334   6.272   6.820   4.688
19031WAT     H157335   6.279   6.805   4.787
19031WAT     H257336   6.283   6.733   4.641
19032WAT      O57337   9.773   7.111   3.719
19032WAT     H157338   9.816   7.056   3.791
19032WAT     H257339   9.684   7.072   3.696
19033WAT      O57340   4.902   4.678   2.235
19033WAT     H157341   4.970   4.647   2.170
19033WAT     H257342   4.857   4.600   2.277
19034WAT      O57343   9.285   8.747   8.550
19034WAT     H157344   9.225   8.818   8.587
19034WAT     H257345   9.373   8.787   8.526
19035WAT      O57346   1.933   2.869   1.078
19035WAT     H157347   1.910   2.784   1.126
19035WAT     H257348   1.865   2.939   1.099
19036WAT      O57349   6.971   8.475   6.339
19036WAT     H157350   7.053   8.510   6.293
19036WAT     H257351   6.893   8.479   6.276
19037WAT      O57352   5.044   5.916   9.297
19037WAT     H157353   5.072   5.925   9.392
19037WAT     H257354   5.067   5.999   9.247
19038WAT      O57355   8.143   2.044   9.666
19038WAT     H157356   8.205   2.121   9.651
19038WAT     H257357   8.050   2.078   9.683
19039WAT      O57358   6.468   2.222   1.270
19039WAT     H157359   6.442   2.230   1.174
19039WAT     H257360   6.461   2.126   1.299
19040WAT      O57361   3.785   7.242   0.446
19040WAT     H157362   3.725   7.315   0.414
19040WAT     H257363   3.767   7.224   0.543
19041WAT      O57364   4.364   5.328   0.128
19041WAT     H157365   4.301   5.392   0.173
19041WAT     H257366   4.422   5.284   0.196
19042WAT      O57367   0.584   6.751   0.260
19042WAT     H157368   0.593   6.693   0.179
19042WAT     H257369   0.653   6.824   0.256
19043WAT      O57370   7.224   8.097   4.613
19043WAT     H157371   7.140   8.137   4.648
19043WAT     H257372   7.222   8.096   4.513
19044WAT      O57373   1.533   0.493   0.928
19044WAT     H157374   1.459   0.491   0.861
19044WAT     H257375   1.606   0.552   0.896
19045WAT      O57376   9.054   0.786   1.602
19045WAT     H157377   9.119   0.712   1.584
19045WAT     H257378   9.004   0.766   1.686
19046WAT      O57379   7.093   3.430   4.661
19046WAT     H157380   7.152   3.400   4.586
19046WAT     H257381   7.067   3.351   4.717
19047WAT      O57382   4.127   1.376   9.715
19047WAT     H157383   4.211   1.430   9.713
19047WAT     H257384   4.052   1.430   9.676
19048WAT      O57385   4.637   4.022   7.606
19048WAT     H157386   4.597   3.932   7.624
19048WAT     H257387   4.610   4.085   7.679
19049WAT      O57388   9.010   5.712   2.893
19049WAT     H157389   9.044   5.619   2.912
19049WAT     H257390   8.919   5.706   2.853
19050WAT      O57391   8.482   1.021   2.189
19050WAT     H157392   8.511   0.939   2.238
19050WAT     H257393   8.390   1.047   2.218
19051WAT      O57394   4.568   7.436   4.919
19051WAT     H157395   4.507   7.413   4.844
19051WAT     H257396   4.632   7.507   4.890
19052WAT      O57397   7.001   9.029   6.756
19052WAT     H157398   7.013   8.937   6.720
19052WAT     H257399   7.057   9.040   6.838
19053WAT      O57400   6.053   1.330   2.487
19053WAT     H157401   6.012   1.402   2.431
19053WAT     H257402   6.128   1.368   2.541
19054WAT      O57403   6.384   9.509   9.082
19054WAT     H157404   6.359   9.528   9.177
19054WAT     H257405   6.308   9.536   9.022
19055WAT      O57406   1.329   8.626   0.877
19055WAT     H157407   1.312   8.629   0.779
19055WAT     H257408   1.421   8.660   0.897
19056WAT      O57409   7.523   0.176   3.162
19056WAT     H157410   7.489   0.269   3.179
19056WAT     H257411   7.536   0.129   3.249
19057WAT      O57412   1.866   5.589   9.501
19057WAT     H157413   1.768   5.608   9.510
19057WAT     H257414   1.912   5.669   9.462
19058WAT      O57415   6.086   4.367   5.589
19058WAT     H157416   6.129   4.457   5.581
19058WAT     H257417   6.072   4.327   5.498
19059WAT      O57418   3.789   5.053   5.672
19059WAT     H157419   3.790   5.028   5.575
19059WAT     H257420   3.742   4.981   5.725
19060WAT      O57421   6.072   8.774   2.309
19060WAT     H157422   6.157   8.738   2.347
19060WAT     H257423   5.994   8.735   2.358
19061WAT      O57424   5.264   1.791   1.281
19061WAT     H157425   5.273   1.728   1.357
19061WAT     H257426   5.250   1.740   1.196
19062WAT      O57427   6.923   1.140   5.989
19062WAT     H157428   6.996   1.076   5.965
19062WAT     H257429   6.845   1.127   5.927
19063WAT      O57430   1.581   8.744   0.989
19063WAT     H157431   1.680   8.757   0.998
19063WAT     H257432   1.540   8.736   1.080
19064WAT      O57433   7.673   2.871   9.131
19064WAT     H157434   7.706   2.788   9.086
19064WAT     H257435   7.621   2.926   9.066
19065WAT      O57436   8.452   5.067   4.043
19065WAT     H157437   8.367   5.044   4.090
19065WAT     H257438   8.465   5.166   4.045
19066WAT      O57439   4.508   4.577   1.843
19066WAT     H157440   4.482   4.574   1.746
19066WAT     H257441   4.605   4.603   1.850
19067WAT      O57442   0.344   6.218   9.186
19067WAT     H157443   0.404   6.147   9.222
19067WAT     H257444   0.298   6.264   9.263
19068WAT      O57445   5.273   1.414   2.220
19068WAT     H157446   5.251   1.512   2.224
19068WAT     H257447   5.247   1.378   2.131
19069WAT      O57448   9.480   1.434   2.826
19069WAT     H157449   9.493   1.529   2.795
19069WAT     H257450   9.488   1.373   2.747
19070WAT      O57451   5.471   9.391   6.037
19070WAT     H157452   5.422   9.445   6.106
19070WAT     H257453   5.435   9.298   6.037
19071WAT      O57454   8.390   2.850   9.539
19071WAT     H157455   8.375   2.934   9.487
19071WAT     H257456   8.466   2.798   9.498
19072WAT      O57457   8.687   8.887   3.151
19072WAT     H157458   8.627   8.834   3.091
19072WAT     H257459   8.632   8.943   3.212
19073WAT      O57460   6.248   1.469   0.890
19073WAT     H157461   6.242   1.375   0.923
19073WAT     H257462   6.244   1.469   0.790
19074WAT      O57463   1.970   0.026   9.583
19074WAT     H157464   1.878  -0.015   9.585
19074WAT     H257465   2.038  -0.047   9.586
19075WAT      O57466   2.067   5.306   3.565
19075WAT     H157467   2.139   5.252   3.522
19075WAT     H257468   1.988   5.247   3.584
19076WAT      O57469   3.478   7.103   7.412
19076WAT     H157470   3.425   7.137   7.489
19076WAT     H257471   3.417   7.090   7.333
19077WAT      O57472   5.667   7.267   2.716
19077WAT     H157473   5.700   7.359   2.738
19077WAT     H257474   5.737   7.200   2.742
19078WAT      O57475   0.861   4.403   2.716
19078WAT     H157476   0.844   4.480   2.653
19078WAT     H257477   0.916   4.435   2.793
19079WAT      O57478   5.742   8.799   9.392
19079WAT     H157479   5.777   8.795   9.485
19079WAT     H257480   5.761   8.888   9.352
19080WAT      O57481   3.840   1.361   0.580
19080WAT     H157482   3.915   1.420   0.608
19080WAT     H257483   3.753   1.406   0.600
19081WAT      O57484   2.563   3.819   0.930
19081WAT     H157485   2.525   3.748   0.990
19081WAT     H257486   2.551   3.909   0.973
19082WAT      O57487   4.352   6.917   5.777
19082WAT     H157488   4.439   6.870   5.789
19082WAT     H257489   4.301   6.873   5.703
19083WAT      O57490   6.725   2.990   4.359
19083WAT     H157491   6.701   2.987   4.262
19083WAT     H257492   6.691   3.076   4.399
19084WAT      O57493   7.084   9.489   2.472
19084WAT     H157494   7.047   9.572   2.430
19084WAT     H257495   7.054   9.409   2.420
19085WAT      O57496   0.155   2.488   1.717
19085WAT     H157497   0.202   2.543   1.648
19085WAT     H257498   0.079   2.439   1.674
19086WAT      O57499   7.666   7.476   7.318
19086WAT     H157500   7.657   7.575   7.309
19086WAT     H257501   7.685   7.436   7.228
19087WAT      O57502   9.008   1.233   5.778
19087WAT     H157503   8.948   1.163   5.814
19087WAT     H257504   9.100   1.195   5.764
19088WAT      O57505   3.611   9.161   7.014
19088WAT     H157506   3.556   9.083   6.985
19088WAT     H257507   3.705   9.148   6.983
19089WAT      O57508   8.993   0.545   0.222
19089WAT     H157509   8.909   0.516   0.176
19089WAT     H257510   9.072   0.513   0.171
19090WAT      O57511   8.001   6.884   4.466
19090WAT     H157512   7.902   6.875   4.481
19090WAT     H257513   8.040   6.793   4.452
19091WAT      O57514   9.457   0.002   3.649
19091WAT     H157515   9.369   0.003   3.696
19091WAT     H257516   9.489   0.095   3.636
19092WAT      O57517   7.760   0.097   2.757
19092WAT     H157518   7.786   0.034   2.684
19092WAT     H257519   7.704   0.048   2.824
19093WAT      O57520   2.810   2.239   5.246
19093WAT     H157521   2.897   2.256   5.291
19093WAT     H257522   2.757   2.174   5.300
19094WAT      O57523   7.562   0.327   8.726
19094WAT     H157524   7.464   0.333   8.744
19094WAT     H257525   7.579   0.346   8.629
19095WAT      O57526   3.800   0.728   6.901
19095WAT     H157527   3.829   0.658   6.836
19095WAT     H257528   3.858   0.809   6.891
19096WAT      O57529   1.476   0.670   5.607
19096WAT     H157530   1.387   0.707   5.581
19096WAT     H257531   1.463   0.581   5.651
19097WAT      O57532   6.649   8.840   6.263
19097WAT     H157533   6.634   8.861   6.166
19097WAT     H257534   6.677   8.923   6.311
19098WAT      O57535   8.895   1.136   6.357
19098WAT     H157536   8.910   1.062   6.291
19098WAT     H257537   8.966   1.133   6.427
19099WAT      O57538   8.407   0.526   0.048
19099WAT     H157539   8.478   0.459   0.069
19099WAT     H257540   8.441   0.589  -0.022
19100WAT      O57541   8.686   6.820   5.976
19100WAT     H157542   8.658   6.754   6.045
19100WAT     H257543   8.627   6.813   5.896
19101WAT      O57544   1.233   6.334   9.719
19101WAT     H157545   1.199   6.426   9.700
19101WAT     H257546   1.331   6.330   9.699
19102WAT      O57547   1.009   5.529   9.441
19102WAT     H157548   1.014   5.591   9.363
19102WAT     H257549   0.914   5.520   9.472
19103WAT      O57550   5.465   3.421   6.484
19103WAT     H157551   5.385   3.443   6.540
19103WAT     H257552   5.453   3.330   6.444
19104WAT      O57553   1.546   6.814   5.915
19104WAT     H157554   1.526   6.788   5.821
19104WAT     H257555   1.523   6.739   5.977
19105WAT      O57556   4.466   3.219   9.325
19105WAT     H157557   4.464   3.319   9.321
19105WAT     H257558   4.379   3.183   9.292
19106WAT      O57559   6.536   0.206   9.459
19106WAT     H157560   6.539   0.292   9.408
19106WAT     H257561   6.532   0.225   9.557
19107WAT      O57562   2.272   1.706   0.961
19107WAT     H157563   2.199   1.638   0.964
19107WAT     H257564   2.253   1.778   1.027
19108WAT      O57565   6.330   9.212   5.085
19108WAT     H157566   6.381   9.190   5.001
19108WAT     H257567   6.366   9.296   5.125
19109WAT      O57568   4.832   7.275   8.380
19109WAT     H157569   4.816   7.323   8.294
19109WAT     H257570   4.931   7.268   8.395
19110WAT      O57571   7.704   8.857   8.029
19110WAT     H157572   7.616   8.886   8.067
19110WAT     H257573   7.760   8.937   8.008
19111WAT      O57574   5.735   2.741   6.904
19111WAT     H157575   5.691   2.815   6.854
19111WAT     H257576   5.693   2.654   6.880
19112WAT      O57577   4.107   6.138   2.864
19112WAT     H157578   4.104   6.043   2.893
19112WAT     H257579   4.124   6.197   2.943
19113WAT      O57580   5.639   1.200   6.900
19113WAT     H157581   5.711   1.134   6.878
19113WAT     H257582   5.678   1.292   6.899
19114WAT      O57583   6.830   7.736   4.000
19114WAT     H157584   6.861   7.816   3.949
19114WAT     H257585   6.870   7.738   4.092
19115WAT      O57586   6.400   1.224   3.029
19115WAT     H157587   6.378   1.310   3.075
19115WAT     H257588   6.316   1.184   2.994
19116WAT      O57589   0.298   1.652   5.051
19116WAT     H157590   0.242   1.726   5.014
19116WAT     H257591   0.395   1.673   5.038
19117WAT      O57592   8.395   9.755   7.196
19117WAT     H157593   8.323   9.687   7.206
19117WAT     H257594   8.404   9.807   7.281
19118WAT      O57595   8.404   4.835   6.388
19118WAT     H157596   8.348   4.885   6.323
19118WAT     H257597   8.359   4.749   6.412
19119WAT      O57598   3.553   2.757   8.069
19119WAT     H157599   3.477   2.750   8.004
19119WAT     H257600   3.620   2.685   8.049
19120WAT      O57601   7.317   0.916   8.782
19120WAT     H157602   7.398   0.876   8.739
19120WAT     H257603   7.346   0.975   8.858
19121WAT      O57604   4.277   5.377   7.703
19121WAT     H157605   4.200   5.373   7.767
19121WAT     H257606   4.349   5.436   7.741
19122WAT      O57607   5.275   6.907   9.156
19122WAT     H157608   5.253   6.887   9.251
19122WAT     H257609   5.358   6.859   9.130
19123WAT      O57610   4.687   7.754   0.161
19123WAT     H157611   4.781   7.727   0.182
19123WAT     H257612   4.653   7.817   0.231
19124WAT      O57613   0.231   8.753   8.703
19124WAT     H157614   0.204   8.656   8.703
19124WAT     H257615   0.205   8.795   8.790
19125WAT      O57616   7.884   2.130   9.628
19125WAT     H157617   7.836   2.069   9.565
19125WAT     H257618   7.817   2.179   9.684
19126WAT      O57619   0.087   8.657   3.920
19126WAT     H157620   0.056   8.733   3.977
19126WAT     H257621   0.007   8.602   3.893
19127WAT      O57622   5.796   6.177   4.388
19127WAT     H157623   5.850   6.092   4.391
19127WAT     H257624   5.854   6.251   4.354
19128WAT      O57625   2.269   0.927   9.229
19128WAT     H157626   2.253   1.013   9.179
19128WAT     H257627   2.284   0.948   9.326
19129WAT      O57628   8.960   9.260   7.243
19129WAT     H157629   8.932   9.331   7.178
19129WAT     H257630   8.946   9.293   7.336
19130WAT      O57631   2.843   7.011   5.849
19130WAT     H157632   2.748   7.036   5.833
19130WAT     H257633   2.870   6.938   5.785
19131WAT      O57634   8.202   4.780   2.180
19131WAT     H157635   8.182   4.685   2.200
19131WAT     H257636   8.284   4.808   2.228
19132WAT      O57637   7.797   6.044   5.520
19132WAT     H157638   7.771   6.047   5.423
19132WAT     H257639   7.896   6.030   5.527
19133WAT      O57640   5.846   8.090   8.377
19133WAT     H157641   5.861   8.091   8.278
19133WAT     H257642   5.780   8.018   8.399
19134WAT      O57643   7.988   9.473   6.962
19134WAT     H157644   7.946   9.561   6.941
19134WAT     H257645   8.076   9.488   7.007
19135WAT      O57646   4.095   9.627   1.161
19135WAT     H157647   4.063   9.671   1.245
19135WAT     H257648   4.040   9.546   1.143
19136WAT      O57649   6.753   2.384   5.495
19136WAT     H157650   6.795   2.336   5.572
19136WAT     H257651   6.825   2.409   5.429
19137WAT      O57652   5.060   2.661   2.740
19137WAT     H157653   5.050   2.733   2.809
19137WAT     H257654   5.042   2.572   2.781
19138WAT      O57655   4.255   8.836   3.553
19138WAT     H157656   4.222   8.888   3.632
19138WAT     H257657   4.232   8.884   3.469
19139WAT      O57658   0.514   5.833   4.387
19139WAT     H157659   0.495   5.735   4.391
19139WAT     H257660   0.495   5.867   4.295
19140WAT      O57661   8.496   8.836   9.501
19140WAT     H157662   8.423   8.781   9.461
19140WAT     H257663   8.569   8.849   9.434
19141WAT      O57664   8.093   5.117   9.831
19141WAT     H157665   8.171   5.133   9.770
19141WAT     H257666   8.122   5.059   9.907
19142WAT      O57667   3.576   6.305   2.590
19142WAT     H157668   3.629   6.303   2.675
19142WAT     H257669   3.638   6.291   2.512
19143WAT      O57670   5.827   0.783   1.447
19143WAT     H157671   5.912   0.734   1.465
19143WAT     H257672   5.774   0.735   1.377
19144WAT      O57673   8.824   6.056   9.016
19144WAT     H157674   8.856   5.981   8.959
19144WAT     H257675   8.852   6.143   8.975
19145WAT      O57676   4.295   9.406   0.089
19145WAT     H157677   4.264   9.339   0.021
19145WAT     H257678   4.228   9.411   0.163
19146WAT      O57679   6.115   9.755   6.343
19146WAT     H157680   6.028   9.794   6.311
19146WAT     H257681   6.156   9.816   6.411
19147WAT      O57682   9.696   1.432   4.598
19147WAT     H157683   9.784   1.443   4.645
19147WAT     H257684   9.710   1.435   4.499
19148WAT      O57685   8.358   1.544   4.696
19148WAT     H157686   8.422   1.473   4.726
19148WAT     H257687   8.309   1.513   4.614
19149WAT      O57688   4.786   6.303   3.176
19149WAT     H157689   4.876   6.311   3.217
19149WAT     H257690   4.737   6.390   3.184
19150WAT      O57691   7.138   5.772   7.565
19150WAT     H157692   7.045   5.768   7.602
19150WAT     H257693   7.149   5.854   7.509
19151WAT      O57694   7.538   3.877   1.944
19151WAT     H157695   7.452   3.864   1.994
19151WAT     H257696   7.571   3.788   1.913
19152WAT      O57697   4.617   8.159   5.957
19152WAT     H157698   4.667   8.211   6.028
19152WAT     H257699   4.657   8.068   5.949
19153WAT      O57700   9.735   3.152   1.082
19153WAT     H157701   9.801   3.209   1.131
19153WAT     H257702   9.761   3.147   0.985
19154WAT      O57703   8.319   9.751   8.691
19154WAT     H157704   8.344   9.668   8.740
19154WAT     H257705   8.228   9.781   8.721
19155WAT      O57706   4.660   9.591   6.808
19155WAT     H157707   4.631   9.580   6.713
19155WAT     H257708   4.718   9.514   6.835
19156WAT      O57709   0.077   1.240   2.369
19156WAT     H157710   0.148   1.172   2.353
19156WAT     H257711   0.117   1.324   2.404
19157WAT      O57712   0.650   9.132   7.042
19157WAT     H157713   0.654   9.227   7.073
19157WAT     H257714   0.741   9.092   7.044
19158WAT      O57715   5.938   7.946   5.879
19158WAT     H157716   5.990   8.007   5.819
19158WAT     H257717   6.000   7.900   5.943
19159WAT      O57718   9.856   7.191   8.077
19159WAT     H157719   9.760   7.217   8.088
19159WAT     H257720   9.893   7.234   7.995
19160WAT      O57721   4.094   2.294   6.440
19160WAT     H157722   4.131   2.356   6.509
19160WAT     H257723   4.166   2.270   6.375
19161WAT      O57724   5.129   4.967   0.934
19161WAT     H157725   5.043   4.954   0.983
19161WAT     H257726   5.115   5.030   0.857
19162WAT      O57727   9.246   6.415   3.097
19162WAT     H157728   9.300   6.436   3.015
19162WAT     H257729   9.153   6.390   3.070
19163WAT      O57730   6.810   7.843   8.685
19163WAT     H157731   6.791   7.836   8.587
19163WAT     H257732   6.791   7.755   8.729
19164WAT      O57733   2.937   6.097   3.433
19164WAT     H157734   2.935   6.083   3.334
19164WAT     H257735   2.898   6.018   3.479
19165WAT      O57736   1.039   1.513   6.969
19165WAT     H157737   1.094   1.498   6.887
19165WAT     H257738   1.087   1.478   7.049
19166WAT      O57739   3.301   0.715   1.021
19166WAT     H157740   3.248   0.647   0.971
19166WAT     H257741   3.398   0.691   1.018
19167WAT      O57742   8.084   3.631   9.763
19167WAT     H157743   8.180   3.625   9.789
19167WAT     H257744   8.049   3.539   9.744
19168WAT      O57745   9.058   4.658   8.446
19168WAT     H157746   8.977   4.692   8.399
19168WAT     H257747   9.053   4.558   8.453
19169WAT      O57748   4.327   1.121   3.737
19169WAT     H157749   4.347   1.073   3.652
19169WAT     H257750   4.229   1.141   3.742
19170WAT      O57751   4.823   8.483   0.786
19170WAT     H157752   4.725   8.478   0.768
19170WAT     H257753   4.839   8.538   0.869
19171WAT      O57754   5.393   7.311   9.391
19171WAT     H157755   5.382   7.367   9.473
19171WAT     H257756   5.444   7.363   9.322
19172WAT      O57757   8.695   6.266   2.996
19172WAT     H157758   8.675   6.178   2.952
19172WAT     H257759   8.793   6.276   3.007
19173WAT      O57760   5.256   8.358   5.830
19173WAT     H157761   5.297   8.427   5.890
19173WAT     H257762   5.179   8.315   5.876
19174WAT      O57763   6.737   2.777   2.532
19174WAT     H157764   6.721   2.840   2.457
19174WAT     H257765   6.824   2.728   2.517
19175WAT      O57766   8.394   9.273   2.354
19175WAT     H157767   8.358   9.197   2.408
19175WAT     H257768   8.448   9.237   2.278
19176WAT      O57769   2.489   2.395   1.442
19176WAT     H157770   2.523   2.482   1.407
19176WAT     H257771   2.552   2.322   1.416
19177WAT      O57772   7.960   2.456   8.364
19177WAT     H157773   7.944   2.400   8.445
19177WAT     H257774   7.991   2.398   8.289
19178WAT      O57775   4.996   9.703   3.801
19178WAT     H157776   4.931   9.683   3.728
19178WAT     H257777   5.060   9.772   3.770
19179WAT      O57778   4.570   0.028   2.810
19179WAT     H157779   4.645   0.087   2.778
19179WAT     H257780   4.485   0.056   2.767
19180WAT      O57781   8.826   0.495   2.874
19180WAT     H157782   8.801   0.574   2.819
19180WAT     H257783   8.838   0.523   2.969
19181WAT      O57784   3.988   5.350   2.712
19181WAT     H157785   4.025   5.258   2.725
19181WAT     H257786   3.933   5.375   2.792
19182WAT      O57787   9.608   5.183   8.913
19182WAT     H157788   9.577   5.278   8.910
19182WAT     H257789   9.668   5.164   8.836
19183WAT      O57790   3.891   9.484   1.081
19183WAT     H157791   3.865   9.550   1.152
19183WAT     H257792   3.822   9.483   1.009
19184WAT      O57793   5.766   8.231   0.082
19184WAT     H157794   5.836   8.194   0.143
19184WAT     H257795   5.803   8.235  -0.011
19185WAT      O57796   1.823   9.079   4.508
19185WAT     H157797   1.839   8.983   4.530
19185WAT     H257798   1.734   9.107   4.544
19186WAT      O57799   5.530   4.788   9.458
19186WAT     H157800   5.457   4.759   9.396
19186WAT     H257801   5.544   4.886   9.450
19187WAT      O57802   5.789   5.281   4.498
19187WAT     H157803   5.750   5.284   4.406
19187WAT     H257804   5.733   5.336   4.560
19188WAT      O57805   4.616   7.614   6.345
19188WAT     H157806   4.709   7.647   6.331
19188WAT     H257807   4.616   7.514   6.352
19189WAT      O57808   8.568   3.032   3.984
19189WAT     H157809   8.654   3.079   3.998
19189WAT     H257810   8.523   3.018   4.072
19190WAT      O57811   4.070   5.744   9.867
19190WAT     H157812   4.061   5.645   9.854
19190WAT     H257813   4.042   5.791   9.783
19191WAT      O57814   3.634   5.283   2.523
19191WAT     H157815   3.626   5.295   2.622
19191WAT     H257816   3.568   5.343   2.477
19192WAT      O57817   8.302   9.144   7.311
19192WAT     H157818   8.219   9.183   7.271
19192WAT     H257819   8.352   9.094   7.241
19193WAT      O57820   6.779   1.193   8.101
19193WAT     H157821   6.867   1.185   8.054
19193WAT     H257822   6.779   1.277   8.156
19194WAT      O57823   0.086   0.257   8.511
19194WAT     H157824   0.165   0.229   8.457
19194WAT     H257825   0.099   0.351   8.543
19195WAT      O57826   0.043   0.771   8.627
19195WAT     H157827   0.056   0.870   8.640
19195WAT     H257828  -0.040   0.742   8.674
19196WAT      O57829   6.891   9.358   3.922
19196WAT     H157830   6.879   9.329   3.827
19196WAT     H257831   6.812   9.412   3.951
19197WAT      O57832   1.898   4.664   2.236
19197WAT     H157833   1.939   4.602   2.303
19197WAT     H257834   1.918   4.759   2.260
19198WAT      O57835   5.201   3.979   0.895
19198WAT     H157836   5.107   3.947   0.910
19198WAT     H257837   5.265   3.903   0.907
19199WAT      O57838   8.898   2.980   9.068
19199WAT     H157839   8.929   3.071   9.040
19199WAT     H257840   8.810   2.989   9.115
19200WAT      O57841   1.115   6.837   6.635
19200WAT     H157842   1.087   6.907   6.569
19200WAT     H257843   1.153   6.880   6.716
19201WAT      O57844   0.292   7.111   5.049
19201WAT     H157845   0.218   7.051   5.082
19201WAT     H257846   0.374   7.056   5.031
19202WAT      O57847   0.661   5.594   0.819
19202WAT     H157848   0.726   5.519   0.804
19202WAT     H257849   0.573   5.570   0.779
19203WAT      O57850   6.176   7.147   5.682
19203WAT     H157851   6.211   7.078   5.620
19203WAT     H257852   6.100   7.196   5.639
19204WAT      O57853   9.302   5.914   7.031
19204WAT     H157854   9.247   5.956   7.104
19204WAT     H257855   9.298   5.971   6.949
19205WAT      O57856   6.675   3.747   1.503
19205WAT     H157857   6.582   3.765   1.536
19205WAT     H257858   6.729   3.831   1.506
19206WAT      O57859   4.483   0.713   9.436
19206WAT     H157860   4.513   0.624   9.400
19206WAT     H257861   4.556   0.780   9.425
19207WAT      O57862   2.920   5.579   6.040
19207WAT     H157863   2.928   5.503   5.976
19207WAT     H257864   3.009   5.621   6.055
19208WAT      O57865   3.004   1.686   5.956
19208WAT     H157866   3.087   1.645   5.993
19208WAT     H257867   2.924   1.646   6.002
19209WAT      O57868   7.371   2.978   3.460
19209WAT     H157869   7.461   2.982   3.418
19209WAT     H257870   7.368   3.041   3.539
19210WAT      O57871   1.302   3.346   8.178
19210WAT     H157872   1.391   3.385   8.154
19210WAT     H257873   1.293   3.344   8.278
19211WAT      O57874   0.565   4.601   0.376
19211WAT     H157875   0.519   4.690   0.381
19211WAT     H257876   0.646   4.609   0.318
19212WAT      O57877   6.751   5.180   6.923
19212WAT     H157878   6.833   5.237   6.918
19212WAT     H257879   6.751   5.129   7.009
19213WAT      O57880   7.377   1.793   8.244
19213WAT     H157881   7.420   1.872   8.290
19213WAT     H257882   7.289   1.774   8.286
19214WAT      O57883   2.773   1.820   4.139
19214WAT     H157884   2.767   1.905   4.087
19214WAT     H257885   2.728   1.831   4.227
19215WAT      O57886   9.198   3.807   0.477
19215WAT     H157887   9.237   3.715   0.478
19215WAT     H257888   9.099   3.801   0.479
19216WAT      O57889   0.262   7.561   4.422
19216WAT     H157890   0.262   7.524   4.515
19216WAT     H257891   0.168   7.562   4.387
19217WAT      O57892   6.248   6.952   8.407
19217WAT     H157893   6.331   7.006   8.388
19217WAT     H257894   6.212   6.915   8.322
19218WAT      O57895   5.394   0.557   3.389
19218WAT     H157896   5.421   0.507   3.307
19218WAT     H257897   5.431   0.650   3.384
19219WAT      O57898   3.001   9.660   0.923
19219WAT     H157899   2.967   9.607   0.845
19219WAT     H257900   2.986   9.757   0.906
19220WAT      O57901   8.966   0.268   9.030
19220WAT     H157902   9.034   0.212   8.984
19220WAT     H257903   8.908   0.312   8.962
19221WAT      O57904   3.484   4.814   5.619
19221WAT     H157905   3.542   4.741   5.653
19221WAT     H257906   3.529   4.860   5.542
19222WAT      O57907   3.343   6.156   0.453
19222WAT     H157908   3.425   6.212   0.459
19222WAT     H257909   3.368   6.059   0.457
19223WAT      O57910   4.596   3.470   7.781
19223WAT     H157911   4.604   3.454   7.879
19223WAT     H257912   4.547   3.556   7.765
19224WAT      O57913   1.445   5.385   6.582
19224WAT     H157914   1.394   5.382   6.668
19224WAT     H257915   1.538   5.416   6.599
19225WAT      O57916   3.227   3.304   3.065
19225WAT     H157917   3.158   3.232   3.060
19225WAT     H257918   3.183   3.393   3.054
19226WAT      O57919   5.198   3.095   2.272
19226WAT     H157920   5.270   3.159   2.299
19226WAT     H257921   5.217   3.005   2.311
19227WAT      O57922   7.549   4.593   6.918
19227WAT     H157923   7.525   4.690   6.922
19227WAT     H257924   7.601   4.567   6.999
19228WAT      O57925   7.073   8.835   3.177
19228WAT     H157926   7.020   8.779   3.113
19228WAT     H257927   7.037   8.824   3.269
19229WAT      O57928   0.154   8.670   1.956
19229WAT     H157929   0.090   8.598   1.982
19229WAT     H257930   0.104   8.755   1.938
19230WAT      O57931   9.546   2.599   8.290
19230WAT     H157932   9.491   2.664   8.344
19230WAT     H257933   9.489   2.520   8.266
19231WAT      O57934   7.370   9.325   1.664
19231WAT     H157935   7.396   9.401   1.605
19231WAT     H257936   7.285   9.347   1.712
19232WAT      O57937   9.871   0.067   2.202
19232WAT     H157938   9.773   0.050   2.201
19232WAT     H257939   9.889   0.160   2.170
19233WAT      O57940   6.771   1.955   0.375
19233WAT     H157941   6.865   1.938   0.407
19233WAT     H257942   6.764   1.932   0.278
19234WAT      O57943   9.152   7.793   8.455
19234WAT     H157944   9.208   7.857   8.507
19234WAT     H257945   9.199   7.705   8.448
19235WAT      O57946   1.529   7.555   5.346
19235WAT     H157947   1.447   7.582   5.397
19235WAT     H257948   1.573   7.637   5.310
19236WAT      O57949   9.522   2.661   2.159
19236WAT     H157950   9.612   2.665   2.201
19236WAT     H257951   9.530   2.684   2.062
19237WAT      O57952   6.250   0.109   6.819
19237WAT     H157953   6.236   0.145   6.912
19237WAT     H257954   6.173   0.052   6.793
19238WAT      O57955   9.355   8.546   7.722
19238WAT     H157956   9.297   8.609   7.670
19238WAT     H257957   9.297   8.481   7.772
19239WAT      O57958   0.818   5.973   5.630
19239WAT     H157959   0.720   5.955   5.621
19239WAT     H257960   0.858   5.910   5.696
19240WAT      O57961   5.774   3.012   7.267
19240WAT     H157962   5.771   3.109   7.242
19240WAT     H257963   5.738   3.001   7.360
19241WAT      O57964   2.288   3.524   9.200
19241WAT     H157965   2.209   3.526   9.261
19241WAT     H257966   2.265   3.469   9.119
19242WAT      O57967   0.455   0.649   5.968
19242WAT     H157968   0.469   0.561   5.922
19242WAT     H257969   0.396   0.635   6.048
19243WAT      O57970   3.260   9.594   6.877
19243WAT     H157971   3.347   9.640   6.859
19243WAT     H257972   3.205   9.592   6.793
19244WAT      O57973   9.228   2.454   0.368
19244WAT     H157974   9.139   2.408   0.360
19244WAT     H257975   9.298   2.402   0.320
19245WAT      O57976   9.343   0.813   7.081
19245WAT     H157977   9.245   0.805   7.060
19245WAT     H257978   9.392   0.738   7.038
19246WAT      O57979   5.004   0.017   6.043
19246WAT     H157980   4.972  -0.036   6.122
19246WAT     H257981   4.925   0.050   5.992
19247WAT      O57982   8.632   9.444   8.982
19247WAT     H157983   8.704   9.439   9.050
19247WAT     H257984   8.548   9.478   9.025
19248WAT      O57985   3.601   1.587   0.258
19248WAT     H157986   3.561   1.567   0.348
19248WAT     H257987   3.642   1.504   0.220
19249WAT      O57988   1.173   8.554   8.693
19249WAT     H157989   1.202   8.607   8.613
19249WAT     H257990   1.087   8.507   8.672
19250WAT      O57991   8.138   2.302   7.439
19250WAT     H157992   8.136   2.298   7.339
19250WAT     H257993   8.207   2.238   7.473
19251WAT      O57994   2.243   4.533   1.573
19251WAT     H157995   2.232   4.633   1.573
19251WAT     H257996   2.326   4.509   1.523
19252WAT      O57997   2.815   3.366   0.194
19252WAT     H157998   2.836   3.344   0.098
19252WAT     H257999   2.731   3.420   0.198
19253WAT      O58000   6.244   6.586   1.319
19253WAT     H158001   6.239   6.669   1.264
19253WAT     H258002   6.300   6.603   1.400
19254WAT      O58003   5.536   4.935   0.134
19254WAT     H158004   5.609   4.956   0.070
19254WAT     H258005   5.566   4.865   0.198
19255WAT      O58006   5.190   0.390   5.453
19255WAT     H158007   5.256   0.316   5.451
19255WAT     H258008   5.097   0.353   5.455
19256WAT      O58009   0.025   2.338   3.221
19256WAT     H158010   0.008   2.420   3.275
19256WAT     H258011   0.050   2.262   3.282
19257WAT      O58012   9.054   8.769   4.228
19257WAT     H158013   9.009   8.821   4.154
19257WAT     H258014   9.109   8.831   4.284
19258WAT      O58015   7.585   2.171   1.198
19258WAT     H158016   7.498   2.221   1.196
19258WAT     H258017   7.651   2.217   1.138
19259WAT      O58018   1.343   0.660   0.288
19259WAT     H158019   1.331   0.736   0.225
19259WAT     H258020   1.253   0.624   0.316
19260WAT      O58021   1.711   3.985   0.998
19260WAT     H158022   1.763   4.064   1.030
19260WAT     H258023   1.614   3.997   1.022
19261WAT      O58024   3.550   1.266   1.538
19261WAT     H158025   3.638   1.280   1.492
19261WAT     H258026   3.533   1.342   1.601
19262WAT      O58027   3.957   4.108   2.123
19262WAT     H158028   4.015   4.188   2.110
19262WAT     H258029   3.872   4.120   2.071
19263WAT      O58030   5.199   1.074   8.275
19263WAT     H158031   5.284   1.065   8.327
19263WAT     H258032   5.190   0.998   8.211
19264WAT      O58033   9.520   6.679   7.679
19264WAT     H158034   9.485   6.636   7.762
19264WAT     H258035   9.508   6.617   7.601
19265WAT      O58036   2.856   9.303   3.809
19265WAT     H158037   2.910   9.340   3.733
19265WAT     H258038   2.853   9.203   3.802
19266WAT      O58039   4.320   0.253   1.164
19266WAT     H158040   4.372   0.252   1.078
19266WAT     H258041   4.227   0.284   1.145
19267WAT      O58042   1.032   5.870   7.096
19267WAT     H158043   0.990   5.811   7.165
19267WAT     H258044   1.003   5.840   7.005
19268WAT      O58045   6.682   0.082   6.235
19268WAT     H158046   6.672  -0.016   6.224
19268WAT     H258047   6.777   0.104   6.256
19269WAT      O58048   3.169   8.137   0.447
19269WAT     H158049   3.234   8.124   0.522
19269WAT     H258050   3.115   8.220   0.464
19270WAT      O58051   7.819   6.078   4.907
19270WAT     H158052   7.872   6.156   4.876
19270WAT     H258053   7.868   6.030   4.980
19271WAT      O58054   2.379   2.038   4.054
19271WAT     H158055   2.308   2.102   4.025
19271WAT     H258056   2.337   1.964   4.106
19272WAT      O58057   6.786   4.984   3.208
19272WAT     H158058   6.774   4.916   3.281
19272WAT     H258059   6.703   5.039   3.200
19273WAT      O58060   1.382   6.977   6.271
19273WAT     H158061   1.394   6.987   6.172
19273WAT     H258062   1.287   6.951   6.290
19274WAT      O58063   0.681   5.438   6.018
19274WAT     H158064   0.611   5.463   5.951
19274WAT     H258065   0.771   5.456   5.980
19275WAT      O58066   8.392   3.015   5.694
19275WAT     H158067   8.372   3.088   5.758
19275WAT     H258068   8.381   3.048   5.600
19276WAT      O58069   8.450   6.011   1.849
19276WAT     H158070   8.373   6.027   1.910
19276WAT     H258071   8.456   5.913   1.828
19277WAT      O58072   5.635   3.652   0.590
19277WAT     H158073   5.721   3.639   0.539
19277WAT     H258074   5.634   3.591   0.669
19278WAT      O58075   8.105   4.976   3.382
19278WAT     H158076   8.187   5.020   3.346
19278WAT     H258077   8.128   4.924   3.465
19279WAT      O58078   3.026   2.021   0.949
19279WAT     H158079   3.021   2.111   0.993
19279WAT     H258080   2.983   2.025   0.859
19280WAT      O58081   2.696   3.245   1.465
19280WAT     H158082   2.771   3.253   1.531
19280WAT     H258083   2.618   3.299   1.496
19281WAT      O58084   7.187   5.735   8.994
19281WAT     H158085   7.176   5.702   9.087
19281WAT     H258086   7.183   5.658   8.930
19282WAT      O58087   3.400   0.829   3.748
19282WAT     H158088   3.383   0.872   3.836
19282WAT     H258089   3.493   0.795   3.744
19283WAT      O58090   1.085   3.569   3.544
19283WAT     H158091   1.157   3.636   3.564
19283WAT     H258092   1.077   3.557   3.445
19284WAT      O58093   7.597   8.621   0.092
19284WAT     H158094   7.565   8.561   0.165
19284WAT     H258095   7.570   8.715   0.113
19285WAT      O58096   0.957   2.227   3.860
19285WAT     H158097   0.909   2.293   3.917
19285WAT     H258098   1.028   2.273   3.807
19286WAT      O58099   0.860   5.516   4.916
19286WAT     H158100   0.949   5.555   4.893
19286WAT     H258101   0.871   5.441   4.981
19287WAT      O58102   9.868   9.277   8.299
19287WAT     H158103   9.927   9.339   8.351
19287WAT     H258104   9.853   9.193   8.351
19288WAT      O58105   6.717   5.843   2.948
19288WAT     H158106   6.739   5.758   2.902
19288WAT     H258107   6.800   5.883   2.987
19289WAT      O58108   7.763   6.810   0.273
19289WAT     H158109   7.756   6.910   0.283
19289WAT     H258110   7.762   6.787   0.176
19290WAT      O58111   7.211   8.211   0.327
19290WAT     H158112   7.166   8.139   0.380
19290WAT     H258113   7.205   8.190   0.230
19291WAT      O58114   9.208   9.104   0.761
19291WAT     H158115   9.109   9.091   0.766
19291WAT     H258116   9.233   9.186   0.813
19292WAT      O58117   4.448   0.788   6.764
19292WAT     H158118   4.355   0.783   6.800
19292WAT     H258119   4.448   0.841   6.679
19293WAT      O58120   9.672   2.385   5.848
19293WAT     H158121   9.580   2.415   5.873
19293WAT     H258122   9.703   2.315   5.912
19294WAT      O58123   5.381   8.490   0.940
19294WAT     H158124   5.310   8.538   0.888
19294WAT     H258125   5.427   8.425   0.879
19295WAT      O58126   1.823   4.670   7.469
19295WAT     H158127   1.845   4.693   7.564
19295WAT     H258128   1.744   4.724   7.439
19296WAT      O58129   5.641   3.005   6.468
19296WAT     H158130   5.670   3.063   6.544
19296WAT     H258131   5.675   3.044   6.382
19297WAT      O58132   6.323   8.678   5.648
19297WAT     H158133   6.394   8.611   5.670
19297WAT     H258134   6.233   8.639   5.668
19298WAT      O58135   9.661   9.803   7.239
19298WAT     H158136   9.671   9.853   7.153
19298WAT     H258137   9.605   9.721   7.224
19299WAT      O58138   4.183   4.289   8.252
19299WAT     H158139   4.133   4.244   8.326
19299WAT     H258140   4.146   4.260   8.164
19300WAT      O58141   9.351   2.610   1.221
19300WAT     H158142   9.333   2.528   1.166
19300WAT     H258143   9.360   2.689   1.160
19301WAT      O58144   1.353   5.271   9.603
19301WAT     H158145   1.282   5.206   9.631
19301WAT     H258146   1.438   5.250   9.651
19302WAT      O58147   4.959   7.154   6.779
19302WAT     H158148   4.890   7.104   6.726
19302WAT     H258149   4.914   7.227   6.830
19303WAT      O58150   2.672   0.201   0.089
19303WAT     H158151   2.669   0.194   0.188
19303WAT     H258152   2.758   0.163   0.055
19304WAT      O58153   3.037   7.693   4.130
19304WAT     H158154   3.086   7.714   4.214
19304WAT     H258155   2.943   7.728   4.137
19305WAT      O58156   3.079   7.267   3.987
19305WAT     H158157   3.076   7.193   3.920
19305WAT     H258158   3.015   7.339   3.960
19306WAT      O58159   6.337   5.495   9.675
19306WAT     H158160   6.294   5.559   9.739
19306WAT     H258161   6.434   5.519   9.665
19307WAT      O58162   9.219   8.341   6.646
19307WAT     H158163   9.287   8.284   6.692
19307WAT     H258164   9.128   8.300   6.658
19308WAT      O58165   7.107   7.870   2.970
19308WAT     H158166   7.182   7.809   2.950
19308WAT     H258167   7.117   7.955   2.918
19309WAT      O58168   1.797   8.646   1.525
19309WAT     H158169   1.826   8.735   1.489
19309WAT     H258170   1.839   8.631   1.615
19310WAT      O58171   2.032   5.167   1.787
19310WAT     H158172   2.096   5.222   1.840
19310WAT     H258173   1.995   5.094   1.845
19311WAT      O58174   8.608   0.673   8.576
19311WAT     H158175   8.536   0.730   8.615
19311WAT     H258176   8.697   0.715   8.596
19312WAT      O58177   0.286   5.852   2.722
19312WAT     H158178   0.309   5.798   2.803
19312WAT     H258179   0.187   5.865   2.717
19313WAT      O58180   8.497   5.376   7.222
19313WAT     H158181   8.527   5.464   7.185
19313WAT     H258182   8.407   5.387   7.263
19314WAT      O58183   4.874   0.040   3.516
19314WAT     H158184   4.901   0.118   3.572
19314WAT     H258185   4.936   0.031   3.438
19315WAT      O58186   0.653   5.150   7.602
19315WAT     H158187   0.627   5.247   7.611
19315WAT     H258188   0.665   5.128   7.506
19316WAT      O58189   3.055   6.125   7.311
19316WAT     H158190   3.097   6.073   7.237
19316WAT     H258191   3.098   6.099   7.398
19317WAT      O58192   1.986   8.188   6.162
19317WAT     H158193   1.894   8.181   6.122
19317WAT     H258194   2.049   8.224   6.093
19318WAT      O58195   7.636   8.254   5.430
19318WAT     H158196   7.726   8.231   5.467
19318WAT     H258197   7.647   8.296   5.340
19319WAT      O58198   7.638   5.000   6.883
19319WAT     H158199   7.703   5.041   6.947
19319WAT     H258200   7.616   5.065   6.811
19320WAT      O58201   2.719   7.272   1.605
19320WAT     H158202   2.716   7.176   1.575
19320WAT     H258203   2.652   7.325   1.553
19321WAT      O58204   5.440   5.748   6.925
19321WAT     H158205   5.471   5.735   7.019
19321WAT     H258206   5.505   5.807   6.877
19322WAT      O58207   5.947   7.327   3.362
19322WAT     H158208   6.012   7.338   3.437
19322WAT     H258209   5.893   7.411   3.353
19323WAT      O58210   1.831   6.780   1.445
19323WAT     H158211   1.850   6.684   1.464
19323WAT     H258212   1.735   6.800   1.466
19324WAT      O58213   2.522   4.557   4.065
19324WAT     H158214   2.614   4.594   4.054
19324WAT     H258215   2.511   4.478   4.004
19325WAT      O58216   0.819   8.831   0.168
19325WAT     H158217   0.782   8.739   0.153
19325WAT     H258218   0.882   8.854   0.094
19326WAT      O58219   1.839   0.264   3.968
19326WAT     H158220   1.906   0.190   3.974
19326WAT     H258221   1.811   0.277   3.873
19327WAT      O58222   6.435   1.188   2.376
19327WAT     H158223   6.353   1.131   2.364
19327WAT     H258224   6.454   1.200   2.473
19328WAT      O58225   9.345   7.927   2.283
19328WAT     H158226   9.292   7.992   2.338
19328WAT     H258227   9.439   7.923   2.317
19329WAT      O58228   7.804   5.934   0.025
19329WAT     H158229   7.792   5.905   0.120
19329WAT     H258230   7.844   6.025   0.023
19330WAT      O58231   1.842   3.834   3.937
19330WAT     H158232   1.846   3.736   3.957
19330WAT     H258233   1.911   3.857   3.868
19331WAT      O58234   6.224   5.269   9.690
19331WAT     H158235   6.273   5.357   9.692
19331WAT     H258236   6.267   5.208   9.624
19332WAT      O58237   0.483   5.528   8.719
19332WAT     H158238   0.406   5.590   8.700
19332WAT     H258239   0.479   5.496   8.813
19333WAT      O58240   6.355   7.137   9.859
19333WAT     H158241   6.288   7.136   9.785
19333WAT     H258242   6.440   7.096   9.829
19334WAT      O58243   7.404   7.760   3.234
19334WAT     H158244   7.503   7.763   3.241
19334WAT     H258245   7.367   7.710   3.312
19335WAT      O58246   9.452   1.191   3.508
19335WAT     H158247   9.488   1.103   3.538
19335WAT     H258248   9.399   1.179   3.424
19336WAT      O58249   4.573   0.897   8.554
19336WAT     H158250   4.668   0.865   8.560
19336WAT     H258251   4.525   0.845   8.483
19337WAT      O58252   6.638   4.053   5.276
19337WAT     H158253   6.711   4.121   5.282
19337WAT     H258254   6.603   4.049   5.182
19338WAT      O58255   8.611   9.071   5.288
19338WAT     H158256   8.593   9.168   5.305
19338WAT     H258257   8.602   9.053   5.190
19339WAT      O58258   5.617   9.671   9.452
19339WAT     H158259   5.585   9.702   9.542
19339WAT     H258260   5.544   9.621   9.406
19340WAT      O58261   0.413   0.298   4.342
19340WAT     H158262   0.409   0.347   4.429
19340WAT     H258263   0.487   0.231   4.344
19341WAT      O58264   8.232   1.614   0.561
19341WAT     H158265   8.221   1.530   0.508
19341WAT     H258266   8.143   1.648   0.590
19342WAT      O58267   2.852   5.783   3.580
19342WAT     H158268   2.909   5.786   3.661
19342WAT     H258269   2.906   5.754   3.501
19343WAT      O58270   1.359   5.032   3.600
19343WAT     H158271   1.355   5.121   3.553
19343WAT     H258272   1.343   4.959   3.534
19344WAT      O58273   3.426   6.085   2.646
19344WAT     H158274   3.493   6.157   2.629
19344WAT     H258275   3.471   6.006   2.688
19345WAT      O58276   7.522   3.194   9.722
19345WAT     H158277   7.484   3.286   9.723
19345WAT     H258278   7.469   3.135   9.783
19346WAT      O58279   1.718   8.119   9.019
19346WAT     H158280   1.807   8.077   9.003
19346WAT     H258281   1.651   8.079   8.957
19347WAT      O58282   5.966   6.403   3.912
19347WAT     H158283   5.919   6.375   3.829
19347WAT     H258284   5.983   6.322   3.970
19348WAT      O58285   7.370   9.074   6.959
19348WAT     H158286   7.373   9.142   7.032
19348WAT     H258287   7.333   9.114   6.876
19349WAT      O58288   7.106   0.527   4.116
19349WAT     H158289   7.151   0.568   4.194
19349WAT     H258290   7.147   0.438   4.096
19350WAT      O58291   7.489   6.161   1.767
19350WAT     H158292   7.435   6.163   1.683
19350WAT     H258293   7.542   6.246   1.774
19351WAT      O58294   3.772   1.217   8.665
19351WAT     H158295   3.694   1.243   8.722
19351WAT     H258296   3.856   1.224   8.719
19352WAT      O58297   3.109   6.682   5.352
19352WAT     H158298   3.145   6.590   5.369
19352WAT     H258299   3.017   6.675   5.315
19353WAT      O58300   0.318   8.715   3.093
19353WAT     H158301   0.359   8.738   3.181
19353WAT     H258302   0.248   8.782   3.070
19354WAT      O58303   6.041   7.333   7.205
19354WAT     H158304   6.116   7.268   7.190
19354WAT     H258305   5.955   7.284   7.211
19355WAT      O58306   4.233   6.454   4.019
19355WAT     H158307   4.211   6.459   3.921
19355WAT     H258308   4.176   6.384   4.062
19356WAT      O58309   8.110   1.824   8.240
19356WAT     H158310   8.153   1.914   8.248
19356WAT     H258311   8.073   1.796   8.328
19357WAT      O58312   0.857   5.238   3.261
19357WAT     H158313   0.866   5.328   3.303
19357WAT     H258314   0.913   5.234   3.178
19358WAT      O58315   1.196   7.469   3.269
19358WAT     H158316   1.151   7.384   3.240
19358WAT     H258317   1.136   7.519   3.331
19359WAT      O58318   1.541   6.119   4.826
19359WAT     H158319   1.523   6.184   4.751
19359WAT     H258320   1.628   6.141   4.868
19360WAT      O58321   0.953   9.147   5.996
19360WAT     H158322   0.885   9.172   5.927
19360WAT     H258323   0.977   9.050   5.986
19361WAT      O58324   2.564   6.624   1.306
19361WAT     H158325   2.571   6.718   1.338
19361WAT     H258326   2.488   6.578   1.352
19362WAT      O58327   0.623   2.891   6.421
19362WAT     H158328   0.624   2.991   6.430
19362WAT     H258329   0.531   2.861   6.396
19363WAT      O58330   0.409   9.537   7.633
19363WAT     H158331   0.320   9.582   7.627
19363WAT     H258332   0.432   9.523   7.730
19364WAT      O58333   0.464   9.623   4.675
19364WAT     H158334   0.546   9.565   4.677
19364WAT     H258335   0.414   9.606   4.590
19365WAT      O58336   5.453   0.839   8.401
19365WAT     H158337   5.491   0.929   8.381
19365WAT     H258338   5.389   0.846   8.478
19366WAT      O58339   7.653   0.842   3.204
19366WAT     H158340   7.692   0.834   3.113
19366WAT     H258341   7.643   0.938   3.229
19367WAT      O58342   0.729   5.316   3.548
19367WAT     H158343   0.708   5.229   3.504
19367WAT     H258344   0.800   5.303   3.616
19368WAT      O58345   2.636   6.863   9.117
19368WAT     H158346   2.656   6.772   9.079
19368WAT     H258347   2.592   6.919   9.047
19369WAT      O58348   9.275   1.593   5.523
19369WAT     H158349   9.341   1.520   5.505
19369WAT     H258350   9.207   1.562   5.588
19370WAT      O58351   2.737   2.798   0.620
19370WAT     H158352   2.643   2.768   0.633
19370WAT     H258353   2.762   2.792   0.523
19371WAT      O58354   5.356   0.370   3.610
19371WAT     H158355   5.384   0.400   3.701
19371WAT     H258356   5.361   0.447   3.546
19372WAT      O58357   7.101   6.377   8.197
19372WAT     H158358   7.109   6.291   8.248
19372WAT     H258359   7.180   6.386   8.136
19373WAT      O58360   2.289   6.663   4.132
19373WAT     H158361   2.205   6.711   4.156
19373WAT     H258362   2.312   6.596   4.203
19374WAT      O58363   0.062   6.536   3.193
19374WAT     H158364   0.042   6.485   3.109
19374WAT     H258365   0.052   6.476   3.272
19375WAT      O58366   2.449   1.125   4.752
19375WAT     H158367   2.471   1.049   4.691
19375WAT     H258368   2.445   1.210   4.700
19376WAT      O58369   4.155   9.302   5.394
19376WAT     H158370   4.214   9.376   5.362
19376WAT     H258371   4.199   9.256   5.472
19377WAT      O58372   3.400   4.398   3.786
19377WAT     H158373   3.345   4.481   3.803
19377WAT     H258374   3.496   4.423   3.776
19378WAT      O58375   3.866   5.888   0.101
19378WAT     H158376   3.788   5.902   0.039
19378WAT     H258377   3.925   5.817   0.063
19379WAT      O58378   7.404   2.750   7.597
19379WAT     H158379   7.460   2.709   7.525
19379WAT     H258380   7.335   2.685   7.627
19380WAT      O58381   4.621   4.538   5.858
19380WAT     H158382   4.691   4.590   5.808
19380WAT     H258383   4.538   4.533   5.803
19381WAT      O58384   5.260   7.074   9.648
19381WAT     H158385   5.195   7.116   9.585
19381WAT     H258386   5.292   6.987   9.609
19382WAT      O58387   1.474   0.023   5.210
19382WAT     H158388   1.534   0.097   5.180
19382WAT     H258389   1.508  -0.014   5.296
19383WAT      O58390   6.866   6.539   0.651
19383WAT     H158391   6.854   6.442   0.671
19383WAT     H258392   6.841   6.594   0.731
19384WAT      O58393   1.227   4.046   8.887
19384WAT     H158394   1.305   4.030   8.947
19384WAT     H258395   1.148   4.076   8.941
19385WAT      O58396   2.648   2.116   2.847
19385WAT     H158397   2.736   2.130   2.802
19385WAT     H258398   2.641   2.176   2.926
19386WAT      O58399   1.665   0.127   6.255
19386WAT     H158400   1.733   0.177   6.310
19386WAT     H258401   1.678   0.029   6.267
19387WAT      O58402   4.743   2.002   1.039
19387WAT     H158403   4.659   1.998   0.984
19387WAT     H258404   4.814   1.946   0.997
19388WAT      O58405   9.710   7.274   4.803
19388WAT     H158406   9.797   7.230   4.785
19388WAT     H258407   9.708   7.307   4.897
19389WAT      O58408   3.793   8.907   1.813
19389WAT     H158409   3.768   8.992   1.860
19389WAT     H258410   3.746   8.830   1.857
19390WAT      O58411   3.854   5.684   0.685
19390WAT     H158412   3.925   5.723   0.628
19390WAT     H258413   3.872   5.587   0.700
19391WAT      O58414   4.564   3.522   0.805
19391WAT     H158415   4.625   3.509   0.727
19391WAT     H258416   4.558   3.437   0.857
19392WAT      O58417   8.516   4.259   1.464
19392WAT     H158418   8.564   4.175   1.489
19392WAT     H258419   8.582   4.332   1.448
19393WAT      O58420   2.775   3.017   3.056
19393WAT     H158421   2.786   2.935   3.000
19393WAT     H258422   2.678   3.041   3.062
19394WAT      O58423   0.319   5.649   7.296
19394WAT     H158424   0.375   5.722   7.336
19394WAT     H258425   0.363   5.561   7.314
19395WAT      O58426   9.181   4.980   4.747
19395WAT     H158427   9.213   4.888   4.768
19395WAT     H258428   9.103   4.974   4.684
19396WAT      O58429   7.560   8.801   8.525
19396WAT     H158430   7.477   8.755   8.493
19396WAT     H258431   7.620   8.734   8.569
19397WAT      O58432   4.283   8.296   8.103
19397WAT     H158433   4.261   8.367   8.036
19397WAT     H258434   4.371   8.254   8.081
19398WAT      O58435   1.884   2.931   9.852
19398WAT     H158436   1.967   2.888   9.887
19398WAT     H258437   1.869   2.902   9.757
19399WAT      O58438   3.463   1.589   2.395
19399WAT     H158439   3.402   1.639   2.334
19399WAT     H258440   3.410   1.531   2.456
19400WAT      O58441   9.093   9.402   4.638
19400WAT     H158442   8.998   9.382   4.616
19400WAT     H258443   9.139   9.443   4.559
19401WAT      O58444   9.180   1.471   0.262
19401WAT     H158445   9.104   1.473   0.196
19401WAT     H258446   9.222   1.562   0.267
19402WAT      O58447   1.002   8.254   7.172
19402WAT     H158448   1.066   8.294   7.106
19402WAT     H258449   0.914   8.301   7.165
19403WAT      O58450   1.110   2.545   6.641
19403WAT     H158451   1.174   2.614   6.608
19403WAT     H258452   1.069   2.497   6.563
19404WAT      O58453   8.757   3.285   2.265
19404WAT     H158454   8.751   3.186   2.258
19404WAT     H258455   8.761   3.325   2.173
19405WAT      O58456   3.797   3.822   7.596
19405WAT     H158457   3.870   3.757   7.573
19405WAT     H258458   3.717   3.803   7.539
19406WAT      O58459   5.636   4.313   5.983
19406WAT     H158460   5.723   4.280   6.020
19406WAT     H258461   5.614   4.261   5.900
19407WAT      O58462   2.515   1.645   3.438
19407WAT     H158463   2.454   1.619   3.363
19407WAT     H258464   2.609   1.617   3.416
19408WAT      O58465   3.479   5.475   6.088
19408WAT     H158466   3.454   5.567   6.059
19408WAT     H258467   3.398   5.426   6.118
19409WAT      O58468   2.064   2.125   8.510
19409WAT     H158469   2.039   2.129   8.607
19409WAT     H258470   2.032   2.207   8.464
19410WAT      O58471   5.527   0.783   7.206
19410WAT     H158472   5.534   0.729   7.122
19410WAT     H258473   5.618   0.816   7.233
19411WAT      O58474   8.420   0.179   1.246
19411WAT     H158475   8.465   0.090   1.252
19411WAT     H258476   8.331   0.168   1.203
19412WAT      O58477   2.210   4.668   4.582
19412WAT     H158478   2.221   4.749   4.523
19412WAT     H258479   2.288   4.660   4.643
19413WAT      O58480   0.773   2.756   1.366
19413WAT     H158481   0.773   2.709   1.454
19413WAT     H258482   0.854   2.815   1.358
19414WAT      O58483   0.026   3.849   8.324
19414WAT     H158484   0.100   3.811   8.380
19414WAT     H258485  -0.030   3.910   8.380
19415WAT      O58486   6.254   7.088   0.214
19415WAT     H158487   6.294   7.123   0.129
19415WAT     H258488   6.176   7.146   0.240
19416WAT      O58489   5.559   4.371   4.501
19416WAT     H158490   5.557   4.271   4.498
19416WAT     H258491   5.491   4.408   4.439
19417WAT      O58492   0.724   8.537   4.843
19417WAT     H158493   0.738   8.440   4.824
19417WAT     H258494   0.804   8.573   4.891
19418WAT      O58495   5.488   2.418   5.402
19418WAT     H158496   5.488   2.372   5.313
19418WAT     H258497   5.470   2.515   5.389
19419WAT      O58498   7.695   8.106   5.782
19419WAT     H158499   7.789   8.078   5.799
19419WAT     H258500   7.634   8.054   5.843
19420WAT      O58501   3.260   9.041   6.490
19420WAT     H158502   3.331   9.110   6.503
19420WAT     H258503   3.229   9.007   6.579
19421WAT      O58504   1.194   9.602   1.573
19421WAT     H158505   1.114   9.660   1.588
19421WAT     H258506   1.178   9.544   1.493
19422WAT      O58507   4.135   0.155   2.789
19422WAT     H158508   4.149   0.236   2.732
19422WAT     H258509   4.038   0.144   2.809
19423WAT      O58510   5.199   1.590   2.982
19423WAT     H158511   5.238   1.681   2.967
19423WAT     H258512   5.248   1.523   2.926
19424WAT      O58513   8.696   0.390   3.870
19424WAT     H158514   8.736   0.479   3.890
19424WAT     H258515   8.755   0.341   3.805
19425WAT      O58516   7.310   6.288   8.841
19425WAT     H158517   7.320   6.371   8.895
19425WAT     H258518   7.242   6.229   8.883
19426WAT      O58519   8.951   5.127   0.354
19426WAT     H158520   8.970   5.071   0.273
19426WAT     H258521   8.937   5.222   0.326
19427WAT      O58522   8.361   4.356   1.046
19427WAT     H158523   8.284   4.401   1.002
19427WAT     H258524   8.428   4.329   0.977
19428WAT      O58525   4.169   2.729   8.858
19428WAT     H158526   4.148   2.796   8.930
19428WAT     H258527   4.105   2.653   8.863
19429WAT      O58528   8.620   8.331   0.411
19429WAT     H158529   8.694   8.296   0.352
19429WAT     H258530   8.653   8.411   0.461
19430WAT      O58531   0.266   7.545   6.677
19430WAT     H158532   0.251   7.480   6.602
19430WAT     H258533   0.177   7.571   6.716
19431WAT      O58534   3.196   0.074   4.145
19431WAT     H158535   3.166   0.071   4.049
19431WAT     H258536   3.164   0.158   4.187
19432WAT      O58537   8.007   1.778   9.807
19432WAT     H158538   7.913   1.758   9.780
19432WAT     H258539   8.049   1.696   9.847
19433WAT      O58540   1.278   1.785   9.297
19433WAT     H158541   1.245   1.876   9.323
19433WAT     H258542   1.204   1.735   9.252
19434WAT      O58543   0.735   6.699   2.425
19434WAT     H158544   0.768   6.680   2.333
19434WAT     H258545   0.812   6.716   2.486
19435WAT      O58546   3.576   0.424   9.681
19435WAT     H158547   3.602   0.452   9.774
19435WAT     H258548   3.480   0.397   9.680
19436WAT      O58549   1.732   6.325   7.958
19436WAT     H158550   1.724   6.296   7.862
19436WAT     H258551   1.764   6.247   8.013
19437WAT      O58552   1.739   0.399   4.197
19437WAT     H158553   1.741   0.343   4.114
19437WAT     H258554   1.724   0.340   4.276
19438WAT      O58555   4.784   1.530   2.928
19438WAT     H158556   4.802   1.562   2.835
19438WAT     H258557   4.858   1.471   2.958
19439WAT      O58558   7.166   5.005   8.143
19439WAT     H158559   7.188   4.931   8.207
19439WAT     H258560   7.232   5.006   8.068
19440WAT      O58561   1.809   2.749   2.522
19440WAT     H158562   1.813   2.818   2.450
19440WAT     H258563   1.877   2.678   2.504
19441WAT      O58564   0.654   7.240   9.593
19441WAT     H158565   0.611   7.257   9.504
19441WAT     H258566   0.731   7.303   9.606
19442WAT      O58567   9.811   8.507   0.602
19442WAT     H158568   9.797   8.434   0.668
19442WAT     H258569   9.881   8.571   0.636
19443WAT      O58570   9.060   7.523   4.357
19443WAT     H158571   9.134   7.557   4.299
19443WAT     H258572   8.981   7.499   4.301
19444WAT      O58573   4.763   4.449   8.828
19444WAT     H158574   4.724   4.367   8.787
19444WAT     H258575   4.863   4.448   8.816
19445WAT      O58576   9.458   9.588   6.979
19445WAT     H158577   9.415   9.665   7.027
19445WAT     H258578   9.387   9.523   6.952
19446WAT      O58579   7.431   9.319   0.571
19446WAT     H158580   7.406   9.315   0.668
19446WAT     H258581   7.426   9.228   0.531
19447WAT      O58582   5.639   9.843   3.168
19447WAT     H158583   5.648   9.792   3.082
19447WAT     H258584   5.543   9.869   3.180
19448WAT      O58585   1.733   4.025   1.302
19448WAT     H158586   1.735   3.983   1.211
19448WAT     H258587   1.641   4.017   1.340
19449WAT      O58588   7.505   8.312   2.311
19449WAT     H158589   7.499   8.389   2.375
19449WAT     H258590   7.475   8.228   2.356
19450WAT      O58591   0.611   7.862   2.149
19450WAT     H158592   0.697   7.911   2.136
19450WAT     H258593   0.534   7.923   2.130
19451WAT      O58594   0.167   6.013   5.131
19451WAT     H158595   0.212   6.056   5.053
19451WAT     H258596   0.077   6.054   5.145
19452WAT      O58597   1.639   7.404   7.760
19452WAT     H158598   1.545   7.429   7.778
19452WAT     H258599   1.692   7.485   7.736
19453WAT      O58600   1.969   9.346   1.406
19453WAT     H158601   1.941   9.360   1.501
19453WAT     H258602   2.038   9.273   1.402
19454WAT      O58603   2.239   3.412   1.111
19454WAT     H158604   2.321   3.360   1.134
19454WAT     H258605   2.177   3.412   1.190
19455WAT      O58606   7.296   1.613   4.406
19455WAT     H158607   7.300   1.541   4.476
19455WAT     H258608   7.281   1.701   4.449
19456WAT      O58609   0.709   3.052   4.084
19456WAT     H158610   0.624   3.090   4.119
19456WAT     H258611   0.688   2.979   4.019
19457WAT      O58612   8.758   5.009   3.896
19457WAT     H158613   8.735   4.968   3.984
19457WAT     H258614   8.681   4.997   3.833
19458WAT      O58615   6.942   6.368   6.155
19458WAT     H158616   6.883   6.419   6.092
19458WAT     H258617   7.010   6.429   6.195
19459WAT      O58618   4.854   8.144   4.828
19459WAT     H158619   4.799   8.074   4.875
19459WAT     H258620   4.932   8.169   4.886
19460WAT      O58621   4.619   4.755   9.643
19460WAT     H158622   4.622   4.824   9.716
19460WAT     H258623   4.688   4.685   9.660
19461WAT      O58624   8.502   5.027   5.488
19461WAT     H158625   8.533   5.121   5.472
19461WAT     H258626   8.516   4.973   5.405
19462WAT      O58627   1.900   4.651   3.033
19462WAT     H158628   1.879   4.649   3.131
19462WAT     H258629   1.931   4.742   3.007
19463WAT      O58630   7.181   9.067   6.310
19463WAT     H158631   7.226   9.045   6.397
19463WAT     H258632   7.083   9.051   6.319
19464WAT      O58633   5.849   2.726   3.402
19464WAT     H158634   5.787   2.686   3.334
19464WAT     H258635   5.926   2.769   3.355
19465WAT      O58636   6.023   7.055   8.931
19465WAT     H158637   5.963   7.020   8.859
19465WAT     H258638   6.075   7.133   8.896
19466WAT      O58639   9.820   1.351   8.174
19466WAT     H158640   9.904   1.404   8.160
19466WAT     H258641   9.843   1.255   8.191
19467WAT      O58642   0.928   5.320   4.325
19467WAT     H158643   0.944   5.419   4.325
19467WAT     H258644   0.869   5.296   4.402
19468WAT      O58645   3.703   6.662   3.544
19468WAT     H158646   3.741   6.585   3.596
19468WAT     H258647   3.604   6.656   3.544
19469WAT      O58648   0.360   1.864   5.614
19469WAT     H158649   0.401   1.776   5.636
19469WAT     H258650   0.293   1.853   5.541
19470WAT      O58651   2.481   6.535   0.542
19470WAT     H158652   2.479   6.494   0.451
19470WAT     H258653   2.557   6.599   0.549
19471WAT      O58654   8.881   8.951   9.383
19471WAT     H158655   8.931   8.881   9.330
19471WAT     H258656   8.783   8.943   9.364
19472WAT      O58657   9.463   9.714   5.395
19472WAT     H158658   9.562   9.722   5.402
19472WAT     H258659   9.420   9.777   5.460
19473WAT      O58660   7.775   1.559   9.861
19473WAT     H158661   7.714   1.507   9.801
19473WAT     H258662   7.737   1.650   9.877
19474WAT      O58663   0.449   8.342   9.193
19474WAT     H158664   0.523   8.403   9.165
19474WAT     H258665   0.485   8.269   9.250
19475WAT      O58666   7.967   9.285   7.617
19475WAT     H158667   7.985   9.354   7.688
19475WAT     H258668   8.046   9.224   7.609
19476WAT      O58669   2.321   9.720   6.148
19476WAT     H158670   2.331   9.741   6.051
19476WAT     H258671   2.267   9.637   6.159
19477WAT      O58672   5.698   6.024   0.460
19477WAT     H158673   5.667   6.073   0.379
19477WAT     H258674   5.711   5.927   0.438
19478WAT      O58675   9.308   6.299   1.577
19478WAT     H158676   9.390   6.242   1.584
19478WAT     H258677   9.253   6.288   1.660
19479WAT      O58678   3.776   4.724   2.931
19479WAT     H158679   3.831   4.741   2.849
19479WAT     H258680   3.731   4.635   2.923
19480WAT      O58681   2.160   7.999   0.799
19480WAT     H158682   2.168   7.918   0.857
19480WAT     H258683   2.152   7.971   0.703
19481WAT      O58684   9.812   5.297   4.640
19481WAT     H158685   9.791   5.376   4.583
19481WAT     H258686   9.727   5.259   4.677
19482WAT      O58687   6.908   9.023   6.364
19482WAT     H158688   6.911   8.926   6.384
19482WAT     H258689   6.821   9.062   6.397
19483WAT      O58690   1.328   3.705   3.860
19483WAT     H158691   1.392   3.628   3.868
19483WAT     H258692   1.312   3.724   3.763
19484WAT      O58693   5.060   8.598   3.974
19484WAT     H158694   5.025   8.534   4.043
19484WAT     H258695   4.985   8.628   3.916
19485WAT      O58696   6.673   7.424   0.172
19485WAT     H158697   6.753   7.390   0.122
19485WAT     H258698   6.696   7.511   0.215
19486WAT      O58699   6.808   2.609   1.219
19486WAT     H158700   6.810   2.509   1.215
19486WAT     H258701   6.713   2.639   1.228
19487WAT      O58702   1.306   7.546   5.709
19487WAT     H158703   1.391   7.553   5.762
19487WAT     H258704   1.300   7.454   5.669
19488WAT      O58705   1.822   7.011   8.685
19488WAT     H158706   1.791   6.979   8.595
19488WAT     H258707   1.871   7.098   8.674
19489WAT      O58708   0.105   2.559   7.566
19489WAT     H158709   0.163   2.506   7.504
19489WAT     H258710   0.072   2.640   7.519
19490WAT      O58711   7.528   3.323   1.578
19490WAT     H158712   7.539   3.394   1.648
19490WAT     H258713   7.431   3.306   1.562
19491WAT      O58714   4.829   2.800   2.107
19491WAT     H158715   4.753   2.835   2.161
19491WAT     H258716   4.801   2.715   2.062
19492WAT      O58717   5.866   8.994   4.182
19492WAT     H158718   5.769   8.977   4.201
19492WAT     H258719   5.903   9.057   4.249
19493WAT      O58720   9.364   6.121   0.092
19493WAT     H158721   9.383   6.057   0.018
19493WAT     H258722   9.267   6.115   0.117
19494WAT      O58723   1.005   0.602   5.277
19494WAT     H158724   1.001   0.701   5.285
19494WAT     H258725   1.100   0.572   5.284
19495WAT      O58726   2.589   5.681   1.879
19495WAT     H158727   2.525   5.606   1.893
19495WAT     H258728   2.640   5.698   1.964
19496WAT      O58729   9.603   2.984   7.706
19496WAT     H158730   9.601   2.987   7.806
19496WAT     H258731   9.595   2.889   7.676
19497WAT      O58732   0.162   6.381   5.329
19497WAT     H158733   0.168   6.381   5.429
19497WAT     H258734   0.107   6.303   5.300
19498WAT      O58735   2.937   6.721   7.602
19498WAT     H158736   2.989   6.643   7.567
19498WAT     H258737   2.910   6.780   7.526
19499WAT      O58738   1.791   2.990   5.057
19499WAT     H158739   1.869   2.930   5.037
19499WAT     H258740   1.758   3.030   4.971
19500WAT      O58741   7.823   5.621   0.888
19500WAT     H158742   7.892   5.595   0.955
19500WAT     H258743   7.738   5.572   0.907
19501WAT      O58744   3.312   4.072   7.516
19501WAT     H158745   3.319   3.974   7.538
19501WAT     H258746   3.324   4.085   7.418
19502WAT      O58747   6.253   4.850   0.446
19502WAT     H158748   6.288   4.879   0.356
19502WAT     H258749   6.153   4.855   0.446
19503WAT      O58750   7.019   2.835   7.681
19503WAT     H158751   7.064   2.877   7.603
19503WAT     H258752   6.936   2.885   7.704
19504WAT      O58753   5.151   3.796   5.578
19504WAT     H158754   5.177   3.860   5.505
19504WAT     H258755   5.212   3.717   5.577
19505WAT      O58756   7.645   9.309   7.232
19505WAT     H158757   7.690   9.314   7.143
19505WAT     H258758   7.711   9.280   7.301
19506WAT      O58759   1.359   5.681   3.462
19506WAT     H158760   1.268   5.705   3.429
19506WAT     H258761   1.352   5.609   3.531
19507WAT      O58762   3.367   8.882   5.381
19507WAT     H158763   3.456   8.864   5.339
19507WAT     H258764   3.332   8.971   5.351
19508WAT      O58765   2.364   6.560   5.941
19508WAT     H158766   2.367   6.495   6.016
19508WAT     H258767   2.290   6.626   5.957
19509WAT      O58768   4.791   2.573   1.978
19509WAT     H158769   4.861   2.599   1.912
19509WAT     H258770   4.801   2.476   2.001
19510WAT      O58771   5.173   5.427   7.777
19510WAT     H158772   5.225   5.345   7.753
19510WAT     H258773   5.158   5.482   7.695
19511WAT      O58774   6.428   0.005   2.866
19511WAT     H158775   6.339  -0.037   2.853
19511WAT     H258776   6.466   0.032   2.778
19512WAT      O58777   4.631   8.713   6.390
19512WAT     H158778   4.601   8.726   6.484
19512WAT     H258779   4.730   8.702   6.387
19513WAT      O58780   5.852   2.654   0.324
19513WAT     H158781   5.858   2.747   0.362
19513WAT     H258782   5.770   2.647   0.268
19514WAT      O58783   3.888   1.398   3.049
19514WAT     H158784   3.807   1.455   3.062
19514WAT     H258785   3.970   1.452   3.068
19515WAT      O58786   4.850   4.429   9.415
19515WAT     H158787   4.928   4.384   9.372
19515WAT     H258788   4.816   4.502   9.355
19516WAT      O58789   3.561   8.610   8.508
19516WAT     H158790   3.620   8.535   8.539
19516WAT     H258791   3.550   8.605   8.409
19517WAT      O58792   1.865   6.843   0.347
19517WAT     H158793   1.817   6.763   0.383
19517WAT     H258794   1.866   6.839   0.247
19518WAT      O58795   9.396   1.495   0.503
19518WAT     H158796   9.404   1.502   0.603
19518WAT     H258797   9.345   1.412   0.480
19519WAT      O58798   6.745   6.833   7.100
19519WAT     H158799   6.693   6.847   7.184
19519WAT     H258800   6.723   6.743   7.062
19520WAT      O58801   5.051   4.202   8.496
19520WAT     H158802   4.974   4.140   8.503
19520WAT     H258803   5.131   4.153   8.463
19521WAT      O58804   6.584   0.501   2.872
19521WAT     H158805   6.582   0.588   2.920
19521WAT     H258806   6.649   0.439   2.918
19522WAT      O58807   2.707   2.888   5.681
19522WAT     H158808   2.667   2.797   5.670
19522WAT     H258809   2.788   2.897   5.623
19523WAT      O58810   6.117   4.140   4.706
19523WAT     H158811   6.036   4.112   4.757
19523WAT     H258812   6.108   4.113   4.611
19524WAT      O58813   5.333   3.143   5.373
19524WAT     H158814   5.279   3.195   5.439
19524WAT     H258815   5.282   3.062   5.345
19525WAT      O58816   3.924   1.951   9.804
19525WAT     H158817   3.887   1.948   9.711
19525WAT     H258818   4.009   2.004   9.804
19526WAT      O58819   3.475   7.825   5.000
19526WAT     H158820   3.383   7.865   4.999
19526WAT     H258821   3.517   7.837   4.910
19527WAT      O58822   6.954   9.307   9.619
19527WAT     H158823   6.893   9.261   9.682
19527WAT     H258824   7.047   9.271   9.630
19528WAT      O58825   5.193   8.970   5.072
19528WAT     H158826   5.176   8.920   5.157
19528WAT     H258827   5.112   8.966   5.014
19529WAT      O58828   0.788   6.283   0.260
19529WAT     H158829   0.718   6.281   0.188
19529WAT     H258830   0.755   6.338   0.337
19530WAT      O58831   6.176   0.625   2.709
19530WAT     H158832   6.224   0.599   2.625
19530WAT     H258833   6.148   0.721   2.703
19531WAT      O58834   6.120   2.545   6.943
19531WAT     H158835   6.217   2.568   6.931
19531WAT     H258836   6.086   2.499   6.862
19532WAT      O58837   0.510   8.305   7.981
19532WAT     H158838   0.584   8.332   7.919
19532WAT     H258839   0.549   8.259   8.061
19533WAT      O58840   3.949   1.443   6.334
19533WAT     H158841   3.948   1.372   6.405
19533WAT     H258842   4.043   1.466   6.312
19534WAT      O58843   4.935   2.008   2.583
19534WAT     H158844   5.004   1.962   2.640
19534WAT     H258845   4.910   1.948   2.507
19535WAT      O58846   3.468   5.880   8.842
19535WAT     H158847   3.436   5.797   8.796
19535WAT     H258848   3.533   5.856   8.914
19536WAT      O58849   5.094   4.579   4.777
19536WAT     H158850   5.111   4.617   4.868
19536WAT     H258851   5.132   4.486   4.772
19537WAT      O58852   4.522   8.203   3.220
19537WAT     H158853   4.596   8.136   3.225
19537WAT     H258854   4.439   8.163   3.260
19538WAT      O58855   5.303   1.239   5.973
19538WAT     H158856   5.207   1.267   5.976
19538WAT     H258857   5.328   1.196   6.060
19539WAT      O58858   7.125   7.384   1.724
19539WAT     H158859   7.197   7.382   1.793
19539WAT     H258860   7.067   7.303   1.734
19540WAT      O58861   2.128   7.789   5.506
19540WAT     H158862   2.175   7.860   5.452
19540WAT     H258863   2.096   7.828   5.592
19541WAT      O58864   5.277   1.665   3.638
19541WAT     H158865   5.226   1.730   3.581
19541WAT     H258866   5.329   1.603   3.579
19542WAT      O58867   6.605   5.831   7.107
19542WAT     H158868   6.537   5.771   7.150
19542WAT     H258869   6.565   5.874   7.026
19543WAT      O58870   9.537   8.364   8.057
19543WAT     H158871   9.462   8.418   8.096
19543WAT     H258872   9.520   8.349   7.959
19544WAT      O58873   1.492   3.051   2.836
19544WAT     H158874   1.446   3.094   2.913
19544WAT     H258875   1.473   2.953   2.835
19545WAT      O58876   9.074   9.427   4.036
19545WAT     H158877   9.126   9.369   3.973
19545WAT     H258878   9.135   9.493   4.080
19546WAT      O58879   8.667   7.222   0.467
19546WAT     H158880   8.667   7.193   0.563
19546WAT     H258881   8.649   7.321   0.462
19547WAT      O58882   2.306   8.981   2.363
19547WAT     H158883   2.330   8.965   2.459
19547WAT     H258884   2.312   8.896   2.312
19548WAT      O58885   2.200   9.651   5.344
19548WAT     H158886   2.290   9.690   5.324
19548WAT     H258887   2.149   9.715   5.402
19549WAT      O58888   1.207   9.477   2.965
19549WAT     H158889   1.220   9.383   2.995
19549WAT     H258890   1.199   9.536   3.046
19550WAT      O58891   3.084   3.348   0.043
19550WAT     H158892   3.060   3.433  -0.005
19550WAT     H258893   3.179   3.323   0.022
19551WAT      O58894   0.952   8.640   4.940
19551WAT     H158895   1.032   8.640   4.880
19551WAT     H258896   0.934   8.734   4.971
19552WAT      O58897   8.333   4.443   0.622
19552WAT     H158898   8.263   4.489   0.678
19552WAT     H258899   8.332   4.345   0.640
19553WAT      O58900   9.714   9.457   3.539
19553WAT     H158901   9.651   9.532   3.554
19553WAT     H258902   9.775   9.478   3.462
19554WAT      O58903   0.522   5.869   2.005
19554WAT     H158904   0.463   5.799   2.046
19554WAT     H258905   0.585   5.826   1.941
19555WAT      O58906   9.431   3.848   7.329
19555WAT     H158907   9.448   3.836   7.427
19555WAT     H258908   9.518   3.850   7.280
19556WAT      O58909   4.558   3.804   0.432
19556WAT     H158910   4.473   3.855   0.448
19556WAT     H258911   4.618   3.814   0.511
19557WAT      O58912   6.631   1.675   6.090
19557WAT     H158913   6.688   1.634   6.020
19557WAT     H258914   6.626   1.614   6.170
19558WAT      O58915   5.424   3.261   7.257
19558WAT     H158916   5.429   3.201   7.177
19558WAT     H258917   5.337   3.248   7.303
19559WAT      O58918   4.497   2.032   0.873
19559WAT     H158919   4.462   2.119   0.908
19559WAT     H258920   4.423   1.964   0.874
19560WAT      O58921   8.203   8.481   7.974
19560WAT     H158922   8.187   8.393   8.020
19560WAT     H258923   8.117   8.514   7.934
19561WAT      O58924   0.417   7.453   1.657
19561WAT     H158925   0.371   7.487   1.576
19561WAT     H258926   0.512   7.432   1.635
19562WAT      O58927   3.537   3.512   8.029
19562WAT     H158928   3.535   3.545   8.123
19562WAT     H258929   3.511   3.415   8.026
19563WAT      O58930   1.745   8.145   6.052
19563WAT     H158931   1.717   8.225   6.000
19563WAT     H258932   1.668   8.114   6.108
19564WAT      O58933   1.811   5.850   5.915
19564WAT     H158934   1.877   5.776   5.902
19564WAT     H258935   1.748   5.852   5.838
19565WAT      O58936   9.075   7.341   8.221
19565WAT     H158937   9.014   7.416   8.244
19565WAT     H258938   9.143   7.329   8.294
19566WAT      O58939   0.012   8.061   3.908
19566WAT     H158940   0.042   8.071   4.003
19566WAT     H258941   0.053   8.134   3.853
19567WAT      O58942   8.111   8.924   5.738
19567WAT     H158943   8.147   8.888   5.652
19567WAT     H258944   8.084   9.019   5.725
19568WAT      O58945   2.714   4.453   3.636
19568WAT     H158946   2.668   4.417   3.555
19568WAT     H258947   2.812   4.462   3.617
19569WAT      O58948   2.770   4.475   3.912
19569WAT     H158949   2.800   4.397   3.965
19569WAT     H258950   2.742   4.445   3.821
19570WAT      O58951   3.063   7.374   6.053
19570WAT     H158952   3.029   7.461   6.087
19570WAT     H258953   3.163   7.377   6.049
19571WAT      O58954   9.022   5.939   5.168
19571WAT     H158955   8.971   6.013   5.123
19571WAT     H258956   9.098   5.911   5.111
19572WAT      O58957   3.826   8.426   7.141
19572WAT     H158958   3.792   8.425   7.048
19572WAT     H258959   3.768   8.485   7.198
19573WAT      O58960   3.352   3.135   6.276
19573WAT     H158961   3.318   3.077   6.202
19573WAT     H258962   3.438   3.098   6.310
19574WAT      O58963   7.516   1.885   3.152
19574WAT     H158964   7.442   1.819   3.152
19574WAT     H258965   7.569   1.876   3.237
19575WAT      O58966   5.662   9.226   9.505
19575WAT     H158967   5.689   9.210   9.600
19575WAT     H258968   5.563   9.220   9.497
19576WAT      O58969   6.436   0.609   1.849
19576WAT     H158970   6.509   0.666   1.813
19576WAT     H258971   6.422   0.530   1.789
19577WAT      O58972   7.070   0.757   8.684
19577WAT     H158973   6.978   0.743   8.720
19577WAT     H258974   7.114   0.832   8.732
19578WAT      O58975   5.644   3.675   5.869
19578WAT     H158976   5.715   3.693   5.938
19578WAT     H258977   5.629   3.758   5.815
19579WAT      O58978   7.749   1.890   9.506
19579WAT     H158979   7.696   1.812   9.473
19579WAT     H258980   7.832   1.899   9.451
19580WAT      O58981   8.797   8.109   2.941
19580WAT     H158982   8.749   8.122   2.855
19580WAT     H258983   8.849   8.024   2.938
19581WAT      O58984   0.279   5.893   8.273
19581WAT     H158985   0.332   5.833   8.333
19581WAT     H258986   0.260   5.845   8.187
19582WAT      O58987   8.908   7.058   1.036
19582WAT     H158988   8.910   7.038   1.134
19582WAT     H258989   8.816   7.041   1.000
19583WAT      O58990   4.469   4.839   3.255
19583WAT     H158991   4.559   4.797   3.259
19583WAT     H258992   4.409   4.795   3.322
19584WAT      O58993   9.211   1.836   7.785
19584WAT     H158994   9.217   1.882   7.873
19584WAT     H258995   9.287   1.867   7.727
19585WAT      O58996   3.091   7.280   9.385
19585WAT     H158997   3.123   7.374   9.395
19585WAT     H258998   3.143   7.220   9.446
19586WAT      O58999   1.395   6.909   0.070
19586WAT     H159000   1.347   6.891   0.155
19586WAT     H259001   1.442   6.826   0.039
19587WAT      O59002   8.065   2.022   1.591
19587WAT     H159003   7.994   2.053   1.654
19587WAT     H259004   8.067   1.922   1.591
19588WAT      O59005   2.044   0.499   2.871
19588WAT     H159006   2.038   0.431   2.944
19588WAT     H259007   1.955   0.541   2.856
19589WAT      O59008   4.667   9.327   6.553
19589WAT     H159009   4.661   9.303   6.650
19589WAT     H259010   4.633   9.421   6.540
19590WAT      O59011   3.501   4.367   1.231
19590WAT     H159012   3.402   4.358   1.234
19590WAT     H259013   3.528   4.454   1.273
19591WAT      O59014   0.052   7.121   7.330
19591WAT     H159015   0.082   7.154   7.420
19591WAT     H259016   0.131   7.090   7.277
19592WAT      O59017   5.870   4.947   4.320
19592WAT     H159018   5.856   4.853   4.289
19592WAT     H259019   5.794   4.974   4.378
19593WAT      O59020   6.734   3.490   1.472
19593WAT     H159021   6.700   3.582   1.488
19593WAT     H259022   6.813   3.473   1.530
19594WAT      O59023   8.235   2.192   7.794
19594WAT     H159024   8.258   2.290   7.790
19594WAT     H259025   8.234   2.155   7.701
19595WAT      O59026   4.280   0.025   0.784
19595WAT     H159027   4.373   0.058   0.769
19595WAT     H259028   4.281  -0.044   0.857
19596WAT      O59029   6.017   4.259   8.963
19596WAT     H159030   6.111   4.248   8.930
19596WAT     H259031   6.018   4.280   9.061
19597WAT      O59032   2.885   9.465   8.363
19597WAT     H159033   2.947   9.440   8.437
19597WAT     H259034   2.938   9.482   8.280
19598WAT      O59035   4.726   7.965   0.980
19598WAT     H159036   4.737   7.887   1.041
19598WAT     H259037   4.637   7.959   0.934
19599WAT      O59038   3.452   0.411   4.571
19599WAT     H159039   3.438   0.325   4.619
19599WAT     H259040   3.455   0.394   4.472
19600WAT      O59041   7.644   6.573   3.640
19600WAT     H159042   7.641   6.489   3.585
19600WAT     H259043   7.596   6.646   3.591
19601WAT      O59044   9.273   6.399   3.890
19601WAT     H159045   9.298   6.359   3.978
19601WAT     H259046   9.339   6.471   3.866
19602WAT      O59047   3.926   9.700   5.052
19602WAT     H159048   3.883   9.615   5.020
19602WAT     H259049   4.021   9.703   5.020
19603WAT      O59050   6.030   6.193   1.446
19603WAT     H159051   5.936   6.189   1.411
19603WAT     H259052   6.063   6.287   1.442
19604WAT      O59053   9.771   0.850   7.913
19604WAT     H159054   9.675   0.877   7.905
19604WAT     H259055   9.779   0.751   7.900
19605WAT      O59056   3.765   2.554   5.039
19605WAT     H159057   3.678   2.510   5.060
19605WAT     H259058   3.763   2.649   5.070
19606WAT      O59059   8.912   2.973   7.364
19606WAT     H159060   8.945   2.925   7.445
19606WAT     H259061   8.904   3.070   7.384
19607WAT      O59062   1.825   1.923   0.057
19607WAT     H159063   1.799   1.859  -0.016
19607WAT     H259064   1.924   1.936   0.056
19608WAT      O59065   3.452   0.870   4.887
19608WAT     H159066   3.508   0.939   4.841
19608WAT     H259067   3.489   0.779   4.869
19609WAT      O59068   9.275   5.035   8.711
19609WAT     H159069   9.202   5.003   8.650
19609WAT     H259070   9.302   4.960   8.771
19610WAT      O59071   7.769   7.832   5.418
19610WAT     H159072   7.766   7.763   5.490
19610WAT     H259073   7.678   7.842   5.378
19611WAT      O59074   3.211   3.119   2.502
19611WAT     H159075   3.125   3.130   2.553
19611WAT     H259076   3.238   3.023   2.503
19612WAT      O59077   8.628   6.361   6.246
19612WAT     H159078   8.583   6.309   6.174
19612WAT     H259079   8.589   6.337   6.334
19613WAT      O59080   0.196   4.254   9.761
19613WAT     H159081   0.163   4.267   9.668
19613WAT     H259082   0.184   4.340   9.812
19614WAT      O59083   4.980   2.306   1.306
19614WAT     H159084   4.925   2.235   1.349
19614WAT     H259085   5.077   2.285   1.318
19615WAT      O59086   7.971   2.604   4.967
19615WAT     H159087   7.905   2.671   4.999
19615WAT     H259088   8.051   2.605   5.028
19616WAT      O59089   8.614   4.403   4.746
19616WAT     H159090   8.596   4.361   4.657
19616WAT     H259091   8.571   4.350   4.818
19617WAT      O59092   5.566   4.048   5.231
19617WAT     H159093   5.518   4.074   5.147
19617WAT     H259094   5.559   4.123   5.297
19618WAT      O59095   6.214   5.558   7.473
19618WAT     H159096   6.161   5.628   7.425
19618WAT     H259097   6.159   5.475   7.482
19619WAT      O59098   3.359   2.451   0.839
19619WAT     H159099   3.314   2.462   0.927
19619WAT     H259100   3.339   2.360   0.802
19620WAT      O59101   6.729   5.812   3.697
19620WAT     H159102   6.688   5.731   3.655
19620WAT     H259103   6.712   5.892   3.640
19621WAT      O59104   4.170   3.165   9.526
19621WAT     H159105   4.157   3.264   9.529
19621WAT     H259106   4.179   3.136   9.430
19622WAT      O59107   0.580   3.958   9.131
19622WAT     H159108   0.624   4.041   9.164
19622WAT     H259109   0.482   3.961   9.151
19623WAT      O59110   8.023   2.252   0.131
19623WAT     H159111   7.971   2.334   0.107
19623WAT     H259112   7.980   2.172   0.091
19624WAT      O59113   9.504   8.902   8.534
19624WAT     H159114   9.522   9.000   8.519
19624WAT     H259115   9.591   8.854   8.543
19625WAT      O59116   6.592   4.627   0.012
19625WAT     H159117   6.563   4.718   0.043
19625WAT     H259118   6.518   4.562   0.023
19626WAT      O59119   2.232   5.052   7.724
19626WAT     H159120   2.177   5.030   7.805
19626WAT     H259121   2.279   5.139   7.739
19627WAT      O59122   4.078   8.902   4.979
19627WAT     H159123   4.122   8.816   4.953
19627WAT     H259124   4.144   8.960   5.025
19628WAT      O59125   1.775   5.198   9.347
19628WAT     H159126   1.759   5.216   9.444
19628WAT     H259127   1.698   5.234   9.294
19629WAT      O59128   9.290   0.976   3.055
19629WAT     H159129   9.218   0.957   2.988
19629WAT     H259130   9.348   1.050   3.021
19630WAT      O59131   3.702   7.604   0.185
19630WAT     H159132   3.662   7.676   0.128
19630WAT     H259133   3.648   7.521   0.177
19631WAT      O59134   2.051   5.504   5.339
19631WAT     H159135   2.147   5.497   5.366
19631WAT     H259136   2.029   5.599   5.319
19632WAT      O59137   6.502   8.088   9.724
19632WAT     H159138   6.470   8.028   9.652
19632WAT     H259139   6.451   8.070   9.808
19633WAT      O59140   9.887   9.793   1.550
19633WAT     H159141   9.935   9.822   1.467
19633WAT     H259142   9.858   9.874   1.601
19634WAT      O59143   7.581   6.936   9.002
19634WAT     H159144   7.538   6.924   9.091
19634WAT     H259145   7.556   6.861   8.942
19635WAT      O59146   3.254   5.721   7.351
19635WAT     H159147   3.170   5.696   7.400
19635WAT     H259148   3.332   5.674   7.393
19636WAT      O59149   8.476   6.491   4.775
19636WAT     H159150   8.466   6.468   4.678
19636WAT     H259151   8.558   6.446   4.811
19637WAT      O59152   2.941   3.839   9.433
19637WAT     H159153   2.981   3.911   9.377
19637WAT     H259154   2.957   3.750   9.390
19638WAT      O59155   9.177   6.578   4.891
19638WAT     H159156   9.150   6.520   4.814
19638WAT     H259157   9.102   6.584   4.957
19639WAT      O59158   6.769   3.716   7.412
19639WAT     H159159   6.811   3.797   7.369
19639WAT     H259160   6.811   3.699   7.501
19640WAT      O59161   6.390   7.833   1.200
19640WAT     H159162   6.295   7.849   1.228
19640WAT     H259163   6.452   7.867   1.272
19641WAT      O59164   0.623   4.275   4.830
19641WAT     H159165   0.591   4.344   4.766
19641WAT     H259166   0.621   4.311   4.923
19642WAT      O59167   1.623   9.461   5.856
19642WAT     H159168   1.640   9.559   5.847
19642WAT     H259169   1.558   9.445   5.931
19643WAT      O59170   3.545   4.890   4.112
19643WAT     H159171   3.613   4.883   4.038
19643WAT     H259172   3.576   4.957   4.179
19644WAT      O59173   5.724   3.209   8.945
19644WAT     H159174   5.735   3.300   8.906
19644WAT     H259175   5.808   3.156   8.932
19645WAT      O59176   2.346   7.762   0.908
19645WAT     H159177   2.290   7.783   0.988
19645WAT     H259178   2.365   7.846   0.857
19646WAT      O59179   9.535   0.693   9.131
19646WAT     H159180   9.518   0.709   9.228
19646WAT     H259181   9.600   0.617   9.121
19647WAT      O59182   0.305   5.015   9.654
19647WAT     H159183   0.254   5.001   9.569
19647WAT     H259184   0.383   5.076   9.637
19648WAT      O59185   7.152   1.814   2.171
19648WAT     H159186   7.100   1.785   2.252
19648WAT     H259187   7.142   1.745   2.099
19649WAT      O59188   7.149   2.240   5.092
19649WAT     H159189   7.092   2.159   5.082
19649WAT     H259190   7.142   2.275   5.186
19650WAT      O59191   5.825   3.950   4.303
19650WAT     H159192   5.753   4.020   4.297
19650WAT     H259193   5.836   3.922   4.398
19651WAT      O59194   5.586   2.670   2.124
19651WAT     H159195   5.604   2.745   2.061
19651WAT     H259196   5.600   2.583   2.077
19652WAT      O59197   3.779   3.243   9.730
19652WAT     H159198   3.757   3.335   9.699
19652WAT     H259199   3.696   3.188   9.734
19653WAT      O59200   8.201   7.652   0.401
19653WAT     H159201   8.148   7.732   0.430
19653WAT     H259202   8.213   7.655   0.301
19654WAT      O59203   4.716   3.384   7.282
19654WAT     H159204   4.702   3.285   7.292
19654WAT     H259205   4.734   3.423   7.372
19655WAT      O59206   6.548   2.942   2.060
19655WAT     H159207   6.577   3.036   2.080
19655WAT     H259208   6.606   2.905   1.987
19656WAT      O59209   3.362   2.053   4.674
19656WAT     H159210   3.401   2.005   4.752
19656WAT     H259211   3.375   2.151   4.685
19657WAT      O59212   7.694   7.124   2.489
19657WAT     H159213   7.707   7.198   2.555
19657WAT     H259214   7.609   7.138   2.439
19658WAT      O59215   1.615   1.193   8.370
19658WAT     H159216   1.596   1.225   8.277
19658WAT     H259217   1.714   1.193   8.385
19659WAT      O59218   9.602   2.710   8.014
19659WAT     H159219   9.581   2.683   8.108
19659WAT     H259220   9.574   2.637   7.952
19660WAT      O59221   1.831   7.150   6.616
19660WAT     H159222   1.855   7.188   6.527
19660WAT     H259223   1.736   7.119   6.615
19661WAT      O59224   9.057   8.212   1.094
19661WAT     H159225   9.056   8.205   0.994
19661WAT     H259226   9.102   8.298   1.120
19662WAT      O59227   8.540   6.468   1.864
19662WAT     H159228   8.458   6.449   1.810
19662WAT     H259229   8.521   6.455   1.961
19663WAT      O59230   8.765   2.790   4.975
19663WAT     H159231   8.818   2.813   5.057
19663WAT     H259232   8.698   2.720   4.998
19664WAT      O59233   8.873   8.737   8.087
19664WAT     H159234   8.842   8.684   8.166
19664WAT     H259235   8.927   8.679   8.026
19665WAT      O59236   5.334   1.464   8.192
19665WAT     H159237   5.433   1.452   8.203
19665WAT     H259238   5.303   1.537   8.253
19666WAT      O59239   4.481   1.351   6.843
19666WAT     H159240   4.445   1.315   6.929
19666WAT     H259241   4.521   1.441   6.859
19667WAT      O59242   4.080   5.085   2.748
19667WAT     H159243   4.108   5.017   2.816
19667WAT     H259244   4.098   5.051   2.656
19668WAT      O59245   7.579   0.275   6.215
19668WAT     H159246   7.569   0.176   6.223
19668WAT     H259247   7.674   0.300   6.233
19669WAT      O59248   3.759   5.630   2.412
19669WAT     H159249   3.723   5.719   2.439
19669WAT     H259250   3.846   5.614   2.459
19670WAT      O59251   3.937   6.104   0.962
19670WAT     H159252   4.035   6.098   0.978
19670WAT     H259253   3.912   6.047   0.884
19671WAT      O59254   2.444   9.812   0.428
19671WAT     H159255   2.399   9.884   0.481
19671WAT     H259256   2.381   9.778   0.358
19672WAT      O59257   5.450   9.587   7.912
19672WAT     H159258   5.493   9.608   7.824
19672WAT     H259259   5.520   9.582   7.983
19673WAT      O59260   4.612   4.594   3.899
19673WAT     H159261   4.603   4.499   3.930
19673WAT     H259262   4.700   4.606   3.854
19674WAT      O59263   7.369   0.765   6.265
19674WAT     H159264   7.310   0.773   6.185
19674WAT     H259265   7.412   0.674   6.266
19675WAT      O59266   8.364   2.921   3.820
19675WAT     H159267   8.385   2.957   3.729
19675WAT     H259268   8.441   2.936   3.881
19676WAT      O59269   9.667   2.165   3.108
19676WAT     H159270   9.719   2.131   3.187
19676WAT     H259271   9.606   2.239   3.138
19677WAT      O59272   8.461   0.977   9.026
19677WAT     H159273   8.462   1.020   9.116
19677WAT     H259274   8.464   1.047   8.955
19678WAT      O59275   3.619   7.049   7.015
19678WAT     H159276   3.714   7.018   7.011
19678WAT     H259277   3.558   6.970   7.000
19679WAT      O59278   9.325   9.226   8.597
19679WAT     H159279   9.241   9.194   8.642
19679WAT     H259280   9.387   9.265   8.665
19680WAT      O59281   8.322   4.356   7.672
19680WAT     H159282   8.384   4.407   7.732
19680WAT     H259283   8.374   4.318   7.596
19681WAT      O59284   6.979   6.861   5.461
19681WAT     H159285   7.040   6.849   5.383
19681WAT     H259286   7.010   6.805   5.537
19682WAT      O59287   5.380   3.324   4.142
19682WAT     H159288   5.472   3.363   4.149
19682WAT     H259289   5.377   3.238   4.193
19683WAT      O59290   2.353   4.502   6.700
19683WAT     H159291   2.387   4.409   6.717
19683WAT     H259292   2.396   4.538   6.617
19684WAT      O59293   9.574   6.699   3.623
19684WAT     H159294   9.661   6.681   3.577
19684WAT     H259295   9.508   6.629   3.597
19685WAT      O59296   6.269   4.195   6.250
19685WAT     H159297   6.304   4.286   6.275
19685WAT     H259298   6.318   4.162   6.169
19686WAT      O59299   7.078   4.557   6.380
19686WAT     H159300   7.121   4.474   6.415
19686WAT     H259301   7.038   4.539   6.290
19687WAT      O59302   3.030   4.499   6.010
19687WAT     H159303   3.038   4.424   5.945
19687WAT     H259304   3.080   4.579   5.976
19688WAT      O59305   9.582   0.404   0.916
19688WAT     H159306   9.566   0.501   0.896
19688WAT     H259307   9.511   0.370   0.977
19689WAT      O59308   8.062   1.304   4.226
19689WAT     H159309   8.081   1.376   4.159
19689WAT     H259310   7.969   1.316   4.260
19690WAT      O59311   3.611   1.608   5.055
19690WAT     H159312   3.657   1.574   4.973
19690WAT     H259313   3.530   1.552   5.073
19691WAT      O59314   9.820   7.446   3.349
19691WAT     H159315   9.840   7.544   3.355
19691WAT     H259316   9.723   7.433   3.329
19692WAT      O59317   9.415   1.076   5.451
19692WAT     H159318   9.420   1.155   5.389
19692WAT     H259319   9.495   1.019   5.438
19693WAT      O59320   5.319   4.528   1.029
19693WAT     H159321   5.406   4.498   0.991
19693WAT     H259322   5.251   4.456   1.016
19694WAT      O59323   9.812   0.650   4.972
19694WAT     H159324   9.898   0.600   4.963
19694WAT     H259325   9.765   0.649   4.884
19695WAT      O59326   3.878   2.879   1.466
19695WAT     H159327   3.971   2.849   1.446
19695WAT     H259328   3.877   2.977   1.484
19696WAT      O59329   8.474   9.659   1.499
19696WAT     H159330   8.451   9.592   1.569
19696WAT     H259331   8.409   9.653   1.423
19697WAT      O59332   6.681   5.919   9.536
19697WAT     H159333   6.672   5.967   9.624
19697WAT     H259334   6.590   5.899   9.500
19698WAT      O59335   1.606   8.737   1.902
19698WAT     H159336   1.558   8.766   1.820
19698WAT     H259337   1.693   8.786   1.908
19699WAT      O59338   8.779   2.305   9.324
19699WAT     H159339   8.734   2.363   9.393
19699WAT     H259340   8.877   2.300   9.344
19700WAT      O59341   7.919   4.005   3.245
19700WAT     H159342   7.876   4.007   3.154
19700WAT     H259343   7.849   4.020   3.315
19701WAT      O59344   2.766   3.868   8.947
19701WAT     H159345   2.805   3.955   8.976
19701WAT     H259346   2.718   3.879   8.861
19702WAT      O59347   0.323   7.452   9.639
19702WAT     H159348   0.373   7.382   9.689
19702WAT     H259349   0.247   7.486   9.695
19703WAT      O59350   0.288   8.894   0.633
19703WAT     H159351   0.231   8.976   0.626
19703WAT     H259352   0.360   8.898   0.564
19704WAT      O59353   0.531   1.025   3.006
19704WAT     H159354   0.504   1.054   3.098
19704WAT     H259355   0.478   0.944   2.980
19705WAT      O59356   5.632   6.345   1.128
19705WAT     H159357   5.625   6.438   1.166
19705WAT     H259358   5.653   6.351   1.030
19706WAT      O59359   3.270   2.423   7.844
19706WAT     H159360   3.183   2.439   7.891
19706WAT     H259361   3.311   2.338   7.877
19707WAT      O59362   7.838   7.211   7.789
19707WAT     H159363   7.870   7.223   7.695
19707WAT     H259364   7.749   7.255   7.800
19708WAT      O59365   0.538   7.017   4.252
19708WAT     H159366   0.531   7.077   4.173
19708WAT     H259367   0.615   7.046   4.309
19709WAT      O59368   6.943   6.888   0.155
19709WAT     H159369   6.928   6.863   0.250
19709WAT     H259370   6.976   6.809   0.104
19710WAT      O59371   6.306   5.200   7.380
19710WAT     H159372   6.371   5.213   7.456
19710WAT     H259373   6.218   5.241   7.404
19711WAT      O59374   1.115   1.707   7.736
19711WAT     H159375   1.103   1.627   7.677
19711WAT     H259376   1.202   1.751   7.716
19712WAT      O59377   8.849   2.204   6.904
19712WAT     H159378   8.762   2.241   6.935
19712WAT     H259379   8.907   2.185   6.984
19713WAT      O59380   4.855   5.345   7.349
19713WAT     H159381   4.914   5.412   7.395
19713WAT     H259382   4.765   5.344   7.392
19714WAT      O59383   0.099   8.674   4.630
19714WAT     H159384   0.049   8.635   4.708
19714WAT     H259385   0.078   8.771   4.623
19715WAT      O59386   4.578   2.239   1.524
19715WAT     H159387   4.522   2.213   1.445
19715WAT     H259388   4.608   2.333   1.513
19716WAT      O59389   9.744   6.412   7.075
19716WAT     H159390   9.810   6.415   7.000
19716WAT     H259391   9.701   6.502   7.085
19717WAT      O59392   5.481   4.477   7.222
19717WAT     H159393   5.451   4.412   7.152
19717WAT     H259394   5.516   4.559   7.178
19718WAT      O59395   9.266   1.077   9.486
19718WAT     H159396   9.364   1.070   9.501
19718WAT     H259397   9.240   1.023   9.406
19719WAT      O59398   8.560   6.764   3.256
19719WAT     H159399   8.630   6.708   3.301
19719WAT     H259400   8.594   6.858   3.248
19720WAT      O59401   7.706   7.850   9.059
19720WAT     H159402   7.685   7.944   9.087
19720WAT     H259403   7.680   7.787   9.132
19721WAT      O59404   3.581   4.565   7.969
19721WAT     H159405   3.653   4.499   7.948
19721WAT     H259406   3.622   4.655   7.984
19722WAT      O59407   1.855   2.534   9.631
19722WAT     H159408   1.770   2.483   9.643
19722WAT     H259409   1.890   2.561   9.721
19723WAT      O59410   4.681   2.478   1.106
19723WAT     H159411   4.734   2.393   1.101
19723WAT     H259412   4.592   2.465   1.062
19724WAT      O59413   1.117   1.879   9.653
19724WAT     H159414   1.106   1.922   9.564
19724WAT     H259415   1.073   1.789   9.652
19725WAT      O59416   0.173   7.484   8.704
19725WAT     H159417   0.143   7.522   8.791
19725WAT     H259418   0.093   7.462   8.648
19726WAT      O59419   8.626   0.867   7.647
19726WAT     H159420   8.590   0.960   7.649
19726WAT     H259421   8.588   0.815   7.724
19727WAT      O59422   7.076   8.395   9.282
19727WAT     H159423   7.010   8.322   9.261
19727WAT     H259424   7.165   8.355   9.301
19728WAT      O59425   4.815   5.634   7.008
19728WAT     H159426   4.764   5.635   7.094
19728WAT     H259427   4.867   5.550   7.001
19729WAT      O59428   1.505   6.216   8.951
19729WAT     H159429   1.550   6.150   9.011
19729WAT     H259430   1.550   6.215   8.861
19730WAT      O59431   2.127   7.993   7.010
19730WAT     H159432   2.102   7.985   7.107
19730WAT     H259433   2.100   8.082   6.976
19731WAT      O59434   3.356   3.224   3.294
19731WAT     H159435   3.337   3.127   3.314
19731WAT     H259436   3.299   3.254   3.218
19732WAT      O59437   2.433   3.845   8.296
19732WAT     H159438   2.339   3.867   8.267
19732WAT     H259439   2.433   3.819   8.393
19733WAT      O59440   9.206   3.112   2.693
19733WAT     H159441   9.180   3.120   2.597
19733WAT     H259442   9.280   3.175   2.713
19734WAT      O59443   1.125   4.234   3.526
19734WAT     H159444   1.077   4.185   3.598
19734WAT     H259445   1.201   4.286   3.566
19735WAT      O59446   5.476   9.123   7.726
19735WAT     H159447   5.570   9.118   7.759
19735WAT     H259448   5.425   9.188   7.782
19736WAT      O59449   4.418   3.837   1.553
19736WAT     H159450   4.344   3.876   1.607
19736WAT     H259451   4.502   3.889   1.568
19737WAT      O59452   0.587   4.547   5.757
19737WAT     H159453   0.631   4.490   5.687
19737WAT     H259454   0.626   4.526   5.847
19738WAT      O59455   9.118   6.193   2.509
19738WAT     H159456   9.070   6.267   2.461
19738WAT     H259457   9.210   6.183   2.470
19739WAT      O59458   6.556   4.364   9.561
19739WAT     H159459   6.549   4.310   9.645
19739WAT     H259460   6.467   4.405   9.540
19740WAT      O59461   8.225   3.152   1.748
19740WAT     H159462   8.186   3.139   1.657
19740WAT     H259463   8.164   3.111   1.816
19741WAT      O59464   1.525   9.168   7.132
19741WAT     H159465   1.575   9.138   7.051
19741WAT     H259466   1.427   9.165   7.113
19742WAT      O59467   7.914   8.254   1.024
19742WAT     H159468   7.928   8.299   1.112
19742WAT     H259469   8.000   8.215   0.992
19743WAT      O59470   3.886   7.077   5.605
19743WAT     H159471   3.901   7.157   5.663
19743WAT     H259472   3.894   6.994   5.660
19744WAT      O59473   3.224   5.980   3.561
19744WAT     H159474   3.246   5.978   3.464
19744WAT     H259475   3.232   6.074   3.595
19745WAT      O59476   3.703   8.088   6.476
19745WAT     H159477   3.671   8.035   6.555
19745WAT     H259478   3.638   8.160   6.455
19746WAT      O59479   7.064   4.313   5.793
19746WAT     H159480   7.100   4.355   5.877
19746WAT     H259481   7.091   4.217   5.790
19747WAT      O59482   7.869   2.211   4.354
19747WAT     H159483   7.833   2.154   4.280
19747WAT     H259484   7.968   2.215   4.348
19748WAT      O59485   0.898   3.740   6.540
19748WAT     H159486   0.844   3.752   6.457
19748WAT     H259487   0.977   3.802   6.537
19749WAT      O59488   0.177   1.605   6.439
19749WAT     H159489   0.198   1.695   6.477
19749WAT     H259490   0.255   1.544   6.451
19750WAT      O59491   1.728   2.588   6.208
19750WAT     H159492   1.693   2.627   6.293
19750WAT     H259493   1.665   2.517   6.175
19751WAT      O59494   7.470   6.325   8.421
19751WAT     H159495   7.537   6.338   8.494
19751WAT     H259496   7.387   6.285   8.459
19752WAT      O59497   6.916   4.601   0.322
19752WAT     H159498   6.953   4.594   0.229
19752WAT     H259499   6.921   4.511   0.366
19753WAT      O59500   5.729   3.354   7.726
19753WAT     H159501   5.656   3.347   7.658
19753WAT     H259502   5.762   3.263   7.748
19754WAT      O59503   4.477   1.433   8.563
19754WAT     H159504   4.555   1.456   8.621
19754WAT     H259505   4.455   1.336   8.573
19755WAT      O59506   9.363   6.900   8.280
19755WAT     H159507   9.451   6.867   8.246
19755WAT     H259508   9.290   6.870   8.219
19756WAT      O59509   2.779   3.350   4.031
19756WAT     H159510   2.870   3.389   4.013
19756WAT     H259511   2.785   3.287   4.108
19757WAT      O59512   0.285   2.909   6.782
19757WAT     H159513   0.352   2.938   6.850
19757WAT     H259514   0.307   2.950   6.694
19758WAT      O59515   4.692   4.762   2.542
19758WAT     H159516   4.660   4.722   2.457
19758WAT     H259517   4.653   4.712   2.620
19759WAT      O59518   2.285   4.942   4.524
19759WAT     H159519   2.201   4.993   4.507
19759WAT     H259520   2.351   5.000   4.571
19760WAT      O59521   4.033   2.098   1.678
19760WAT     H159522   4.086   2.086   1.594
19760WAT     H259523   4.078   2.051   1.754
19761WAT      O59524   6.162   4.785   6.166
19761WAT     H159525   6.183   4.706   6.109
19761WAT     H259526   6.236   4.852   6.161
19762WAT      O59527   0.637   0.704   1.197
19762WAT     H159528   0.542   0.673   1.197
19762WAT     H259529   0.673   0.699   1.104
19763WAT      O59530   2.007   1.829   3.271
19763WAT     H159531   1.932   1.819   3.206
19763WAT     H259532   2.074   1.756   3.256
19764WAT      O59533   2.270   2.125   7.496
19764WAT     H159534   2.296   2.183   7.418
19764WAT     H259535   2.275   2.029   7.468
19765WAT      O59536   3.450   5.089   8.565
19765WAT     H159537   3.469   5.008   8.621
19765WAT     H259538   3.482   5.073   8.471
19766WAT      O59539   3.595   9.246   8.548
19766WAT     H159540   3.581   9.173   8.482
19766WAT     H259541   3.604   9.207   8.640
19767WAT      O59542   0.645   3.045   4.748
19767WAT     H159543   0.668   3.057   4.844
19767WAT     H259544   0.559   3.091   4.728
19768WAT      O59545   3.216   3.165   6.973
19768WAT     H159546   3.225   3.243   7.035
19768WAT     H259547   3.294   3.163   6.911
19769WAT      O59548   2.205   6.094   5.050
19769WAT     H159549   2.300   6.113   5.023
19769WAT     H259550   2.205   6.026   5.124
19770WAT      O59551   8.221   8.864   5.505
19770WAT     H159552   8.190   8.940   5.449
19770WAT     H259553   8.321   8.862   5.506
19771WAT      O59554   2.316   9.582   6.923
19771WAT     H159555   2.327   9.675   6.890
19771WAT     H259556   2.231   9.544   6.886
19772WAT      O59557   9.784   3.891   5.666
19772WAT     H159558   9.719   3.947   5.717
19772WAT     H259559   9.835   3.833   5.730
19773WAT      O59560   5.508   6.478   6.878
19773WAT     H159561   5.551   6.488   6.788
19773WAT     H259562   5.425   6.533   6.882
19774WAT      O59563   2.271   5.807   7.834
19774WAT     H159564   2.341   5.828   7.765
19774WAT     H259565   2.266   5.881   7.900
19775WAT      O59566   7.105   8.407   1.731
19775WAT     H159567   7.023   8.461   1.708
19775WAT     H259568   7.122   8.414   1.829
19776WAT      O59569   6.393   3.505   6.933
19776WAT     H159570   6.378   3.519   7.031
19776WAT     H259571   6.355   3.417   6.906
19777WAT      O59572   0.249   6.455   0.036
19777WAT     H159573   0.304   6.422  -0.041
19777WAT     H259574   0.169   6.396   0.047
19778WAT      O59575   3.537   2.130   4.140
19778WAT     H159576   3.476   2.100   4.067
19778WAT     H259577   3.518   2.079   4.224
19779WAT      O59578   5.441   3.447   6.194
19779WAT     H159579   5.470   3.538   6.163
19779WAT     H259580   5.456   3.440   6.293
19780WAT      O59581   8.944   5.671   5.114
19780WAT     H159582   8.872   5.638   5.175
19780WAT     H259583   8.977   5.760   5.147
19781WAT      O59584   0.006   1.550   1.932
19781WAT     H159585  -0.036   1.558   2.023
19781WAT     H259586   0.064   1.469   1.929
19782WAT      O59587   3.956   9.232   3.589
19782WAT     H159588   4.044   9.225   3.634
19782WAT     H259589   3.902   9.150   3.607
19783WAT      O59590   6.405   5.797   2.657
19783WAT     H159591   6.384   5.893   2.641
19783WAT     H259592   6.485   5.771   2.604
19784WAT      O59593   5.167   8.745   9.295
19784WAT     H159594   5.186   8.841   9.316
19784WAT     H259595   5.250   8.691   9.311
19785WAT      O59596   6.089   5.428   5.366
19785WAT     H159597   6.161   5.489   5.400
19785WAT     H259598   6.000   5.470   5.379
19786WAT      O59599   0.999   2.792   5.605
19786WAT     H159600   0.910   2.751   5.625
19786WAT     H259601   1.023   2.857   5.677
19787WAT      O59602   6.012   0.615   1.098
19787WAT     H159603   5.939   0.549   1.080
19787WAT     H259604   6.089   0.597   1.036
19788WAT      O59605   0.397   4.300   4.290
19788WAT     H159606   0.410   4.384   4.237
19788WAT     H259607   0.317   4.309   4.349
19789WAT      O59608   2.113   4.402   2.201
19789WAT     H159609   2.078   4.412   2.295
19789WAT     H259610   2.050   4.344   2.148
19790WAT      O59611   9.379   0.376   5.419
19790WAT     H159612   9.345   0.404   5.509
19790WAT     H259613   9.322   0.302   5.384
19791WAT      O59614   4.891   7.992   5.580
19791WAT     H159615   4.835   8.074   5.584
19791WAT     H259616   4.842   7.915   5.622
19792WAT      O59617   0.635   1.125   4.463
19792WAT     H159618   0.587   1.098   4.547
19792WAT     H259619   0.663   1.221   4.471
19793WAT      O59620   7.922   7.333   6.481
19793WAT     H159621   7.990   7.290   6.540
19793WAT     H259622   7.928   7.433   6.491
19794WAT      O59623   3.263   1.821   7.744
19794WAT     H159624   3.322   1.891   7.785
19794WAT     H259625   3.212   1.862   7.668
19795WAT      O59626   4.136   5.035   5.492
19795WAT     H159627   4.158   5.045   5.395
19795WAT     H259628   4.199   5.092   5.546
19796WAT      O59629   5.025   1.417   5.412
19796WAT     H159630   5.005   1.323   5.385
19796WAT     H259631   4.971   1.440   5.493
19797WAT      O59632   0.906   0.064   3.237
19797WAT     H159633   0.824   0.099   3.192
19797WAT     H259634   0.985   0.121   3.213
19798WAT      O59635   6.549   1.144   1.522
19798WAT     H159636   6.598   1.151   1.435
19798WAT     H259637   6.487   1.222   1.532
19799WAT      O59638   9.041   4.939   0.165
19799WAT     H159639   9.126   4.967   0.120
19799WAT     H259640   8.969   4.929   0.095
19800WAT      O59641   5.977   2.442   9.522
19800WAT     H159642   5.929   2.449   9.435
19800WAT     H259643   5.944   2.362   9.572
19801WAT      O59644   5.695   8.423   2.365
19801WAT     H159645   5.624   8.488   2.337
19801WAT     H259646   5.667   8.331   2.339
19802WAT      O59647   4.410   2.587   1.660
19802WAT     H159648   4.373   2.496   1.641
19802WAT     H259649   4.445   2.627   1.575
19803WAT      O59650   7.232   1.305   6.498
19803WAT     H159651   7.148   1.267   6.459
19803WAT     H259652   7.232   1.405   6.487
19804WAT      O59653   0.438   5.061   4.706
19804WAT     H159654   0.500   4.987   4.731
19804WAT     H259655   0.438   5.071   4.606
19805WAT      O59656   0.459   5.265   5.227
19805WAT     H159657   0.432   5.192   5.165
19805WAT     H259658   0.538   5.314   5.188
19806WAT      O59659   6.615   8.456   8.854
19806WAT     H159660   6.656   8.546   8.868
19806WAT     H259661   6.677   8.385   8.889
19807WAT      O59662   5.958   0.249   1.703
19807WAT     H159663   6.032   0.200   1.658
19807WAT     H259664   5.873   0.198   1.693
19808WAT      O59665   4.147   1.926   5.468
19808WAT     H159666   4.237   1.962   5.444
19808WAT     H259667   4.156   1.853   5.535
19809WAT      O59668   1.856   5.375   8.016
19809WAT     H159669   1.944   5.328   8.024
19809WAT     H259670   1.806   5.367   8.102
19810WAT      O59671   1.542   2.804   2.441
19810WAT     H159672   1.514   2.753   2.361
19810WAT     H259673   1.631   2.770   2.473
19811WAT      O59674   8.121   9.626   5.379
19811WAT     H159675   8.021   9.630   5.377
19811WAT     H259676   8.157   9.710   5.419
19812WAT      O59677   8.859   1.924   4.979
19812WAT     H159678   8.769   1.882   4.988
19812WAT     H259679   8.915   1.869   4.917
19813WAT      O59680   1.002   9.322   2.850
19813WAT     H159681   0.917   9.283   2.885
19813WAT     H259682   1.023   9.406   2.899
19814WAT      O59683   7.086   3.311   7.141
19814WAT     H159684   7.115   3.271   7.228
19814WAT     H259685   7.002   3.266   7.110
19815WAT      O59686   3.155   1.265   7.717
19815WAT     H159687   3.117   1.343   7.668
19815WAT     H259688   3.250   1.284   7.741
19816WAT      O59689   8.595   1.500   2.447
19816WAT     H159690   8.582   1.408   2.408
19816WAT     H259691   8.534   1.565   2.400
19817WAT      O59692   1.779   4.340   8.406
19817WAT     H159693   1.805   4.423   8.357
19817WAT     H259694   1.764   4.266   8.341
19818WAT      O59695   2.260   0.610   3.702
19818WAT     H159696   2.282   0.560   3.786
19818WAT     H259697   2.287   0.705   3.712
19819WAT      O59698   3.570   1.411   6.534
19819WAT     H159699   3.651   1.471   6.530
19819WAT     H259700   3.495   1.453   6.482
19820WAT      O59701   1.620   7.714   6.833
19820WAT     H159702   1.558   7.667   6.770
19820WAT     H259703   1.701   7.657   6.848
19821WAT      O59704   2.353   2.599   4.098
19821WAT     H159705   2.282   2.656   4.139
19821WAT     H259706   2.440   2.616   4.144
19822WAT      O59707   0.353   8.400   4.719
19822WAT     H159708   0.390   8.473   4.662
19822WAT     H259709   0.330   8.436   4.809
19823WAT      O59710   5.795   4.786   7.657
19823WAT     H159711   5.815   4.688   7.660
19823WAT     H259712   5.748   4.807   7.572
19824WAT      O59713   1.001   1.603   0.048
19824WAT     H159714   1.065   1.623   0.122
19824WAT     H259715   0.977   1.687   0.000
19825WAT      O59716   3.537   1.439   7.070
19825WAT     H159717   3.607   1.399   7.012
19825WAT     H259718   3.464   1.476   7.014
19826WAT      O59719   2.074   4.582   0.086
19826WAT     H159720   2.039   4.651   0.022
19826WAT     H259721   2.122   4.512   0.034
19827WAT      O59722   3.884   1.225   7.758
19827WAT     H159723   3.851   1.315   7.786
19827WAT     H259724   3.972   1.235   7.712
19828WAT      O59725   4.970   8.650   2.623
19828WAT     H159726   4.970   8.738   2.577
19828WAT     H259727   4.985   8.577   2.556
19829WAT      O59728   5.901   8.903   1.141
19829WAT     H159729   5.845   8.917   1.060
19829WAT     H259730   5.844   8.911   1.223
19830WAT      O59731   7.423   9.576   8.697
19830WAT     H159732   7.386   9.564   8.604
19830WAT     H259733   7.356   9.543   8.763
19831WAT      O59734   0.746   8.539   7.454
19831WAT     H159735   0.668   8.536   7.517
19831WAT     H259736   0.744   8.624   7.402
19832WAT      O59737   3.934   7.701   5.545
19832WAT     H159738   3.931   7.719   5.644
19832WAT     H259739   3.991   7.770   5.501
19833WAT      O59740   2.984   9.349   3.348
19833WAT     H159741   2.995   9.445   3.322
19833WAT     H259742   3.046   9.293   3.292
19834WAT      O59743   3.200   9.671   9.472
19834WAT     H159744   3.153   9.584   9.456
19834WAT     H259745   3.181   9.734   9.397
19835WAT      O59746   6.280   4.540   2.865
19835WAT     H159747   6.243   4.631   2.885
19835WAT     H259748   6.354   4.519   2.929
19836WAT      O59749   2.250   2.545   8.056
19836WAT     H159750   2.286   2.593   7.976
19836WAT     H259751   2.157   2.515   8.039
19837WAT      O59752   5.841   6.252   2.253
19837WAT     H159753   5.847   6.152   2.254
19837WAT     H259754   5.749   6.281   2.278
19838WAT      O59755   8.303   5.491   7.617
19838WAT     H159756   8.336   5.515   7.526
19838WAT     H259757   8.244   5.564   7.652
19839WAT      O59758   3.059   2.967   3.341
19839WAT     H159759   3.157   2.962   3.362
19839WAT     H259760   3.045   3.023   3.260
19840WAT      O59761   5.316   6.431   5.518
19840WAT     H159762   5.220   6.443   5.489
19840WAT     H259763   5.333   6.335   5.537
19841WAT      O59764   1.509   4.710   7.741
19841WAT     H159765   1.602   4.678   7.756
19841WAT     H259766   1.498   4.800   7.782
19842WAT      O59767   6.118   4.281   3.741
19842WAT     H159768   6.023   4.292   3.710
19842WAT     H259769   6.120   4.278   3.841
19843WAT      O59770   7.415   2.238   6.720
19843WAT     H159771   7.340   2.298   6.749
19843WAT     H259772   7.379   2.149   6.693
19844WAT      O59773   8.877   2.488   4.686
19844WAT     H159774   8.856   2.585   4.700
19844WAT     H259775   8.792   2.438   4.668
19845WAT      O59776   8.419   8.057   6.067
19845WAT     H159777   8.462   8.004   5.993
19845WAT     H259778   8.432   8.155   6.050
19846WAT      O59779   0.964   9.378   8.769
19846WAT     H159780   0.920   9.304   8.717
19846WAT     H259781   0.961   9.462   8.715
19847WAT      O59782   9.196   7.161   5.646
19847WAT     H159783   9.151   7.249   5.662
19847WAT     H259784   9.204   7.112   5.733
19848WAT      O59785   1.986   3.834   3.666
19848WAT     H159786   2.061   3.820   3.730
19848WAT     H259787   2.010   3.792   3.578
19849WAT      O59788   9.641   9.402   2.529
19849WAT     H159789   9.697   9.344   2.470
19849WAT     H259790   9.553   9.358   2.545
19850WAT      O59791   0.788   0.950   5.456
19850WAT     H159792   0.714   0.883   5.444
19850WAT     H259793   0.750   1.038   5.484
19851WAT      O59794   3.344   4.153   2.762
19851WAT     H159795   3.419   4.152   2.696
19851WAT     H259796   3.357   4.228   2.827
19852WAT      O59797   3.921   0.755   5.660
19852WAT     H159798   4.019   0.740   5.652
19852WAT     H259799   3.902   0.853   5.665
19853WAT      O59800   7.308   3.396   6.327
19853WAT     H159801   7.396   3.443   6.335
19853WAT     H259802   7.271   3.380   6.419
19854WAT      O59803   9.676   6.413   4.215
19854WAT     H159804   9.725   6.362   4.285
19854WAT     H259805   9.735   6.423   4.134
19855WAT      O59806   8.428   3.985   0.993
19855WAT     H159807   8.519   4.026   0.995
19855WAT     H259808   8.432   3.896   0.949
19856WAT      O59809   7.220   7.326   2.699
19856WAT     H159810   7.178   7.263   2.634
19856WAT     H259811   7.163   7.407   2.708
19857WAT      O59812   8.166   1.572   9.888
19857WAT     H159813   8.252   1.609   9.854
19857WAT     H259814   8.178   1.542   9.983
19858WAT      O59815   1.553   2.094   8.283
19858WAT     H159816   1.616   2.142   8.223
19858WAT     H259817   1.523   2.008   8.240
19859WAT      O59818   6.402   0.097   0.825
19859WAT     H159819   6.493   0.060   0.808
19859WAT     H259820   6.402   0.144   0.914
19860WAT      O59821   8.184   1.927   5.987
19860WAT     H159822   8.261   1.931   5.924
19860WAT     H259823   8.217   1.926   6.081
19861WAT      O59824   9.708   5.555   6.845
19861WAT     H159825   9.671   5.465   6.866
19861WAT     H259826   9.808   5.552   6.845
19862WAT      O59827   8.490   4.269   4.932
19862WAT     H159828   8.537   4.184   4.957
19862WAT     H259829   8.393   4.250   4.917
19863WAT      O59830   3.823   5.089   1.222
19863WAT     H159831   3.879   5.109   1.302
19863WAT     H259832   3.787   5.175   1.184
19864WAT      O59833   3.528   9.767   9.133
19864WAT     H159834   3.503   9.832   9.205
19864WAT     H259835   3.546   9.817   9.048
19865WAT      O59836   0.919   2.297   4.936
19865WAT     H159837   0.944   2.324   4.843
19865WAT     H259838   0.819   2.289   4.943
19866WAT      O59839   3.474   2.648   8.971
19866WAT     H159840   3.493   2.744   8.951
19866WAT     H259841   3.379   2.638   9.000
19867WAT      O59842   3.191   0.364   4.640
19867WAT     H159843   3.149   0.313   4.564
19867WAT     H259844   3.285   0.389   4.615
19868WAT      O59845   2.086   2.870   3.938
19868WAT     H159846   2.117   2.948   3.885
19868WAT     H259847   2.074   2.791   3.878
19869WAT      O59848   8.279   4.046   5.166
19869WAT     H159849   8.197   3.991   5.175
19869WAT     H259850   8.255   4.143   5.162
19870WAT      O59851   3.455   6.836   7.068
19870WAT     H159852   3.456   6.793   7.159
19870WAT     H259853   3.491   6.772   7.000
19871WAT      O59854   2.134   4.349   0.636
19871WAT     H159855   2.182   4.321   0.552
19871WAT     H259856   2.198   4.347   0.713
19872WAT      O59857   0.468   8.324   5.911
19872WAT     H159858   0.562   8.319   5.944
19872WAT     H259859   0.405   8.295   5.983
19873WAT      O59860   0.841   8.641   1.862
19873WAT     H159861   0.797   8.683   1.941
19873WAT     H259862   0.783   8.569   1.825
19874WAT      O59863   4.127   0.693   9.748
19874WAT     H159864   4.086   0.779   9.717
19874WAT     H259865   4.206   0.713   9.806
19875WAT      O59866   4.672   6.310   2.290
19875WAT     H159867   4.719   6.362   2.362
19875WAT     H259868   4.685   6.357   2.202
19876WAT      O59869   8.500   7.167   4.084
19876WAT     H159870   8.522   7.230   4.158
19876WAT     H259871   8.480   7.219   4.000
19877WAT      O59872   0.235   9.038   4.137
19877WAT     H159873   0.279   9.102   4.200
19877WAT     H259874   0.262   9.060   4.044
19878WAT      O59875   6.032   6.953   4.609
19878WAT     H159876   6.071   7.008   4.536
19878WAT     H259877   6.106   6.910   4.662
19879WAT      O59878   0.216   3.292   0.748
19879WAT     H159879   0.269   3.210   0.729
19879WAT     H259880   0.277   3.364   0.781
19880WAT      O59881   7.166   7.749   8.524
19880WAT     H159882   7.121   7.660   8.515
19880WAT     H259883   7.263   7.741   8.499
19881WAT      O59884   4.799   7.381   5.129
19881WAT     H159885   4.705   7.416   5.125
19881WAT     H259886   4.857   7.436   5.068
19882WAT      O59887   5.978   5.530   8.431
19882WAT     H159888   6.001   5.627   8.423
19882WAT     H259889   6.019   5.493   8.514
19883WAT      O59890   5.413   3.336   7.838
19883WAT     H159891   5.473   3.416   7.839
19883WAT     H259892   5.464   3.256   7.870
19884WAT      O59893   9.771   2.755   6.200
19884WAT     H159894   9.697   2.738   6.135
19884WAT     H259895   9.740   2.821   6.269
19885WAT      O59896   9.332   5.122   2.656
19885WAT     H159897   9.313   5.195   2.722
19885WAT     H259898   9.248   5.071   2.638
19886WAT      O59899   5.814   2.897   9.653
19886WAT     H159900   5.825   2.801   9.679
19886WAT     H259901   5.854   2.955   9.723
19887WAT      O59902   5.651   0.971   1.532
19887WAT     H159903   5.700   0.910   1.468
19887WAT     H259904   5.717   1.027   1.581
19888WAT      O59905   5.153   0.466   7.487
19888WAT     H159906   5.164   0.554   7.440
19888WAT     H259907   5.058   0.457   7.518
19889WAT      O59908   7.283   4.311   4.566
19889WAT     H159909   7.244   4.225   4.597
19889WAT     H259910   7.252   4.330   4.472
19890WAT      O59911   6.316   1.076   3.478
19890WAT     H159912   6.368   1.150   3.520
19890WAT     H259913   6.345   1.064   3.384
19891WAT      O59914   2.796   5.833   4.176
19891WAT     H159915   2.805   5.908   4.242
19891WAT     H259916   2.764   5.869   4.089
19892WAT      O59917   5.418   1.480   3.475
19892WAT     H159918   5.513   1.513   3.468
19892WAT     H259919   5.369   1.502   3.391
19893WAT      O59920   3.802   7.055   8.210
19893WAT     H159921   3.875   6.990   8.234
19893WAT     H259922   3.843   7.138   8.173
19894WAT      O59923   3.384   9.313   5.716
19894WAT     H159924   3.369   9.214   5.716
19894WAT     H259925   3.430   9.339   5.631
19895WAT      O59926   6.771   7.780   3.310
19895WAT     H159927   6.678   7.760   3.340
19895WAT     H259928   6.832   7.785   3.389
19896WAT      O59929   5.911   7.747   6.212
19896WAT     H159930   5.870   7.837   6.198
19896WAT     H259931   6.007   7.757   6.238
19897WAT      O59932   5.471   8.130   5.323
19897WAT     H159933   5.487   8.070   5.245
19897WAT     H259934   5.493   8.224   5.297
19898WAT      O59935   2.672   1.346   4.300
19898WAT     H159936   2.667   1.272   4.368
19898WAT     H259937   2.709   1.309   4.215
19899WAT      O59938   7.021   5.494   1.905
19899WAT     H159939   7.037   5.561   1.833
19899WAT     H259940   6.923   5.492   1.926
19900WAT      O59941   2.097   3.393   6.529
19900WAT     H159942   2.195   3.374   6.536
19900WAT     H259943   2.082   3.472   6.469
19901WAT      O59944   8.201   8.870   7.417
19901WAT     H159945   8.279   8.832   7.466
19901WAT     H259946   8.234   8.928   7.342
19902WAT      O59947   0.224   3.584   5.615
19902WAT     H159948   0.216   3.574   5.516
19902WAT     H259949   0.313   3.625   5.637
19903WAT      O59950   6.985   6.947   8.268
19903WAT     H159951   6.974   7.046   8.278
19903WAT     H259952   6.948   6.919   8.179
19904WAT      O59953   0.993   2.917   2.351
19904WAT     H159954   0.928   2.993   2.348
19904WAT     H259955   1.037   2.914   2.441
19905WAT      O59956   9.028   6.351   9.623
19905WAT     H159957   9.072   6.263   9.638
19905WAT     H259958   8.994   6.356   9.529
19906WAT      O59959   8.653   7.713   8.151
19906WAT     H159960   8.599   7.655   8.091
19906WAT     H259961   8.614   7.712   8.243
19907WAT      O59962   2.622   2.760   7.052
19907WAT     H159963   2.651   2.844   7.006
19907WAT     H259964   2.536   2.728   7.012
19908WAT      O59965   2.422   7.652   2.743
19908WAT     H159966   2.331   7.659   2.783
19908WAT     H259967   2.474   7.735   2.765
19909WAT      O59968   2.290   9.216   7.253
19909WAT     H159969   2.251   9.125   7.269
19909WAT     H259970   2.218   9.285   7.260
19910WAT      O59971   9.186   8.698   7.552
19910WAT     H159972   9.122   8.758   7.504
19910WAT     H259973   9.280   8.726   7.531
19911WAT      O59974   7.692   1.839   0.936
19911WAT     H159975   7.625   1.913   0.950
19911WAT     H259976   7.673   1.765   1.000
19912WAT      O59977   3.565   9.513   2.554
19912WAT     H159978   3.618   9.499   2.637
19912WAT     H259979   3.526   9.605   2.554
19913WAT      O59980   9.317   2.861   1.110
19913WAT     H159981   9.359   2.950   1.092
19913WAT     H259982   9.265   2.866   1.195
19914WAT      O59983   6.306   6.701   4.953
19914WAT     H159984   6.350   6.634   4.893
19914WAT     H259985   6.373   6.742   5.014
19915WAT      O59986   7.748   2.330   1.057
19915WAT     H159987   7.694   2.412   1.077
19915WAT     H259988   7.771   2.328   0.960
19916WAT      O59989   9.544   0.931   2.026
19916WAT     H159990   9.598   0.999   1.975
19916WAT     H259991   9.550   0.950   2.124
19917WAT      O59992   3.817   7.875   5.801
19917WAT     H159993   3.805   7.908   5.894
19917WAT     H259994   3.882   7.934   5.753
19918WAT      O59995   3.676   6.721   0.821
19918WAT     H159996   3.579   6.697   0.826
19918WAT     H259997   3.731   6.638   0.819
19919WAT      O59998   6.005   7.784   2.578
19919WAT     H159999   6.030   7.694   2.612
19919WAT     H260000   6.053   7.855   2.630
19920WAT      O60001   4.993   9.225   1.563
19920WAT     H160002   4.936   9.282   1.623
19920WAT     H260003   4.999   9.133   1.601
19921WAT      O60004   8.738   4.925   4.619
19921WAT     H160005   8.836   4.945   4.612
19921WAT     H260006   8.691   4.964   4.540
19922WAT      O60007   1.173   9.333   4.354
19922WAT     H160008   1.097   9.270   4.372
19922WAT     H260009   1.242   9.287   4.298
19923WAT      O60010   7.151   0.089   9.403
19923WAT     H160011   7.218   0.159   9.425
19923WAT     H260012   7.110   0.109   9.314
19924WAT      O60013   7.173   1.829   9.222
19924WAT     H160014   7.192   1.750   9.163
19924WAT     H260015   7.089   1.813   9.274
19925WAT      O60016   9.815   4.084   0.516
19925WAT     H160017   9.850   4.056   0.605
19925WAT     H260018   9.883   4.061   0.445
19926WAT      O60019   3.922   6.854   2.156
19926WAT     H160020   3.850   6.907   2.111
19926WAT     H260021   3.953   6.901   2.238
19927WAT      O60022   0.400   5.844   3.087
19927WAT     H160023   0.309   5.885   3.086
19927WAT     H260024   0.463   5.900   3.034
19928WAT      O60025   7.906   7.602   4.487
19928WAT     H160026   7.872   7.550   4.565
19928WAT     H260027   7.862   7.692   4.485
19929WAT      O60028   1.977   8.350   0.090
19929WAT     H160029   2.042   8.278   0.065
19929WAT     H260030   1.922   8.319   0.167
19930WAT      O60031   9.810   3.991   5.957
19930WAT     H160032   9.802   3.907   6.010
19930WAT     H260033   9.734   4.052   5.979
19931WAT      O60034   5.946   4.922   2.449
19931WAT     H160035   5.896   4.857   2.391
19931WAT     H260036   6.021   4.874   2.495
19932WAT      O60037   2.769   8.345   8.709
19932WAT     H160038   2.670   8.359   8.713
19932WAT     H260039   2.792   8.255   8.746
19933WAT      O60040   1.959   9.784   8.386
19933WAT     H160041   1.987   9.697   8.425
19933WAT     H260042   1.892   9.769   8.314
19934WAT      O60043   2.901   8.398   9.505
19934WAT     H160044   2.827   8.334   9.528
19934WAT     H260045   2.863   8.488   9.487
19935WAT      O60046   6.304   8.782   0.597
19935WAT     H160047   6.216   8.744   0.624
19935WAT     H260048   6.315   8.776   0.498
19936WAT      O60049   8.944   5.929   0.569
19936WAT     H160050   8.980   5.838   0.587
19936WAT     H260051   8.872   5.951   0.635
19937WAT      O60052   6.086   2.417   6.682
19937WAT     H160053   6.001   2.386   6.640
19937WAT     H260054   6.119   2.498   6.635
19938WAT      O60055   9.333   6.678   1.862
19938WAT     H160056   9.317   6.594   1.914
19938WAT     H260057   9.417   6.722   1.895
19939WAT      O60058   3.708   0.014   5.106
19939WAT     H160059   3.716   0.038   5.202
19939WAT     H260060   3.780  -0.051   5.082
19940WAT      O60061   8.214   8.982   9.261
19940WAT     H160062   8.144   8.986   9.332
19940WAT     H260063   8.295   9.032   9.291
19941WAT      O60064   3.006   1.464   7.604
19941WAT     H160065   2.935   1.422   7.548
19941WAT     H260066   3.044   1.543   7.556
19942WAT      O60067   8.619   9.749   6.744
19942WAT     H160068   8.613   9.798   6.657
19942WAT     H260069   8.527   9.726   6.776
19943WAT      O60070   7.738   0.370   4.649
19943WAT     H160071   7.806   0.300   4.672
19943WAT     H260072   7.688   0.342   4.568
19944WAT      O60073   9.544   2.391   1.673
19944WAT     H160074   9.517   2.336   1.594
19944WAT     H260075   9.480   2.468   1.684
19945WAT      O60076   7.390   2.506   3.552
19945WAT     H160077   7.331   2.533   3.476
19945WAT     H260078   7.412   2.408   3.544
19946WAT      O60079   6.226   6.778   3.181
19946WAT     H160080   6.139   6.802   3.224
19946WAT     H260081   6.287   6.858   3.180
19947WAT      O60082   4.415   4.641   7.452
19947WAT     H160083   4.503   4.686   7.469
19947WAT     H260084   4.389   4.655   7.356
19948WAT      O60085   3.002   2.454   0.836
19948WAT     H160086   3.023   2.507   0.754
19948WAT     H260087   3.084   2.446   0.892
19949WAT      O60088   8.945   2.288   8.612
19949WAT     H160089   9.039   2.275   8.643
19949WAT     H260090   8.906   2.369   8.656
19950WAT      O60091   0.591   9.186   1.489
19950WAT     H160092   0.651   9.130   1.432
19950WAT     H260093   0.641   9.267   1.522
19951WAT      O60094   3.503   4.416   5.703
19951WAT     H160095   3.406   4.442   5.709
19951WAT     H260096   3.516   4.326   5.745
19952WAT      O60097   5.103   5.027   9.195
19952WAT     H160098   5.048   4.951   9.231
19952WAT     H260099   5.152   5.071   9.270
19953WAT      O60100   5.289   4.699   7.369
19953WAT     H160101   5.311   4.744   7.283
19953WAT     H260102   5.278   4.601   7.353
19954WAT      O60103   9.499   3.220   8.892
19954WAT     H160104   9.498   3.301   8.951
19954WAT     H260105   9.407   3.182   8.885
19955WAT      O60106   8.430   3.627   8.297
19955WAT     H160107   8.357   3.593   8.237
19955WAT     H260108   8.513   3.643   8.244
19956WAT      O60109   7.651   2.767   3.492
19956WAT     H160110   7.733   2.793   3.542
19956WAT     H260111   7.580   2.739   3.556
19957WAT      O60112   2.052   4.088   8.376
19957WAT     H160113   1.956   4.112   8.359
19957WAT     H260114   2.082   4.021   8.309
19958WAT      O60115   7.001   8.122   8.386
19958WAT     H160116   6.986   8.026   8.410
19958WAT     H260117   7.098   8.138   8.369
19959WAT      O60118   8.417   0.529   9.639
19959WAT     H160119   8.325   0.533   9.600
19959WAT     H260120   8.472   0.604   9.603
19960WAT      O60121   3.787   8.011   6.061
19960WAT     H160122   3.758   7.983   6.153
19960WAT     H260123   3.706   8.037   6.008
19961WAT      O60124   4.766   5.138   8.640
19961WAT     H160125   4.826   5.100   8.569
19961WAT     H260126   4.754   5.070   8.713
19962WAT      O60127   5.776   1.035   3.248
19962WAT     H160128   5.719   1.038   3.330
19962WAT     H260129   5.767   1.122   3.199
19963WAT      O60130   1.897   6.544   0.226
19963WAT     H160131   1.904   6.454   0.183
19963WAT     H260132   1.917   6.536   0.324
19964WAT      O60133   7.111   5.157   6.226
19964WAT     H160134   7.063   5.102   6.294
19964WAT     H260135   7.044   5.213   6.176
19965WAT      O60136   8.646   8.941   5.040
19965WAT     H160137   8.702   8.858   5.035
19965WAT     H260138   8.690   9.014   4.989
19966WAT      O60139   9.247   9.336   3.308
19966WAT     H160140   9.223   9.399   3.234
19966WAT     H260141   9.334   9.292   3.288
19967WAT      O60142   6.420   9.190   6.716
19967WAT     H160143   6.430   9.219   6.811
19967WAT     H260144   6.390   9.095   6.713
19968WAT      O60145   6.588   5.685   5.956
19968WAT     H160146   6.672   5.675   6.010
19968WAT     H260147   6.583   5.778   5.920
19969WAT      O60148   9.328   7.584   8.491
19969WAT     H160149   9.323   7.499   8.438
19969WAT     H260150   9.418   7.591   8.534
19970WAT      O60151   2.513   6.964   2.037
19970WAT     H160152   2.543   6.910   1.958
19970WAT     H260153   2.415   6.950   2.051
19971WAT      O60154   4.546   9.218   5.649
19971WAT     H160155   4.629   9.190   5.699
19971WAT     H260156   4.559   9.310   5.613
19972WAT      O60157   5.547   7.945   4.194
19972WAT     H160158   5.567   7.957   4.291
19972WAT     H260159   5.601   8.010   4.140
19973WAT      O60160   8.627   9.596   0.453
19973WAT     H160161   8.528   9.595   0.467
19973WAT     H260162   8.662   9.688   0.470
19974WAT      O60163   1.443   3.390   8.857
19974WAT     H160164   1.425   3.386   8.955
19974WAT     H260165   1.466   3.298   8.824
19975WAT      O60166   0.713   6.114   8.732
19975WAT     H160167   0.626   6.100   8.780
19975WAT     H260168   0.785   6.130   8.799
19976WAT      O60169   1.949   4.149   9.665
19976WAT     H160170   1.975   4.230   9.612
19976WAT     H260171   1.851   4.149   9.681
19977WAT      O60172   3.096   0.613   1.278
19977WAT     H160173   3.032   0.659   1.216
19977WAT     H260174   3.115   0.521   1.243
19978WAT      O60175   8.225   1.445   4.491
19978WAT     H160176   8.133   1.436   4.454
19978WAT     H260177   8.270   1.356   4.489
19979WAT      O60178   2.670   9.628   8.274
19979WAT     H160179   2.718   9.681   8.204
19979WAT     H260180   2.736   9.573   8.325
19980WAT      O60181   4.896   6.622   1.696
19980WAT     H160182   4.916   6.528   1.723
19980WAT     H260183   4.806   6.648   1.731
19981WAT      O60184   3.089   2.713   8.253
19981WAT     H160185   3.187   2.728   8.244
19981WAT     H260186   3.052   2.776   8.322
19982WAT      O60187   6.249   8.441   6.845
19982WAT     H160188   6.211   8.367   6.790
19982WAT     H260189   6.348   8.444   6.834
19983WAT      O60190   5.728   6.104   5.565
19983WAT     H160191   5.702   6.071   5.474
19983WAT     H260192   5.702   6.037   5.634
19984WAT      O60193   5.164   9.115   0.126
19984WAT     H160194   5.240   9.168   0.161
19984WAT     H260195   5.149   9.138   0.029
19985WAT      O60196   7.498   6.782   6.988
19985WAT     H160197   7.561   6.704   6.992
19985WAT     H260198   7.418   6.763   7.044
19986WAT      O60199   2.120   7.013   3.724
19986WAT     H160200   2.064   7.076   3.672
19986WAT     H260201   2.133   7.048   3.817
19987WAT      O60202   7.413   3.464   9.701
19987WAT     H160203   7.460   3.542   9.661
19987WAT     H260204   7.321   3.456   9.663
19988WAT      O60205   4.020   9.325   6.972
19988WAT     H160206   4.054   9.383   7.045
19988WAT     H260207   3.953   9.376   6.917
19989WAT      O60208   6.907   1.365   9.378
19989WAT     H160209   6.858   1.443   9.417
19989WAT     H260210   6.950   1.392   9.291
19990WAT      O60211   4.285   4.352   2.689
19990WAT     H160212   4.285   4.363   2.590
19990WAT     H260213   4.361   4.403   2.728
19991WAT      O60214   3.933   6.781   7.117
19991WAT     H160215   3.891   6.755   7.204
19991WAT     H260216   3.888   6.862   7.080
19992WAT      O60217   3.736   7.072   9.056
19992WAT     H160218   3.747   6.995   8.993
19992WAT     H260219   3.693   7.039   9.141
19993WAT      O60220   8.853   7.713   2.804
19993WAT     H160221   8.937   7.696   2.752
19993WAT     H260222   8.781   7.651   2.772
19994WAT      O60223   5.856   7.250   4.342
19994WAT     H160224   5.918   7.317   4.383
19994WAT     H260225   5.835   7.278   4.248
19995WAT      O60226   8.714   5.082   7.609
19995WAT     H160227   8.622   5.094   7.647
19995WAT     H260228   8.712   5.104   7.511
19996WAT      O60229   0.994   5.399   2.862
19996WAT     H160230   1.029   5.316   2.819
19996WAT     H260231   0.899   5.414   2.835
19997WAT      O60232   9.412   1.878   6.582
19997WAT     H160233   9.379   1.785   6.600
19997WAT     H260234   9.356   1.944   6.634
19998WAT      O60235   2.549   4.158   3.782
19998WAT     H160236   2.519   4.104   3.861
19998WAT     H260237   2.539   4.255   3.802
19999WAT      O60238   2.434   9.737   5.190
19999WAT     H160239   2.484   9.727   5.105
19999WAT     H260240   2.493   9.780   5.259
20000WAT      O60241   8.613   2.132   2.764
20000WAT     H160242   8.548   2.134   2.840
20000WAT     H260243   8.688   2.069   2.786
20001WAT      O60244   7.898   0.979   8.731
20001WAT     H160245   7.941   1.011   8.646
20001WAT     H260246   7.839   0.901   8.711
20002WAT      O60247   8.351   9.732   2.494
20002WAT     H160248   8.397   9.643   2.501
20002WAT     H260249   8.252   9.718   2.497
20003WAT      O60250   1.927   6.174   8.469
20003WAT     H160251   1.884   6.168   8.559
20003WAT     H260252   1.883   6.110   8.406
20004WAT      O60253   1.500   9.204   6.389
20004WAT     H160254   1.486   9.105   6.379
20004WAT     H260255   1.419   9.252   6.358
20005WAT      O60256   3.311   7.664   2.699
20005WAT     H160257   3.397   7.623   2.730
20005WAT     H260258   3.261   7.599   2.642
20006WAT      O60259   6.668   9.526   3.973
20006WAT     H160260   6.602   9.498   4.041
20006WAT     H260261   6.664   9.625   3.961
20007WAT      O60262   5.101   8.158   9.328
20007WAT     H160263   5.022   8.141   9.270
20007WAT     H260264   5.183   8.119   9.285
20008WAT      O60265   7.224   7.042   9.377
20008WAT     H160266   7.160   7.115   9.353
20008WAT     H260267   7.174   6.959   9.401
20009WAT      O60268   8.739   1.142   5.411
20009WAT     H160269   8.813   1.093   5.457
20009WAT     H260270   8.769   1.169   5.319
20010WAT      O60271   0.984   2.059   1.100
20010WAT     H160272   1.006   2.038   1.195
20010WAT     H260273   0.981   2.158   1.087
20011WAT      O60274   3.022   8.505   2.986
20011WAT     H160275   3.104   8.560   2.973
20011WAT     H260276   3.047   8.411   3.005
20012WAT      O60277   2.336   1.870   8.123
20012WAT     H160278   2.268   1.928   8.169
20012WAT     H260279   2.427   1.908   8.138
20013WAT      O60280   3.799   0.379   4.749
20013WAT     H160281   3.894   0.403   4.769
20013WAT     H260282   3.788   0.366   4.650
20014WAT      O60283   3.000   7.832   8.975
20014WAT     H160284   2.919   7.846   9.031
20014WAT     H260285   2.972   7.815   8.880
20015WAT      O60286   1.316   5.219   9.068
20015WAT     H160287   1.318   5.122   9.042
20015WAT     H260288   1.318   5.226   9.167
20016WAT      O60289   5.005   4.467   3.433
20016WAT     H160290   5.084   4.461   3.494
20016WAT     H260291   5.005   4.556   3.388
20017WAT      O60292   5.118   1.596   5.231
20017WAT     H160293   5.087   1.513   5.276
20017WAT     H260294   5.083   1.599   5.137
20018WAT      O60295   9.455   8.442   1.532
20018WAT     H160296   9.493   8.510   1.595
20018WAT     H260297   9.361   8.468   1.507
20019WAT      O60298   5.276   5.252   6.886
20019WAT     H160299   5.317   5.165   6.913
20019WAT     H260300   5.176   5.244   6.890
20020WAT      O60301   9.023   8.853   4.658
20020WAT     H160302   9.020   8.915   4.580
20020WAT     H260303   9.102   8.792   4.647
20021WAT      O60304   6.970   2.730   2.081
20021WAT     H160305   6.987   2.782   1.997
20021WAT     H260306   7.020   2.772   2.156
20022WAT      O60307   0.053   0.748   5.652
20022WAT     H160308  -0.035   0.797   5.652
20022WAT     H260309   0.100   0.765   5.738
20023WAT      O60310   3.679   5.527   6.284
20023WAT     H160311   3.604   5.509   6.219
20023WAT     H260312   3.643   5.522   6.377
20024WAT      O60313   0.823   5.061   0.936
20024WAT     H160314   0.918   5.050   0.964
20024WAT     H260315   0.783   4.972   0.915
20025WAT      O60316   1.770   8.287   0.283
20025WAT     H160317   1.692   8.345   0.260
20025WAT     H260318   1.812   8.318   0.368
20026WAT      O60319   9.390   5.907   6.512
20026WAT     H160320   9.308   5.854   6.531
20026WAT     H260321   9.469   5.846   6.504
20027WAT      O60322   4.272   3.639   0.821
20027WAT     H160323   4.289   3.731   0.858
20027WAT     H260324   4.360   3.595   0.802
20028WAT      O60325   4.967   9.547   9.283
20028WAT     H160326   4.947   9.555   9.186
20028WAT     H260327   4.883   9.527   9.333
20029WAT      O60328   4.879   5.557   1.857
20029WAT     H160329   4.836   5.559   1.767
20029WAT     H260330   4.826   5.499   1.918
20030WAT      O60331   9.628   4.893   2.785
20030WAT     H160332   9.686   4.971   2.808
20030WAT     H260333   9.609   4.893   2.687
20031WAT      O60334   0.774   9.474   1.216
20031WAT     H160335   0.851   9.536   1.206
20031WAT     H260336   0.692   9.515   1.176
20032WAT      O60337   9.727   9.829   3.758
20032WAT     H160338   9.632   9.851   3.739
20032WAT     H260339   9.753   9.865   3.848
20033WAT      O60340   0.863   8.601   8.353
20033WAT     H160341   0.938   8.667   8.354
20033WAT     H260342   0.878   8.532   8.424
20034WAT      O60343   5.042   8.591   1.592
20034WAT     H160344   5.130   8.546   1.574
20034WAT     H260345   4.981   8.527   1.639
20035WAT      O60346   4.894   8.210   5.280
20035WAT     H160347   4.879   8.308   5.271
20035WAT     H260348   4.987   8.194   5.313
20036WAT      O60349   4.941   0.544   9.334
20036WAT     H160350   4.981   0.632   9.362
20036WAT     H260351   4.878   0.513   9.405
20037WAT      O60352   6.425   8.454   9.239
20037WAT     H160353   6.515   8.413   9.224
20037WAT     H260354   6.354   8.385   9.226
20038WAT      O60355   5.964   9.002   0.785
20038WAT     H160356   5.881   9.016   0.839
20038WAT     H260357   6.003   9.091   0.760
20039WAT      O60358   8.253   1.908   0.055
20039WAT     H160359   8.162   1.898   0.015
20039WAT     H260360   8.272   1.830   0.114
20040WAT      O60361   8.533   9.657   7.941
20040WAT     H160362   8.632   9.675   7.934
20040WAT     H260363   8.507   9.659   8.037
20041WAT      O60364   4.290   8.468   7.487
20041WAT     H160365   4.247   8.506   7.569
20041WAT     H260366   4.345   8.388   7.512
20042WAT      O60367   0.383   1.152   6.933
20042WAT     H160368   0.300   1.166   6.878
20042WAT     H260369   0.375   1.067   6.985
20043WAT      O60370   7.165   1.386   9.758
20043WAT     H160371   7.146   1.483   9.745
20043WAT     H260372   7.255   1.374   9.799
20044WAT      O60373   0.133   7.926   1.372
20044WAT     H160374   0.099   7.833   1.382
20044WAT     H260375   0.100   7.965   1.286
20045WAT      O60376   4.257   6.806   6.854
20045WAT     H160377   4.174   6.766   6.893
20045WAT     H260378   4.253   6.800   6.754
20046WAT      O60379   5.446   8.986   1.973
20046WAT     H160380   5.525   8.928   1.993
20046WAT     H260381   5.463   9.078   2.009
20047WAT      O60382   6.039   2.139   9.239
20047WAT     H160383   6.077   2.226   9.207
20047WAT     H260384   5.949   2.124   9.199
20048WAT      O60385   4.316   2.618   2.297
20048WAT     H160386   4.401   2.571   2.323
20048WAT     H260387   4.334   2.716   2.290
20049WAT      O60388   0.967   4.067   0.145
20049WAT     H160389   1.043   4.003   0.131
20049WAT     H260390   0.963   4.093   0.241
20050WAT      O60391   8.120   0.705   7.460
20050WAT     H160392   8.065   0.730   7.380
20050WAT     H260393   8.135   0.785   7.517
20051WAT      O60394   0.796   2.357   5.480
20051WAT     H160395   0.853   2.369   5.399
20051WAT     H260396   0.700   2.353   5.454
20052WAT      O60397   1.935   1.846   5.954
20052WAT     H160398   1.916   1.939   5.984
20052WAT     H260399   1.897   1.781   6.020
20053WAT      O60400   6.289   8.961   8.303
20053WAT     H160401   6.303   8.952   8.402
20053WAT     H260402   6.222   9.034   8.286
20054WAT      O60403   0.503   5.416   1.731
20054WAT     H160404   0.599   5.425   1.757
20054WAT     H260405   0.462   5.339   1.780
20055WAT      O60406   8.050   8.084   4.247
20055WAT     H160407   8.030   8.159   4.310
20055WAT     H260408   8.150   8.072   4.240
20056WAT      O60409   9.838   2.526   0.592
20056WAT     H160410   9.807   2.435   0.618
20056WAT     H260411   9.932   2.521   0.559
20057WAT      O60412   9.676   0.438   1.868
20057WAT     H160413   9.620   0.518   1.888
20057WAT     H260414   9.701   0.439   1.771
20058WAT      O60415   8.600   9.307   0.524
20058WAT     H160416   8.599   9.378   0.454
20058WAT     H260417   8.514   9.255   0.520
20059WAT      O60418   1.700   4.090   2.939
20059WAT     H160419   1.638   4.168   2.951
20059WAT     H260420   1.739   4.093   2.847
20060WAT      O60421   4.013   7.259   2.903
20060WAT     H160422   3.919   7.258   2.939
20060WAT     H260423   4.070   7.197   2.957
20061WAT      O60424   9.797   6.932   0.111
20061WAT     H160425   9.894   6.917   0.092
20061WAT     H260426   9.786   7.006   0.177
20062WAT      O60427   1.253   7.310   8.784
20062WAT     H160428   1.351   7.291   8.773
20062WAT     H260429   1.201   7.259   8.716
20063WAT      O60430   1.346   1.338   0.458
20063WAT     H160431   1.363   1.356   0.555
20063WAT     H260432   1.383   1.414   0.403
20064WAT      O60433   3.294   6.741   3.796
20064WAT     H160434   3.307   6.663   3.858
20064WAT     H260435   3.211   6.727   3.742
20065WAT      O60436   1.865   7.306   0.959
20065WAT     H160437   1.920   7.384   0.988
20065WAT     H260438   1.830   7.258   1.039
20066WAT      O60439   2.139   6.866   0.664
20066WAT     H160440   2.170   6.909   0.749
20066WAT     H260441   2.079   6.928   0.614
20067WAT      O60442   8.691   0.689   6.462
20067WAT     H160443   8.655   0.769   6.414
20067WAT     H260444   8.629   0.664   6.536
20068WAT      O60445   2.260   9.771   1.047
20068WAT     H160446   2.252   9.774   1.147
20068WAT     H260447   2.309   9.689   1.020
20069WAT      O60448   4.625   0.892   2.933
20069WAT     H160449   4.662   0.985   2.928
20069WAT     H260450   4.583   0.868   2.846
20070WAT      O60451   3.757   3.067   4.592
20070WAT     H160452   3.841   3.046   4.642
20070WAT     H260453   3.728   3.160   4.613
20071WAT      O60454   0.483   9.594   1.347
20071WAT     H160455   0.541   9.674   1.336
20071WAT     H260456   0.480   9.543   1.261
20072WAT      O60457   0.417   9.445   7.275
20072WAT     H160458   0.389   9.539   7.256
20072WAT     H260459   0.421   9.430   7.374
20073WAT      O60460   5.314   2.462   1.420
20073WAT     H160461   5.288   2.410   1.339
20073WAT     H260462   5.350   2.400   1.490
20074WAT      O60463   1.204   8.787   5.391
20074WAT     H160464   1.127   8.850   5.387
20074WAT     H260465   1.174   8.696   5.361
20075WAT      O60466   8.820   0.811   2.427
20075WAT     H160467   8.874   0.756   2.490
20075WAT     H260468   8.839   0.785   2.333
20076WAT      O60469   8.459   4.829   8.764
20076WAT     H160470   8.398   4.772   8.819
20076WAT     H260471   8.421   4.839   8.672
20077WAT      O60472   2.262   9.610   2.329
20077WAT     H160473   2.296   9.688   2.381
20077WAT     H260474   2.164   9.598   2.347
20078WAT      O60475   9.572   7.228   2.165
20078WAT     H160476   9.609   7.306   2.113
20078WAT     H260477   9.645   7.189   2.222
20079WAT      O60478   3.016   9.554   2.231
20079WAT     H160479   3.027   9.588   2.325
20079WAT     H260480   3.050   9.460   2.225
20080WAT      O60481   8.853   9.243   1.164
20080WAT     H160482   8.832   9.145   1.164
20080WAT     H260483   8.836   9.280   1.256
20081WAT      O60484   8.848   0.213   5.713
20081WAT     H160485   8.836   0.277   5.789
20081WAT     H260486   8.944   0.184   5.709
20082WAT      O60487   1.451   2.847   3.759
20082WAT     H160488   1.388   2.784   3.714
20082WAT     H260489   1.540   2.802   3.771
20083WAT      O60490   1.060   3.487   6.771
20083WAT     H160491   1.156   3.510   6.758
20083WAT     H260492   1.006   3.571   6.782
20084WAT      O60493   3.683   3.742   8.773
20084WAT     H160494   3.773   3.786   8.777
20084WAT     H260495   3.685   3.667   8.706
20085WAT      O60496   4.885   7.567   9.781
20085WAT     H160497   4.974   7.557   9.825
20085WAT     H260498   4.813   7.538   9.843
20086WAT      O60499   3.178   9.141   3.927
20086WAT     H160500   3.178   9.175   4.021
20086WAT     H260501   3.103   9.076   3.915
20087WAT      O60502   0.844   6.549   8.665
20087WAT     H160503   0.829   6.621   8.597
20087WAT     H260504   0.819   6.583   8.755
20088WAT      O60505   7.263   8.927   0.182
20088WAT     H160506   7.337   8.986   0.149
20088WAT     H260507   7.178   8.980   0.185
20089WAT      O60508   7.105   3.883   4.767
20089WAT     H160509   7.112   3.808   4.701
20089WAT     H260510   7.047   3.855   4.843
20090WAT      O60511   3.049   5.096   3.979
20090WAT     H160512   2.962   5.102   3.930
20090WAT     H260513   3.047   5.018   4.041
20091WAT      O60514   0.019   6.333   0.418
20091WAT     H160515   0.002   6.237   0.440
20091WAT     H260516  -0.060   6.388   0.444
20092WAT      O60517   8.332   2.941   7.421
20092WAT     H160518   8.309   2.920   7.516
20092WAT     H260519   8.297   2.870   7.362
20093WAT      O60520   8.660   3.255   4.822
20093WAT     H160521   8.634   3.335   4.876
20093WAT     H260522   8.732   3.205   4.870
20094WAT      O60523   2.976   7.617   1.072
20094WAT     H160524   3.027   7.660   0.997
20094WAT     H260525   2.964   7.683   1.146
20095WAT      O60526   5.466   9.700   1.678
20095WAT     H160527   5.401   9.775   1.691
20095WAT     H260528   5.453   9.660   1.587
20096WAT      O60529   4.987   6.362   1.277
20096WAT     H160530   4.931   6.434   1.320
20096WAT     H260531   4.981   6.370   1.178
20097WAT      O60532   3.368   5.432   9.014
20097WAT     H160533   3.322   5.519   8.997
20097WAT     H260534   3.330   5.362   8.954
20098WAT      O60535   7.573   3.355   3.747
20098WAT     H160536   7.601   3.444   3.711
20098WAT     H260537   7.587   3.354   3.846
20099WAT      O60538   9.659   2.162   8.835
20099WAT     H160539   9.715   2.101   8.779
20099WAT     H260540   9.639   2.245   8.784
20100WAT      O60541   2.234   7.306   2.940
20100WAT     H160542   2.186   7.335   2.857
20100WAT     H260543   2.304   7.373   2.964
20101WAT      O60544   4.412   8.737   5.340
20101WAT     H160545   4.336   8.752   5.404
20101WAT     H260546   4.482   8.682   5.385
20102WAT      O60547   6.907   9.014   4.803
20102WAT     H160548   6.939   9.006   4.708
20102WAT     H260549   6.985   9.003   4.865
20103WAT      O60550   2.903   9.001   0.770
20103WAT     H160551   2.827   9.049   0.813
20103WAT     H260552   2.953   9.064   0.711
20104WAT      O60553   4.973   3.833   9.297
20104WAT     H160554   5.051   3.833   9.233
20104WAT     H260555   4.951   3.927   9.322
20105WAT      O60556   6.833   6.221   7.226
20105WAT     H160557   6.778   6.140   7.247
20105WAT     H260558   6.776   6.303   7.233
20106WAT      O60559   2.902   1.740   3.060
20106WAT     H160560   2.912   1.643   3.085
20106WAT     H260561   2.885   1.747   2.962
20107WAT      O60562   7.763   4.357   1.855
20107WAT     H160563   7.708   4.275   1.841
20107WAT     H260564   7.820   4.373   1.775
20108WAT      O60565   3.175   0.527   6.359
20108WAT     H160566   3.082   0.527   6.321
20108WAT     H260567   3.226   0.604   6.322
20109WAT      O60568   6.518   3.252   6.556
20109WAT     H160569   6.479   3.302   6.478
20109WAT     H260570   6.469   3.165   6.566
20110WAT      O60571   4.795   1.011   5.699
20110WAT     H160572   4.731   1.030   5.773
20110WAT     H260573   4.826   0.917   5.704
20111WAT      O60574   6.056   9.013   9.111
20111WAT     H160575   6.125   9.085   9.101
20111WAT     H260576   6.000   9.032   9.192
20112WAT      O60577   9.254   7.052   0.210
20112WAT     H160578   9.323   7.061   0.138
20112WAT     H260579   9.163   7.065   0.170
20113WAT      O60580   4.230   7.144   8.111
20113WAT     H160581   4.192   7.140   8.204
20113WAT     H260582   4.192   7.223   8.063
20114WAT      O60583   3.284   2.050   7.923
20114WAT     H160584   3.341   2.093   7.993
20114WAT     H260585   3.210   2.000   7.967
20115WAT      O60586   9.362   7.287   9.514
20115WAT     H160587   9.423   7.268   9.437
20115WAT     H260588   9.279   7.232   9.505
20116WAT      O60589   2.686   1.602   1.048
20116WAT     H160590   2.779   1.616   1.015
20116WAT     H260591   2.623   1.599   0.970
20117WAT      O60592   1.461   6.987   2.785
20117WAT     H160593   1.370   6.997   2.745
20117WAT     H260594   1.506   7.076   2.791
20118WAT      O60595   8.158   3.806   6.709
20118WAT     H160596   8.068   3.765   6.704
20118WAT     H260597   8.166   3.878   6.639
20119WAT      O60598   9.369   8.258   8.844
20119WAT     H160599   9.346   8.345   8.800
20119WAT     H260600   9.468   8.254   8.859
20120WAT      O60601   1.998   3.669   5.940
20120WAT     H160602   1.952   3.590   5.979
20120WAT     H260603   2.085   3.684   5.987
20121WAT      O60604   1.406   0.329   8.701
20121WAT     H160605   1.427   0.313   8.605
20121WAT     H260606   1.316   0.292   8.723
20122WAT      O60607   2.008   3.455   0.402
20122WAT     H160608   1.981   3.361   0.378
20122WAT     H260609   2.029   3.460   0.499
20123WAT      O60610   4.670   9.034   3.317
20123WAT     H160611   4.649   9.125   3.281
20123WAT     H260612   4.753   9.040   3.374
20124WAT      O60613   0.525   8.487   2.412
20124WAT     H160614   0.542   8.403   2.463
20124WAT     H260615   0.592   8.495   2.338
20125WAT      O60616   7.211   5.488   3.412
20125WAT     H160617   7.121   5.508   3.451
20125WAT     H260618   7.276   5.558   3.441
20126WAT      O60619   3.949   4.726   3.711
20126WAT     H160620   4.047   4.741   3.700
20126WAT     H260621   3.922   4.639   3.669
20127WAT      O60622   0.491   2.992   5.765
20127WAT     H160623   0.517   3.069   5.823
20127WAT     H260624   0.400   3.008   5.727
20128WAT      O60625   6.846   4.033   4.381
20128WAT     H160626   6.802   3.992   4.460
20128WAT     H260627   6.945   4.019   4.386
20129WAT      O60628   6.332   5.658   8.979
20129WAT     H160629   6.367   5.658   9.072
20129WAT     H260630   6.233   5.644   8.981
20130WAT      O60631   7.745   1.547   0.951
20130WAT     H160632   7.652   1.555   0.913
20130WAT     H260633   7.743   1.571   1.048
20131WAT      O60634   0.725   3.744   1.763
20131WAT     H160635   0.725   3.737   1.863
20131WAT     H260636   0.816   3.770   1.732
20132WAT      O60637   3.884   2.163   6.754
20132WAT     H160638   3.834   2.148   6.669
20132WAT     H260639   3.841   2.111   6.828
20133WAT      O60640   9.486   2.354   4.698
20133WAT     H160641   9.431   2.289   4.645
20133WAT     H260642   9.427   2.404   4.761
20134WAT      O60643   8.532   5.980   7.399
20134WAT     H160644   8.586   6.037   7.336
20134WAT     H260645   8.446   6.027   7.420
20135WAT      O60646   9.111   0.087   8.418
20135WAT     H160647   9.184   0.019   8.415
20135WAT     H260648   9.022   0.041   8.420
20136WAT      O60649   3.583   3.775   5.106
20136WAT     H160650   3.491   3.759   5.143
20136WAT     H260651   3.586   3.747   5.010
20137WAT      O60652   9.502   4.400   8.798
20137WAT     H160653   9.522   4.391   8.895
20137WAT     H260654   9.424   4.459   8.784
20138WAT      O60655   2.039   6.063   0.004
20138WAT     H160656   2.104   5.987   0.005
20138WAT     H260657   1.979   6.057   0.084
20139WAT      O60658   0.120   8.496   8.811
20139WAT     H160659   0.032   8.489   8.858
20139WAT     H260660   0.189   8.445   8.862
20140WAT      O60661   7.041   6.552   3.828
20140WAT     H160662   6.951   6.543   3.787
20140WAT     H260663   7.074   6.646   3.816
20141WAT      O60664   1.640   2.507   4.386
20141WAT     H160665   1.555   2.459   4.406
20141WAT     H260666   1.620   2.602   4.362
20142WAT      O60667   2.121   6.372   0.710
20142WAT     H160668   2.146   6.439   0.641
20142WAT     H260669   2.103   6.418   0.797
20143WAT      O60670   3.950   9.493   0.727
20143WAT     H160671   3.917   9.567   0.785
20143WAT     H260672   3.987   9.420   0.784
20144WAT      O60673   9.114   4.065   0.415
20144WAT     H160674   9.115   4.131   0.489
20144WAT     H260675   9.181   3.993   0.433
20145WAT      O60676   5.687   1.633   9.294
20145WAT     H160677   5.680   1.644   9.195
20145WAT     H260678   5.757   1.696   9.330
20146WAT      O60679   2.034   3.302   4.920
20146WAT     H160680   2.077   3.212   4.932
20146WAT     H260681   2.017   3.318   4.823
20147WAT      O60682   3.052   2.502   2.422
20147WAT     H160683   3.110   2.496   2.341
20147WAT     H260684   3.046   2.597   2.452
20148WAT      O60685   8.360   9.341   7.479
20148WAT     H160686   8.336   9.261   7.424
20148WAT     H260687   8.277   9.391   7.503
20149WAT      O60688   6.218   7.480   9.087
20149WAT     H160689   6.236   7.563   9.034
20149WAT     H260690   6.287   7.411   9.065
20150WAT      O60691   6.095   4.166   0.519
20150WAT     H160692   6.023   4.119   0.467
20150WAT     H260693   6.089   4.140   0.615
20151WAT      O60694   9.444   0.975   1.671
20151WAT     H160695   9.358   1.025   1.657
20151WAT     H260696   9.431   0.905   1.741
20152WAT      O60697   7.826   1.363   2.624
20152WAT     H160698   7.865   1.326   2.708
20152WAT     H260699   7.790   1.455   2.642
20153WAT      O60700   8.898   8.081   0.371
20153WAT     H160701   8.897   8.161   0.311
20153WAT     H260702   8.889   7.998   0.315
20154WAT      O60703   9.077   9.123   6.005
20154WAT     H160704   9.074   9.023   6.001
20154WAT     H260705   8.994   9.156   6.052
20155WAT      O60706   2.462   7.141   9.324
20155WAT     H160707   2.444   7.235   9.294
20155WAT     H260708   2.452   7.079   9.245
20156WAT      O60709   1.994   9.247   0.406
20156WAT     H160710   2.065   9.311   0.379
20156WAT     H260711   2.023   9.154   0.383
20157WAT      O60712   3.077   4.725   8.671
20157WAT     H160713   2.984   4.763   8.671
20157WAT     H260714   3.125   4.753   8.589
20158WAT      O60715   6.492   1.699   2.350
20158WAT     H160716   6.496   1.601   2.329
20158WAT     H260717   6.431   1.745   2.286
20159WAT      O60718   1.000   9.754   4.546
20159WAT     H160719   0.975   9.670   4.498
20159WAT     H260720   1.009   9.829   4.481
20160WAT      O60721   6.191   8.578   0.168
20160WAT     H160722   6.104   8.549   0.206
20160WAT     H260723   6.193   8.559   0.070
20161WAT      O60724   0.009   0.936   1.986
20161WAT     H160725  -0.002   0.983   1.899
20161WAT     H260726   0.035   0.841   1.970
20162WAT      O60727   5.637   3.364   6.839
20162WAT     H160728   5.687   3.447   6.817
20162WAT     H260729   5.540   3.386   6.855
20163WAT      O60730   3.247   5.356   5.916
20163WAT     H160731   3.276   5.282   5.855
20163WAT     H260732   3.148   5.355   5.924
20164WAT      O60733   8.580   9.201   2.186
20164WAT     H160734   8.628   9.289   2.190
20164WAT     H260735   8.643   9.129   2.159
20165WAT      O60736   9.760   5.938   7.073
20165WAT     H160737   9.722   5.846   7.075
20165WAT     H260738   9.777   5.966   6.979
20166WAT      O60739   2.801   2.919   6.742
20166WAT     H160740   2.788   2.850   6.671
20166WAT     H260741   2.722   2.919   6.803
20167WAT      O60742   2.513   9.393   6.929
20167WAT     H160743   2.441   9.461   6.913
20167WAT     H260744   2.504   9.357   7.022
20168WAT      O60745   9.831   4.810   8.930
20168WAT     H160746   9.817   4.711   8.935
20168WAT     H260747   9.834   4.848   9.022
20169WAT      O60748   3.054   0.084   1.448
20169WAT     H160749   2.977   0.141   1.477
20169WAT     H260750   3.072   0.099   1.350
20170WAT      O60751   8.277   7.120   0.316
20170WAT     H160752   8.367   7.135   0.275
20170WAT     H260753   8.210   7.103   0.244
20171WAT      O60754   4.339   0.379   5.848
20171WAT     H160755   4.402   0.302   5.845
20171WAT     H260756   4.385   0.460   5.811
20172WAT      O60757   8.023   6.679   7.012
20172WAT     H160758   8.107   6.706   7.058
20172WAT     H260759   8.028   6.582   6.987
20173WAT      O60760   5.377   4.054   0.674
20173WAT     H160761   5.354   4.030   0.768
20173WAT     H260762   5.470   4.089   0.670
20174WAT      O60763   0.747   5.837   0.448
20174WAT     H160764   0.799   5.908   0.400
20174WAT     H260765   0.783   5.826   0.541
20175WAT      O60766   2.075   9.834   0.498
20175WAT     H160767   2.024   9.778   0.563
20175WAT     H260768   2.162   9.862   0.539
20176WAT      O60769   4.945   4.525   6.552
20176WAT     H160770   4.959   4.608   6.498
20176WAT     H260771   4.847   4.507   6.561
20177WAT      O60772   6.108   6.235   2.113
20177WAT     H160773   6.012   6.259   2.102
20177WAT     H260774   6.150   6.295   2.181
20178WAT      O60775   7.274   5.339   2.806
20178WAT     H160776   7.281   5.249   2.762
20178WAT     H260777   7.218   5.330   2.889
20179WAT      O60778   2.695   7.602   6.032
20179WAT     H160779   2.598   7.615   6.055
20179WAT     H260780   2.751   7.654   6.096
20180WAT      O60781   4.407   8.514   1.075
20180WAT     H160782   4.441   8.483   0.986
20180WAT     H260783   4.459   8.469   1.148
20181WAT      O60784   8.759   5.219   1.624
20181WAT     H160785   8.807   5.242   1.539
20181WAT     H260786   8.696   5.294   1.648
20182WAT      O60787   3.783   4.903   0.799
20182WAT     H160788   3.824   4.989   0.829
20182WAT     H260789   3.743   4.857   0.878
20183WAT      O60790   3.446   3.866   7.872
20183WAT     H160791   3.543   3.840   7.870
20183WAT     H260792   3.437   3.958   7.911
20184WAT      O60793   0.268   4.447   3.404
20184WAT     H160794   0.292   4.455   3.307
20184WAT     H260795   0.245   4.538   3.440
20185WAT      O60796   1.796   6.659   9.113
20185WAT     H160797   1.758   6.671   9.205
20185WAT     H260798   1.895   6.667   9.118
20186WAT      O60799   5.392   1.140   6.630
20186WAT     H160800   5.375   1.042   6.633
20186WAT     H260801   5.491   1.157   6.630
20187WAT      O60802   8.623   1.156   8.065
20187WAT     H160803   8.647   1.245   8.103
20187WAT     H260804   8.564   1.107   8.130
20188WAT      O60805   6.561   2.284   6.508
20188WAT     H160806   6.514   2.358   6.460
20188WAT     H260807   6.659   2.301   6.508
20189WAT      O60808   4.310   6.860   4.773
20189WAT     H160809   4.291   6.838   4.868
20189WAT     H260810   4.319   6.775   4.720
20190WAT      O60811   4.748   6.846   8.970
20190WAT     H160812   4.762   6.932   9.018
20190WAT     H260813   4.662   6.849   8.920
20191WAT      O60814   5.204   2.715   4.608
20191WAT     H160815   5.157   2.627   4.601
20191WAT     H260816   5.164   2.779   4.542
20192WAT      O60817   8.796   1.793   1.376
20192WAT     H160818   8.770   1.754   1.465
20192WAT     H260819   8.894   1.815   1.377
20193WAT      O60820   7.304   0.765   5.582
20193WAT     H160821   7.210   0.757   5.549
20193WAT     H260822   7.328   0.861   5.593
20194WAT      O60823   7.624   1.989   5.996
20194WAT     H160824   7.706   1.940   5.964
20194WAT     H260825   7.649   2.083   6.019
20195WAT      O60826   0.499   5.831   8.787
20195WAT     H160827   0.488   5.803   8.691
20195WAT     H260828   0.594   5.818   8.815
20196WAT      O60829   7.203   7.250   7.178
20196WAT     H160830   7.195   7.345   7.208
20196WAT     H260831   7.297   7.233   7.147
20197WAT      O60832   3.583   9.313   4.284
20197WAT     H160833   3.583   9.238   4.219
20197WAT     H260834   3.654   9.379   4.258
20198WAT      O60835   8.863   4.016   7.113
20198WAT     H160836   8.952   4.061   7.111
20198WAT     H260837   8.858   3.955   7.192
20199WAT      O60838   0.345   1.497   4.810
20199WAT     H160839   0.387   1.409   4.833
20199WAT     H260840   0.329   1.549   4.894
20200WAT      O60841   5.736   8.930   4.631
20200WAT     H160842   5.777   8.850   4.675
20200WAT     H260843   5.652   8.903   4.586
20201WAT      O60844   7.609   1.677   1.545
20201WAT     H160845   7.538   1.617   1.582
20201WAT     H260846   7.566   1.755   1.500
20202WAT      O60847   2.680   7.243   6.709
20202WAT     H160848   2.601   7.238   6.770
20202WAT     H260849   2.763   7.261   6.762
20203WAT      O60850   6.900   2.835   6.192
20203WAT     H160851   6.904   2.796   6.100
20203WAT     H260852   6.979   2.802   6.245
20204WAT      O60853   5.689   4.235   0.571
20204WAT     H160854   5.611   4.275   0.524
20204WAT     H260855   5.685   4.135   0.564
20205WAT      O60856   8.844   3.511   1.742
20205WAT     H160857   8.768   3.575   1.744
20205WAT     H260858   8.910   3.539   1.673
20206WAT      O60859   8.881   5.755   3.381
20206WAT     H160860   8.783   5.757   3.401
20206WAT     H260861   8.895   5.743   3.283
20207WAT      O60862   9.319   9.026   9.176
20207WAT     H160863   9.352   8.933   9.161
20207WAT     H260864   9.263   9.029   9.259
20208WAT      O60865   5.956   9.143   4.373
20208WAT     H160866   5.890   9.202   4.421
20208WAT     H260867   6.012   9.095   4.440
20209WAT      O60868   3.951   9.090   4.783
20209WAT     H160869   4.008   9.042   4.715
20209WAT     H260870   3.966   9.051   4.873
20210WAT      O60871   7.134   7.833   7.691
20210WAT     H160872   7.121   7.737   7.669
20210WAT     H260873   7.137   7.886   7.606
20211WAT      O60874   1.674   8.138   5.486
20211WAT     H160875   1.644   8.145   5.581
20211WAT     H260876   1.604   8.091   5.432
20212WAT      O60877   2.562   1.900   5.630
20212WAT     H160878   2.484   1.854   5.672
20212WAT     H260879   2.635   1.909   5.697
20213WAT      O60880   2.819   2.955   5.002
20213WAT     H160881   2.736   2.905   4.981
20213WAT     H260882   2.797   3.051   5.017
20214WAT      O60883   0.966   0.861   5.278
20214WAT     H160884   1.038   0.925   5.251
20214WAT     H260885   0.899   0.908   5.337
20215WAT      O60886   0.245   2.690   1.208
20215WAT     H160887   0.341   2.707   1.231
20215WAT     H260888   0.232   2.701   1.110
20216WAT      O60889   8.825   1.088   5.914
20216WAT     H160890   8.753   1.155   5.933
20216WAT     H260891   8.791   1.020   5.848
20217WAT      O60892   5.982   8.414   8.617
20217WAT     H160893   5.894   8.428   8.572
20217WAT     H260894   6.003   8.493   8.674
20218WAT      O60895   2.971   2.321   6.845
20218WAT     H160896   2.931   2.389   6.907
20218WAT     H260897   2.995   2.365   6.758
20219WAT      O60898   2.066   5.427   1.574
20219WAT     H160899   1.994   5.481   1.618
20219WAT     H260900   2.099   5.476   1.493
20220WAT      O60901   2.964   3.677   3.496
20220WAT     H160902   2.916   3.593   3.470
20220WAT     H260903   2.932   3.753   3.438
20221WAT      O60904   1.828   3.816   2.625
20221WAT     H160905   1.749   3.785   2.572
20221WAT     H260906   1.909   3.814   2.567
20222WAT      O60907   9.282   4.110   7.317
20222WAT     H160908   9.311   4.014   7.315
20222WAT     H260909   9.317   4.154   7.399
20223WAT      O60910   8.298   3.318   6.450
20223WAT     H160911   8.287   3.357   6.542
20223WAT     H260912   8.311   3.219   6.458
20224WAT      O60913   7.223   6.060   6.028
20224WAT     H160914   7.192   6.142   5.981
20224WAT     H260915   7.193   6.063   6.124
20225WAT      O60916   0.710   0.730   9.763
20225WAT     H160917   0.807   0.735   9.789
20225WAT     H260918   0.679   0.820   9.732
20226WAT      O60919   8.648   4.116   2.438
20226WAT     H160920   8.629   4.143   2.343
20226WAT     H260921   8.680   4.195   2.490
20227WAT      O60922   8.649   8.573   6.756
20227WAT     H160923   8.697   8.569   6.844
20227WAT     H260924   8.599   8.659   6.749
20228WAT      O60925   5.394   6.147   5.279
20228WAT     H160926   5.301   6.111   5.287
20228WAT     H260927   5.432   6.123   5.190
20229WAT      O60928   9.011   9.769   4.512
20229WAT     H160929   9.085   9.734   4.569
20229WAT     H260930   8.928   9.780   4.567
20230WAT      O60931   6.488   0.085   6.719
20230WAT     H160932   6.394   0.106   6.747
20230WAT     H260933   6.522   0.156   6.658
20231WAT      O60934   5.184   5.885   0.141
20231WAT     H160935   5.088   5.912   0.142
20231WAT     H260936   5.231   5.924   0.220
20232WAT      O60937   6.650   6.346   3.687
20232WAT     H160938   6.556   6.312   3.681
20232WAT     H260939   6.710   6.288   3.632
20233WAT      O60940   3.301   5.238   0.816
20233WAT     H160941   3.228   5.221   0.749
20233WAT     H260942   3.349   5.153   0.835
20234WAT      O60943   3.519   4.308   6.860
20234WAT     H160944   3.552   4.345   6.947
20234WAT     H260945   3.420   4.295   6.865
20235WAT      O60946   5.871   1.557   3.642
20235WAT     H160947   5.817   1.475   3.658
20235WAT     H260948   5.906   1.557   3.548
20236WAT      O60949   1.469   7.817   4.432
20236WAT     H160950   1.416   7.887   4.479
20236WAT     H260951   1.529   7.771   4.498
20237WAT      O60952   6.696   5.074   6.494
20237WAT     H160953   6.625   5.040   6.433
20237WAT     H260954   6.654   5.122   6.572
20238WAT      O60955   7.190   5.556   0.229
20238WAT     H160956   7.261   5.516   0.287
20238WAT     H260957   7.147   5.633   0.277
20239WAT      O60958   8.402   8.417   2.259
20239WAT     H160959   8.368   8.450   2.172
20239WAT     H260960   8.327   8.377   2.312
20240WAT      O60961   9.350   4.392   2.854
20240WAT     H160962   9.297   4.409   2.772
20240WAT     H260963   9.424   4.327   2.834
20241WAT      O60964   0.879   2.772   9.356
20241WAT     H160965   0.971   2.760   9.319
20241WAT     H260966   0.870   2.863   9.395
20242WAT      O60967   8.302   7.422   8.132
20242WAT     H160968   8.304   7.328   8.166
20242WAT     H260969   8.226   7.432   8.068
20243WAT      O60970   3.995   7.771   2.214
20243WAT     H160971   3.995   7.672   2.200
20243WAT     H260972   3.901   7.803   2.228
20244WAT      O60973   9.472   3.399   8.646
20244WAT     H160974   9.392   3.384   8.589
20244WAT     H260975   9.490   3.317   8.700
20245WAT      O60976   7.264   7.963   9.619
20245WAT     H160977   7.353   7.920   9.637
20245WAT     H260978   7.242   8.027   9.693
20246WAT      O60979   5.300   6.137   8.861
20246WAT     H160980   5.226   6.080   8.896
20246WAT     H260981   5.373   6.078   8.826
20247WAT      O60982   3.907   8.249   6.105
20247WAT     H160983   3.852   8.169   6.078
20247WAT     H260984   3.979   8.264   6.038
20248WAT      O60985   6.287   4.438   8.716
20248WAT     H160986   6.369   4.394   8.679
20248WAT     H260987   6.215   4.436   8.647
20249WAT      O60988   0.904   3.706   6.901
20249WAT     H160989   0.822   3.744   6.857
20249WAT     H260990   0.876   3.651   6.980
20250WAT      O60991   4.044   2.587   2.317
20250WAT     H160992   4.142   2.603   2.314
20250WAT     H260993   4.025   2.491   2.301
20251WAT      O60994   4.303   7.025   7.877
20251WAT     H160995   4.386   6.969   7.864
20251WAT     H260996   4.291   7.045   7.974
20252WAT      O60997   0.780   5.628   7.506
20252WAT     H160998   0.797   5.721   7.536
20252WAT     H260999   0.803   5.564   7.580
20253WAT      O61000   0.527   5.568   8.023
20253WAT     H161001   0.455   5.525   8.077
20253WAT     H261002   0.564   5.500   7.958
20254WAT      O61003   5.535   7.544   8.705
20254WAT     H161004   5.564   7.449   8.701
20254WAT     H261005   5.438   7.551   8.684
20255WAT      O61006   6.655   6.450   3.942
20255WAT     H161007   6.640   6.405   3.854
20255WAT     H261008   6.672   6.381   4.013
20256WAT      O61009   6.167   7.246   8.738
20256WAT     H161010   6.124   7.174   8.683
20256WAT     H261011   6.266   7.242   8.726
20257WAT      O61012   0.807   6.357   2.206
20257WAT     H161013   0.891   6.333   2.255
20257WAT     H261014   0.790   6.455   2.217
20258WAT      O61015   3.743   1.396   8.082
20258WAT     H161016   3.671   1.360   8.141
20258WAT     H261017   3.818   1.331   8.077
20259WAT      O61018   6.096   7.726   4.400
20259WAT     H161019   6.174   7.704   4.457
20259WAT     H261020   6.051   7.808   4.434
20260WAT      O61021   9.824   6.647   7.883
20260WAT     H161022   9.737   6.686   7.913
20260WAT     H261023   9.896   6.668   7.949
20261WAT      O61024   2.716   3.083   9.074
20261WAT     H161025   2.690   2.988   9.090
20261WAT     H261026   2.634   3.139   9.063
20262WAT      O61027   6.715   9.733   7.842
20262WAT     H161028   6.663   9.818   7.853
20262WAT     H261029   6.692   9.670   7.916
20263WAT      O61030   4.511   9.354   9.634
20263WAT     H161031   4.442   9.427   9.640
20263WAT     H261032   4.602   9.394   9.644
20264WAT      O61033   9.074   5.942   2.246
20264WAT     H161034   9.107   6.014   2.308
20264WAT     H261035   9.147   5.916   2.184
20265WAT      O61036   3.033   7.833   2.238
20265WAT     H161037   3.018   7.892   2.317
20265WAT     H261038   2.946   7.816   2.192
20266WAT      O61039   1.910   2.524   7.177
20266WAT     H161040   1.925   2.565   7.087
20266WAT     H261041   1.817   2.546   7.208
20267WAT      O61042   3.048   4.372   2.834
20267WAT     H161043   3.125   4.427   2.803
20267WAT     H261044   3.079   4.279   2.854
20268WAT      O61045   0.405   9.321   5.048
20268WAT     H161046   0.335   9.369   5.100
20268WAT     H261047   0.444   9.382   4.980
20269WAT      O61048   7.558   0.404   3.718
20269WAT     H161049   7.495   0.403   3.641
20269WAT     H261050   7.646   0.441   3.689
20270WAT      O61051   6.050   4.074   7.718
20270WAT     H161052   6.143   4.081   7.681
20270WAT     H261053   5.985   4.111   7.651
20271WAT      O61054   0.990   6.445   1.071
20271WAT     H161055   0.892   6.450   1.056
20271WAT     H261056   1.009   6.402   1.159
20272WAT      O61057   9.561   6.323   8.601
20272WAT     H161058   9.486   6.389   8.605
20272WAT     H261059   9.537   6.251   8.535
20273WAT      O61060   3.455   6.358   8.684
20273WAT     H161061   3.465   6.260   8.665
20273WAT     H261062   3.453   6.409   8.599
20274WAT      O61063   2.632   7.134   8.449
20274WAT     H161064   2.549   7.167   8.493
20274WAT     H261065   2.622   7.140   8.349
20275WAT      O61066   5.841   8.211   1.803
20275WAT     H161067   5.817   8.242   1.711
20275WAT     H261068   5.779   8.253   1.869
20276WAT      O61069   6.220   6.106   5.162
20276WAT     H161070   6.183   6.014   5.149
20276WAT     H261071   6.317   6.107   5.134
20277WAT      O61072   1.408   9.377   2.008
20277WAT     H161073   1.361   9.452   1.961
20277WAT     H261074   1.458   9.322   1.941
20278WAT      O61075   4.827   3.736   8.827
20278WAT     H161076   4.752   3.713   8.889
20278WAT     H261077   4.830   3.836   8.815
20279WAT      O61078   3.557   8.920   5.624
20279WAT     H161079   3.532   8.920   5.721
20279WAT     H261080   3.481   8.883   5.570
20280WAT      O61081   9.883   3.222   3.138
20280WAT     H161082   9.903   3.201   3.234
20280WAT     H261083   9.880   3.321   3.126
20281WAT      O61084   1.174   5.145   1.528
20281WAT     H161085   1.260   5.178   1.488
20281WAT     H261086   1.101   5.153   1.460
20282WAT      O61087   3.379   2.859   1.647
20282WAT     H161088   3.414   2.819   1.731
20282WAT     H261089   3.345   2.787   1.587
20283WAT      O61090   3.387   8.375   7.043
20283WAT     H161091   3.353   8.389   7.136
20283WAT     H261092   3.316   8.330   6.988
20284WAT      O61093   4.402   2.589   4.719
20284WAT     H161094   4.330   2.549   4.777
20284WAT     H261095   4.474   2.626   4.777
20285WAT      O61096   0.962   6.593   6.967
20285WAT     H161097   1.059   6.600   6.991
20285WAT     H261098   0.906   6.628   7.042
20286WAT      O61099   8.035   4.841   0.638
20286WAT     H161100   8.121   4.813   0.680
20286WAT     H261101   7.989   4.761   0.599
20287WAT      O61102   3.193   1.069   1.310
20287WAT     H161103   3.207   0.988   1.368
20287WAT     H261104   3.280   1.117   1.298
20288WAT      O61105   8.276   4.298   6.152
20288WAT     H161106   8.262   4.253   6.064
20288WAT     H261107   8.251   4.394   6.145
20289WAT      O61108   5.398   0.518   2.522
20289WAT     H161109   5.395   0.576   2.603
20289WAT     H261110   5.313   0.528   2.470
20290WAT      O61111   1.086   1.391   9.040
20290WAT     H161112   1.155   1.363   9.106
20290WAT     H261113   1.119   1.374   8.947
20291WAT      O61114   8.470   4.397   2.867
20291WAT     H161115   8.396   4.461   2.887
20291WAT     H261116   8.499   4.352   2.952
20292WAT      O61117   6.123   5.844   7.674
20292WAT     H161118   6.042   5.796   7.642
20292WAT     H261119   6.156   5.801   7.759
20293WAT      O61120   0.541   9.508   0.389
20293WAT     H161121   0.581   9.428   0.345
20293WAT     H261122   0.510   9.573   0.319
20294WAT      O61123   0.980   4.143   3.745
20294WAT     H161124   0.984   4.220   3.809
20294WAT     H261125   0.998   4.058   3.794
20295WAT      O61126   9.792   1.615   0.571
20295WAT     H161127   9.758   1.709   0.576
20295WAT     H261128   9.732   1.555   0.623
20296WAT      O61129   1.338   6.115   2.405
20296WAT     H161130   1.264   6.067   2.452
20296WAT     H261131   1.412   6.132   2.469
20297WAT      O61132   4.047   5.165   8.917
20297WAT     H161133   4.036   5.067   8.902
20297WAT     H261134   3.959   5.204   8.945
20298WAT      O61135   5.384   3.328   1.278
20298WAT     H161136   5.372   3.246   1.334
20298WAT     H261137   5.421   3.301   1.189
20299WAT      O61138   1.456   2.023   3.941
20299WAT     H161139   1.513   2.018   4.023
20299WAT     H261140   1.431   2.119   3.924
20300WAT      O61141   5.677   2.208   9.304
20300WAT     H161142   5.735   2.289   9.312
20300WAT     H261143   5.587   2.235   9.271
20301WAT      O61144   6.800   1.062   3.774
20301WAT     H161145   6.778   1.007   3.693
20301WAT     H261146   6.746   1.030   3.852
20302WAT      O61147   1.431   5.556   1.164
20302WAT     H161148   1.529   5.572   1.180
20302WAT     H261149   1.383   5.551   1.252
20303WAT      O61150   7.991   6.873   5.439
20303WAT     H161151   8.089   6.862   5.450
20303WAT     H261152   7.972   6.958   5.389
20304WAT      O61153   1.270   1.460   0.030
20304WAT     H161154   1.290   1.457  -0.068
20304WAT     H261155   1.202   1.531   0.048
20305WAT      O61156   4.025   9.289   8.851
20305WAT     H161157   3.975   9.376   8.850
20305WAT     H261158   4.061   9.271   8.759
20306WAT      O61159   3.442   5.855   5.661
20306WAT     H161160   3.454   5.847   5.562
20306WAT     H261161   3.389   5.777   5.694
20307WAT      O61162   2.105   0.012   5.507
20307WAT     H161163   2.025   0.067   5.530
20307WAT     H261164   2.182   0.073   5.487
20308WAT      O61165   0.620   5.167   6.364
20308WAT     H161166   0.639   5.131   6.456
20308WAT     H261167   0.671   5.252   6.351
20309WAT      O61168   4.087   5.830   0.611
20309WAT     H161169   4.131   5.862   0.695
20309WAT     H261170   4.053   5.908   0.560
20310WAT      O61171   8.554   7.563   7.351
20310WAT     H161172   8.525   7.521   7.437
20310WAT     H261173   8.568   7.491   7.282
20311WAT      O61174   0.406   0.035   5.842
20311WAT     H161175   0.367   0.078   5.924
20311WAT     H261176   0.503   0.015   5.857
20312WAT      O61177   9.586   3.438   9.362
20312WAT     H161178   9.653   3.494   9.412
20312WAT     H261179   9.502   3.430   9.415
20313WAT      O61180   5.164   5.598   2.856
20313WAT     H161181   5.197   5.517   2.904
20313WAT     H261182   5.203   5.600   2.764
20314WAT      O61183   8.194   5.645   7.177
20314WAT     H161184   8.126   5.694   7.233
20314WAT     H261185   8.285   5.682   7.197
20315WAT      O61186   5.952   6.997   1.934
20315WAT     H161187   5.978   7.073   1.875
20315WAT     H261188   6.033   6.945   1.960
20316WAT      O61189   2.186   1.205   9.626
20316WAT     H161190   2.101   1.252   9.600
20316WAT     H261191   2.222   1.247   9.709
20317WAT      O61192   0.835   8.119   3.997
20317WAT     H161193   0.908   8.182   4.022
20317WAT     H261194   0.789   8.086   4.079
20318WAT      O61195   2.729   8.564   0.704
20318WAT     H161196   2.733   8.657   0.669
20318WAT     H261197   2.643   8.521   0.674
20319WAT      O61198   1.516   5.538   2.232
20319WAT     H161199   1.586   5.562   2.165
20319WAT     H261200   1.520   5.601   2.310
20320WAT      O61201   9.037   7.563   9.254
20320WAT     H161202   9.085   7.500   9.316
20320WAT     H261203   8.941   7.536   9.248
20321WAT      O61204   0.377   0.183   2.001
20321WAT     H161205   0.406   0.222   1.913
20321WAT     H261206   0.452   0.130   2.040
20322WAT      O61207   4.645   1.317   1.885
20322WAT     H161208   4.686   1.342   1.973
20322WAT     H261209   4.553   1.280   1.901
20323WAT      O61210   0.236   9.818   2.213
20323WAT     H161211   0.329   9.854   2.210
20323WAT     H261212   0.173   9.887   2.178
20324WAT      O61213   6.215   4.894   2.308
20324WAT     H161214   6.206   4.990   2.335
20324WAT     H261215   6.231   4.838   2.389
20325WAT      O61216   0.698   3.751   2.080
20325WAT     H161217   0.730   3.662   2.114
20325WAT     H261218   0.739   3.823   2.135
20326WAT      O61219   4.163   4.318   3.324
20326WAT     H161220   4.071   4.322   3.284
20326WAT     H261221   4.156   4.327   3.424
20327WAT      O61222   5.809   3.961   1.035
20327WAT     H161223   5.800   3.999   0.943
20327WAT     H261224   5.758   3.876   1.042
20328WAT      O61225   3.782   9.676   9.392
20328WAT     H161226   3.734   9.656   9.478
20328WAT     H261227   3.843   9.600   9.370
20329WAT      O61228   3.464   1.636   2.738
20329WAT     H161229   3.472   1.661   2.641
20329WAT     H261230   3.544   1.583   2.765
20330WAT      O61231   0.302   3.459   3.305
20330WAT     H161232   0.351   3.546   3.295
20330WAT     H261233   0.365   3.383   3.288
20331WAT      O61234   1.560   5.248   7.566
20331WAT     H161235   1.606   5.211   7.485
20331WAT     H261236   1.620   5.238   7.646
20332WAT      O61237   5.645   0.970   4.361
20332WAT     H161238   5.562   0.984   4.415
20332WAT     H261239   5.664   1.052   4.307
20333WAT      O61240   0.067   4.813   5.141
20333WAT     H161241  -0.005   4.867   5.097
20333WAT     H261242   0.120   4.765   5.072
20334WAT      O61243   4.416   2.848   9.210
20334WAT     H161244   4.321   2.822   9.226
20334WAT     H261245   4.423   2.897   9.123
20335WAT      O61246   1.348   4.368   7.132
20335WAT     H161247   1.273   4.380   7.066
20335WAT     H261248   1.419   4.436   7.114
20336WAT      O61249   6.707   3.553   7.802
20336WAT     H161250   6.806   3.563   7.810
20336WAT     H261251   6.687   3.476   7.741
20337WAT      O61252   2.634   1.018   9.775
20337WAT     H161253   2.672   1.106   9.803
20337WAT     H261254   2.594   1.027   9.683
20338WAT      O61255   9.355   7.133   3.507
20338WAT     H161256   9.428   7.199   3.526
20338WAT     H261257   9.310   7.158   3.422
20339WAT      O61258   6.455   9.493   0.375
20339WAT     H161259   6.438   9.557   0.450
20339WAT     H261260   6.398   9.518   0.297
20340WAT      O61261   4.103   1.816   6.044
20340WAT     H161262   4.126   1.880   5.970
20340WAT     H261263   4.116   1.723   6.011
20341WAT      O61264   5.572   8.578   1.975
20341WAT     H161265   5.478   8.568   1.943
20341WAT     H261266   5.614   8.657   1.930
20342WAT      O61267   7.216   9.419   7.231
20342WAT     H161268   7.227   9.515   7.204
20342WAT     H261269   7.150   9.375   7.171
20343WAT      O61270   5.283   9.768   9.447
20343WAT     H161271   5.286   9.715   9.362
20343WAT     H261272   5.325   9.714   9.521
20344WAT      O61273   7.947   3.058   7.933
20344WAT     H161274   8.011   3.013   7.996
20344WAT     H261275   7.999   3.113   7.868
20345WAT      O61276   4.451   5.019   4.000
20345WAT     H161277   4.513   4.941   4.009
20345WAT     H261278   4.374   4.994   3.940
20346WAT      O61279   1.262   9.129   7.025
20346WAT     H161280   1.190   9.142   7.093
20346WAT     H261281   1.245   9.044   6.975
20347WAT      O61282   2.698   5.801   4.847
20347WAT     H161283   2.746   5.847   4.922
20347WAT     H261284   2.613   5.761   4.882
20348WAT      O61285   8.178   8.454   7.547
20348WAT     H161286   8.104   8.401   7.589
20348WAT     H261287   8.251   8.468   7.613
20349WAT      O61288   7.354   4.583   0.627
20349WAT     H161289   7.386   4.495   0.594
20349WAT     H261290   7.413   4.656   0.592
20350WAT      O61291   4.974   2.998   2.706
20350WAT     H161292   4.963   2.965   2.612
20350WAT     H261293   4.889   2.982   2.757
20351WAT      O61294   0.568   2.669   9.009
20351WAT     H161295   0.595   2.720   8.927
20351WAT     H261296   0.483   2.620   8.991
20352WAT      O61297   3.459   4.265   0.172
20352WAT     H161298   3.435   4.197   0.102
20352WAT     H261299   3.453   4.357   0.132
20353WAT      O61300   2.954   9.071   2.238
20353WAT     H161301   2.871   9.049   2.188
20353WAT     H261302   3.023   9.000   2.220
20354WAT      O61303   1.148   2.016   2.283
20354WAT     H161304   1.061   2.000   2.236
20354WAT     H261305   1.218   1.956   2.244
20355WAT      O61306   3.285   7.179   8.661
20355WAT     H161307   3.308   7.264   8.707
20355WAT     H261308   3.259   7.110   8.728
20356WAT      O61309   0.721   1.862   4.010
20356WAT     H161310   0.805   1.912   3.989
20356WAT     H261311   0.744   1.773   4.050
20357WAT      O61312   2.867   6.594   5.235
20357WAT     H161313   2.858   6.499   5.205
20357WAT     H261314   2.799   6.613   5.305
20358WAT      O61315   6.674   0.576   5.205
20358WAT     H161316   6.724   0.557   5.121
20358WAT     H261317   6.641   0.490   5.244
20359WAT      O61318   3.832   8.206   9.575
20359WAT     H161319   3.799   8.111   9.582
20359WAT     H261320   3.822   8.237   9.481
20360WAT      O61321   6.395   5.129   3.461
20360WAT     H161322   6.394   5.151   3.364
20360WAT     H261323   6.342   5.198   3.511
20361WAT      O61324   5.085   0.184   4.217
20361WAT     H161325   5.031   0.243   4.157
20361WAT     H261326   5.084   0.091   4.182
20362WAT      O61327   6.896   7.068   7.445
20362WAT     H161328   6.912   7.167   7.450
20362WAT     H261329   6.950   7.030   7.370
20363WAT      O61330   7.810   8.591   5.839
20363WAT     H161331   7.764   8.678   5.821
20363WAT     H261332   7.781   8.523   5.771
20364WAT      O61333   7.288   9.297   3.443
20364WAT     H161334   7.271   9.200   3.458
20364WAT     H261335   7.384   9.310   3.419
20365WAT      O61336   6.047   7.151   1.310
20365WAT     H161337   6.076   7.110   1.224
20365WAT     H261338   5.956   7.118   1.335
20366WAT      O61339   2.287   4.396   2.472
20366WAT     H161340   2.197   4.440   2.471
20366WAT     H261341   2.340   4.429   2.394
20367WAT      O61342   3.297   7.018   2.320
20367WAT     H161343   3.301   7.096   2.383
20367WAT     H261344   3.327   6.936   2.367
20368WAT      O61345   0.634   2.542   7.745
20368WAT     H161346   0.588   2.459   7.714
20368WAT     H261347   0.646   2.604   7.668
20369WAT      O61348   9.701   8.670   2.088
20369WAT     H161349   9.733   8.730   2.161
20369WAT     H261350   9.620   8.709   2.045
20370WAT      O61351   5.142   5.080   1.213
20370WAT     H161352   5.223   5.139   1.220
20370WAT     H261353   5.122   5.065   1.116
20371WAT      O61354   7.162   8.660   2.563
20371WAT     H161355   7.144   8.627   2.470
20371WAT     H261356   7.187   8.584   2.621
20372WAT      O61357   1.853   0.734   3.338
20372WAT     H161358   1.824   0.745   3.243
20372WAT     H261359   1.943   0.691   3.341
20373WAT      O61360   4.083   7.053   5.435
20373WAT     H161361   4.010   7.073   5.501
20373WAT     H261362   4.093   7.129   5.372
20374WAT      O61363   2.460   8.913   4.597
20374WAT     H161364   2.500   8.987   4.544
20374WAT     H261365   2.508   8.827   4.576
20375WAT      O61366   0.054   5.388   5.913
20375WAT     H161367   0.081   5.472   5.960
20375WAT     H261368   0.051   5.312   5.979
20376WAT      O61369   2.956   3.177   2.695
20376WAT     H161370   2.871   3.169   2.748
20376WAT     H261371   3.024   3.114   2.731
20377WAT      O61372   8.447   9.133   9.309
20377WAT     H161373   8.512   9.160   9.379
20377WAT     H261374   8.407   9.215   9.267
20378WAT      O61375   7.720   8.677   5.061
20378WAT     H161376   7.645   8.740   5.082
20378WAT     H261377   7.806   8.729   5.054
20379WAT      O61378   9.505   5.704   3.630
20379WAT     H161379   9.444   5.762   3.576
20379WAT     H261380   9.594   5.697   3.585
20380WAT      O61381   6.753   1.232   0.565
20380WAT     H161382   6.840   1.279   0.552
20380WAT     H261383   6.764   1.134   0.549
20381WAT      O61384   6.605   0.459   9.347
20381WAT     H161385   6.687   0.463   9.405
20381WAT     H261386   6.623   0.508   9.261
20382WAT      O61387   7.927   5.644   7.563
20382WAT     H161388   7.904   5.636   7.660
20382WAT     H261389   8.004   5.707   7.551
20383WAT      O61390   5.156   8.273   4.034
20383WAT     H161391   5.212   8.301   4.112
20383WAT     H261392   5.182   8.181   4.005
20384WAT      O61393   7.556   0.346   0.807
20384WAT     H161394   7.591   0.287   0.734
20384WAT     H261395   7.511   0.291   0.876
20385WAT      O61396   4.589   5.176   5.337
20385WAT     H161397   4.608   5.078   5.334
20385WAT     H261398   4.567   5.210   5.246
20386WAT      O61399   4.920   7.448   2.018
20386WAT     H161400   4.998   7.434   1.956
20386WAT     H261401   4.845   7.489   1.967
20387WAT      O61402   5.523   7.022   2.092
20387WAT     H161403   5.504   7.015   1.994
20387WAT     H261404   5.491   7.110   2.126
20388WAT      O61405   3.201   2.763   4.399
20388WAT     H161406   3.157   2.819   4.329
20388WAT     H261407   3.231   2.821   4.475
20389WAT      O61408   3.047   3.443   6.060
20389WAT     H161409   3.075   3.539   6.059
20389WAT     H261410   2.948   3.437   6.063
20390WAT      O61411   2.451   5.739   2.843
20390WAT     H161412   2.465   5.720   2.940
20390WAT     H261413   2.370   5.796   2.831
20391WAT      O61414   6.511   8.872   2.486
20391WAT     H161415   6.513   8.848   2.583
20391WAT     H261416   6.593   8.838   2.441
20392WAT      O61417   0.130   4.956   4.382
20392WAT     H161418   0.211   4.902   4.403
20392WAT     H261419   0.127   5.037   4.441
20393WAT      O61420   3.892   1.217   9.500
20393WAT     H161421   3.826   1.198   9.427
20393WAT     H261422   3.985   1.208   9.464
20394WAT      O61423   0.759   1.090   5.763
20394WAT     H161424   0.748   0.995   5.793
20394WAT     H261425   0.671   1.136   5.764
20395WAT      O61426   4.462   2.874   6.056
20395WAT     H161427   4.530   2.834   5.994
20395WAT     H261428   4.507   2.902   6.141
20396WAT      O61429   6.351   2.227   1.018
20396WAT     H161430   6.396   2.266   0.938
20396WAT     H261431   6.295   2.149   0.990
20397WAT      O61432   3.473   1.267   5.278
20397WAT     H161433   3.561   1.289   5.319
20397WAT     H261434   3.451   1.171   5.296
20398WAT      O61435   5.238   6.083   0.384
20398WAT     H161436   5.214   6.147   0.457
20398WAT     H261437   5.294   6.009   0.423
20399WAT      O61438   6.066   9.117   8.288
20399WAT     H161439   5.980   9.076   8.259
20399WAT     H261440   6.048   9.191   8.353
20400WAT      O61441   3.640   3.325   4.632
20400WAT     H161442   3.662   3.419   4.606
20400WAT     H261443   3.615   3.324   4.729
20401WAT      O61444   4.841   0.414   9.574
20401WAT     H161445   4.764   0.445   9.630
20401WAT     H261446   4.879   0.331   9.614
20402WAT      O61447   0.116   5.426   4.828
20402WAT     H161448   0.215   5.414   4.824
20402WAT     H261449   0.071   5.352   4.778
20403WAT      O61450   6.097   5.077   4.671
20403WAT     H161451   6.126   5.171   4.653
20403WAT     H261452   6.117   5.053   4.766
20404WAT      O61453   3.619   7.728   7.528
20404WAT     H161454   3.694   7.695   7.471
20404WAT     H261455   3.538   7.743   7.471
20405WAT      O61456   7.989   1.224   5.986
20405WAT     H161457   8.045   1.252   6.064
20405WAT     H261458   8.048   1.187   5.914
20406WAT      O61459   4.942   7.779   2.650
20406WAT     H161460   4.852   7.791   2.609
20406WAT     H261461   4.999   7.723   2.590
20407WAT      O61462   7.504   1.923   7.895
20407WAT     H161463   7.405   1.931   7.907
20407WAT     H261464   7.530   1.826   7.895
20408WAT      O61465   3.574   8.846   4.922
20408WAT     H161466   3.634   8.848   5.002
20408WAT     H261467   3.479   8.838   4.952
20409WAT      O61468   3.531   1.778   8.026
20409WAT     H161469   3.546   1.839   7.948
20409WAT     H261470   3.618   1.738   8.054
20410WAT      O61471   4.469   3.203   5.929
20410WAT     H161472   4.452   3.181   6.025
20410WAT     H261473   4.448   3.300   5.913
20411WAT      O61474   1.546   4.620   6.565
20411WAT     H161475   1.457   4.592   6.529
20411WAT     H261476   1.599   4.540   6.590
20412WAT      O61477   3.234   2.674   0.012
20412WAT     H161478   3.139   2.689   0.040
20412WAT     H261479   3.236   2.611  -0.066
20413WAT      O61480   6.400   5.188   0.714
20413WAT     H161481   6.421   5.093   0.689
20413WAT     H261482   6.340   5.229   0.645
20414WAT      O61483   3.196   1.976   1.909
20414WAT     H161484   3.100   2.003   1.907
20414WAT     H261485   3.223   1.955   2.003
20415WAT      O61486   6.807   9.008   7.046
20415WAT     H161487   6.777   9.104   7.047
20415WAT     H261488   6.906   9.005   7.035
20416WAT      O61489   1.797   6.656   3.575
20416WAT     H161490   1.820   6.643   3.479
20416WAT     H261491   1.781   6.567   3.618
20417WAT      O61492   7.659   7.104   0.577
20417WAT     H161493   7.754   7.080   0.558
20417WAT     H261494   7.630   7.064   0.663
20418WAT      O61495   0.855   1.902   8.638
20418WAT     H161496   0.768   1.882   8.593
20418WAT     H261497   0.839   1.928   8.733
20419WAT      O61498   3.454   1.810   7.379
20419WAT     H161499   3.532   1.861   7.415
20419WAT     H261500   3.374   1.869   7.373
20420WAT      O61501   2.168   5.022   5.296
20420WAT     H161502   2.205   5.115   5.300
20420WAT     H261503   2.236   4.961   5.257
20421WAT      O61504   3.089   0.398   0.669
20421WAT     H161505   3.100   0.410   0.570
20421WAT     H261506   3.049   0.308   0.687
20422WAT      O61507   1.759   6.067   9.189
20422WAT     H161508   1.690   6.011   9.144
20422WAT     H261509   1.780   6.029   9.279
20423WAT      O61510   4.170   6.634   7.650
20423WAT     H161511   4.080   6.671   7.676
20423WAT     H261512   4.230   6.709   7.621
20424WAT      O61513   3.366   0.871   1.762
20424WAT     H161514   3.409   0.868   1.852
20424WAT     H261515   3.283   0.815   1.763
20425WAT      O61516   4.917   5.546   7.839
20425WAT     H161517   4.901   5.558   7.937
20425WAT     H261518   5.009   5.511   7.824
20426WAT      O61519   2.481   2.767   2.734
20426WAT     H161520   2.418   2.737   2.806
20426WAT     H261521   2.570   2.723   2.748
20427WAT      O61522   0.030   5.339   2.764
20427WAT     H161523  -0.046   5.287   2.726
20427WAT     H261524   0.011   5.437   2.753
20428WAT      O61525   3.110   5.844   9.261
20428WAT     H161526   3.135   5.890   9.176
20428WAT     H261527   3.067   5.910   9.323
20429WAT      O61528   0.295   2.847   8.023
20429WAT     H161529   0.240   2.915   7.974
20429WAT     H261530   0.283   2.859   8.121
20430WAT      O61531   7.537   7.304   3.057
20430WAT     H161532   7.511   7.334   2.965
20430WAT     H261533   7.488   7.220   3.080
20431WAT      O61534   2.902   4.835   1.850
20431WAT     H161535   2.923   4.870   1.758
20431WAT     H261536   2.890   4.912   1.913
20432WAT      O61537   1.095   8.013   8.982
20432WAT     H161538   1.099   8.001   9.081
20432WAT     H261539   1.000   8.024   8.953
20433WAT      O61540   8.190   2.677   4.175
20433WAT     H161541   8.130   2.640   4.246
20433WAT     H261542   8.190   2.615   4.096
20434WAT      O61543   6.455   0.911   7.876
20434WAT     H161544   6.510   0.938   7.956
20434WAT     H261545   6.403   0.989   7.844
20435WAT      O61546   4.619   5.828   6.061
20435WAT     H161547   4.648   5.901   6.000
20435WAT     H261548   4.540   5.859   6.115
20436WAT      O61549   7.365   4.578   1.852
20436WAT     H161550   7.363   4.556   1.755
20436WAT     H261551   7.313   4.510   1.903
20437WAT      O61552   7.253   3.808   7.183
20437WAT     H161553   7.349   3.782   7.196
20437WAT     H261554   7.195   3.729   7.204
20438WAT      O61555   3.163   6.858   0.532
20438WAT     H161556   3.075   6.904   0.516
20438WAT     H261557   3.171   6.836   0.630
20439WAT      O61558   5.643   2.750   1.642
20439WAT     H161559   5.656   2.653   1.619
20439WAT     H261560   5.576   2.791   1.580
20440WAT      O61561   9.721   0.883   5.710
20440WAT     H161562   9.698   0.812   5.777
20440WAT     H261563   9.720   0.972   5.755
20441WAT      O61564   4.242   9.069   6.279
20441WAT     H161565   4.328   9.106   6.242
20441WAT     H261566   4.170   9.138   6.269
20442WAT      O61567   5.186   4.711   6.112
20442WAT     H161568   5.166   4.793   6.166
20442WAT     H261569   5.153   4.725   6.018
20443WAT      O61570   4.684   8.834   0.364
20443WAT     H161571   4.661   8.853   0.268
20443WAT     H261572   4.627   8.891   0.424
20444WAT      O61573   9.066   2.052   9.126
20444WAT     H161574   9.135   2.072   9.196
20444WAT     H261575   9.028   1.961   9.141
20445WAT      O61576   3.611   7.563   8.200
20445WAT     H161577   3.587   7.476   8.158
20445WAT     H261578   3.534   7.627   8.193
20446WAT      O61579   0.467   6.384   9.454
20446WAT     H161580   0.441   6.471   9.496
20446WAT     H261581   0.385   6.330   9.438
20447WAT      O61582   4.115   1.722   3.674
20447WAT     H161583   4.039   1.676   3.628
20447WAT     H261584   4.177   1.653   3.713
20448WAT      O61585   8.820   2.953   5.379
20448WAT     H161586   8.750   2.881   5.383
20448WAT     H261587   8.783   3.032   5.331
20449WAT      O61588   6.920   8.473   1.337
20449WAT     H161589   6.894   8.486   1.433
20449WAT     H261590   7.001   8.529   1.316
20450WAT      O61591   9.461   4.956   0.770
20450WAT     H161592   9.517   4.876   0.753
20450WAT     H261593   9.516   5.039   0.757
20451WAT      O61594   0.652   5.539   9.729
20451WAT     H161595   0.683   5.606   9.797
20451WAT     H261596   0.703   5.454   9.740
20452WAT      O61597   2.784   7.871   1.267
20452WAT     H161598   2.728   7.873   1.350
20452WAT     H261599   2.725   7.870   1.187
20453WAT      O61600   3.020   9.316   0.979
20453WAT     H161601   3.012   9.403   0.929
20453WAT     H261602   2.933   9.295   1.023
20454WAT      O61603   6.526   9.282   5.441
20454WAT     H161604   6.619   9.314   5.426
20454WAT     H261605   6.523   9.182   5.431
20455WAT      O61606   5.650   7.805   0.157
20455WAT     H161607   5.622   7.712   0.135
20455WAT     H261608   5.713   7.804   0.234
20456WAT      O61609   8.889   3.101   1.365
20456WAT     H161610   8.886   3.095   1.266
20456WAT     H261611   8.982   3.084   1.397
20457WAT      O61612   7.697   6.350   0.486
20457WAT     H161613   7.641   6.431   0.473
20457WAT     H261614   7.791   6.369   0.457
20458WAT      O61615   4.679   6.584   4.402
20458WAT     H161616   4.765   6.533   4.412
20458WAT     H261617   4.624   6.573   4.485
20459WAT      O61618   9.243   4.318   3.457
20459WAT     H161619   9.157   4.332   3.506
20459WAT     H261620   9.230   4.245   3.389
20460WAT      O61621   5.500   7.086   5.776
20460WAT     H161622   5.443   7.168   5.782
20460WAT     H261623   5.542   7.081   5.685
20461WAT      O61624   3.347   4.451   4.995
20461WAT     H161625   3.401   4.521   5.040
20461WAT     H261626   3.330   4.375   5.058
20462WAT      O61627   7.297   1.343   5.086
20462WAT     H161628   7.364   1.340   5.160
20462WAT     H261629   7.217   1.289   5.110
20463WAT      O61630   2.616   3.813   4.607
20463WAT     H161631   2.660   3.900   4.629
20463WAT     H261632   2.685   3.740   4.605
20464WAT      O61633   5.810   3.506   1.937
20464WAT     H161634   5.862   3.485   1.854
20464WAT     H261635   5.720   3.541   1.912
20465WAT      O61636   7.263   0.219   3.711
20465WAT     H161637   7.185   0.242   3.769
20465WAT     H261638   7.321   0.299   3.699
20466WAT      O61639   1.643   8.026   3.239
20466WAT     H161640   1.655   8.015   3.338
20466WAT     H261641   1.615   8.120   3.220
20467WAT      O61642   1.538   9.357   5.280
20467WAT     H161643   1.570   9.411   5.202
20467WAT     H261644   1.589   9.271   5.285
20468WAT      O61645   6.537   1.333   7.202
20468WAT     H161646   6.473   1.257   7.211
20468WAT     H261647   6.495   1.417   7.237
20469WAT      O61648   0.900   0.090   1.183
20469WAT     H161649   0.951   0.167   1.221
20469WAT     H261650   0.890   0.101   1.084
20470WAT      O61651   7.299   5.443   9.354
20470WAT     H161652   7.259   5.438   9.446
20470WAT     H261653   7.299   5.353   9.312
20471WAT      O61654   9.562   7.887   8.359
20471WAT     H161655   9.476   7.891   8.411
20471WAT     H261656   9.598   7.980   8.348
20472WAT      O61657   2.894   3.234   1.666
20472WAT     H161658   2.922   3.161   1.729
20472WAT     H261659   2.928   3.322   1.700
20473WAT      O61660   8.566   6.809   9.043
20473WAT     H161661   8.546   6.839   8.950
20473WAT     H261662   8.524   6.871   9.109
20474WAT      O61663   4.097   4.310   0.827
20474WAT     H161664   4.087   4.277   0.921
20474WAT     H261665   4.147   4.242   0.773
20475WAT      O61666   0.734   5.713   4.806
20475WAT     H161667   0.798   5.646   4.844
20475WAT     H261668   0.753   5.726   4.709
20476WAT      O61669   9.083   3.953   4.516
20476WAT     H161670   9.171   3.983   4.481
20476WAT     H261671   9.037   4.030   4.561
20477WAT      O61672   1.277   8.112   7.050
20477WAT     H161673   1.251   8.064   7.133
20477WAT     H261674   1.346   8.059   7.000
20478WAT      O61675   1.949   2.085   2.445
20478WAT     H161676   2.026   2.131   2.400
20478WAT     H261677   1.913   2.142   2.518
20479WAT      O61678   8.746   8.422   0.832
20479WAT     H161679   8.743   8.471   0.745
20479WAT     H261680   8.819   8.354   0.830
20480WAT      O61681   5.020   1.548   0.240
20480WAT     H161682   5.045   1.458   0.203
20480WAT     H261683   5.065   1.562   0.328
20481WAT      O61684   9.503   8.530   0.260
20481WAT     H161685   9.592   8.490   0.239
20481WAT     H261686   9.436   8.457   0.273
20482WAT      O61687   0.825   7.675   2.304
20482WAT     H161688   0.771   7.642   2.226
20482WAT     H261689   0.763   7.713   2.373
20483WAT      O61690   9.502   1.731   0.406
20483WAT     H161691   9.515   1.780   0.492
20483WAT     H261692   9.444   1.651   0.421
20484WAT      O61693   0.607   3.892   0.830
20484WAT     H161694   0.659   3.808   0.815
20484WAT     H261695   0.602   3.911   0.928
20485WAT      O61696   1.416   7.601   2.120
20485WAT     H161697   1.469   7.522   2.089
20485WAT     H261698   1.412   7.669   2.047
20486WAT      O61699   6.944   5.943   3.019
20486WAT     H161700   7.021   5.907   3.072
20486WAT     H261701   6.961   6.040   3.000
20487WAT      O61702   8.413   0.980   3.580
20487WAT     H161703   8.392   0.883   3.587
20487WAT     H261704   8.383   1.027   3.663
20488WAT      O61705   8.841   3.113   1.849
20488WAT     H161706   8.900   3.062   1.910
20488WAT     H261707   8.778   3.170   1.903
20489WAT      O61708   6.905   0.631   1.320
20489WAT     H161709   6.949   0.546   1.350
20489WAT     H261710   6.909   0.637   1.220
20490WAT      O61711   0.599   1.299   3.329
20490WAT     H161712   0.618   1.276   3.424
20490WAT     H261713   0.609   1.398   3.316
20491WAT      O61714   0.656   2.664   8.018
20491WAT     H161715   0.710   2.599   7.965
20491WAT     H261716   0.560   2.656   7.992
20492WAT      O61717   0.138   6.173   3.173
20492WAT     H161718   0.046   6.207   3.156
20492WAT     H261719   0.133   6.078   3.206
20493WAT      O61720   6.372   1.770   1.219
20493WAT     H161721   6.418   1.705   1.159
20493WAT     H261722   6.289   1.728   1.256
20494WAT      O61723   1.525   6.289   6.917
20494WAT     H161724   1.504   6.218   6.984
20494WAT     H261725   1.446   6.349   6.905
20495WAT      O61726   9.365   7.536   5.044
20495WAT     H161727   9.463   7.556   5.053
20495WAT     H261728   9.314   7.621   5.044
20496WAT      O61729   3.386   6.015   6.067
20496WAT     H161730   3.323   5.993   6.141
20496WAT     H261731   3.344   6.083   6.007
20497WAT      O61732   9.535   1.340   3.137
20497WAT     H161733   9.464   1.377   3.076
20497WAT     H261734   9.622   1.386   3.118
20498WAT      O61735   5.923   3.650   3.336
20498WAT     H161736   5.929   3.735   3.388
20498WAT     H261737   6.013   3.606   3.334
20499WAT      O61738   7.934   9.460   0.721
20499WAT     H161739   7.906   9.386   0.781
20499WAT     H261740   7.859   9.481   0.657
20500WAT      O61741   9.218   9.431   2.178
20500WAT     H161742   9.192   9.501   2.111
20500WAT     H261743   9.212   9.470   2.270
20501WAT      O61744   2.882   0.424   7.339
20501WAT     H161745   2.902   0.508   7.389
20501WAT     H261746   2.845   0.447   7.249
20502WAT      O61747   9.064   4.493   5.050
20502WAT     H161748   9.117   4.412   5.027
20502WAT     H261749   9.116   4.551   5.112
20503WAT      O61750   7.663   2.131   0.632
20503WAT     H161751   7.710   2.153   0.546
20503WAT     H261752   7.729   2.133   0.707
20504WAT      O61753   8.605   3.109   6.239
20504WAT     H161754   8.529   3.049   6.262
20504WAT     H261755   8.691   3.063   6.262
20505WAT      O61756   7.815   9.060   0.723
20505WAT     H161757   7.752   9.053   0.646
20505WAT     H261758   7.904   9.023   0.697
20506WAT      O61759   2.630   4.035   8.001
20506WAT     H161760   2.634   4.119   7.947
20506WAT     H261761   2.590   4.055   8.091
20507WAT      O61762   8.752   0.084   6.196
20507WAT     H161763   8.849   0.099   6.176
20507WAT     H261764   8.707   0.047   6.115
20508WAT      O61765   5.795   0.911   0.405
20508WAT     H161766   5.705   0.943   0.375
20508WAT     H261767   5.866   0.969   0.367
20509WAT      O61768   4.634   3.390   2.647
20509WAT     H161769   4.648   3.393   2.548
20509WAT     H261770   4.544   3.350   2.667
20510WAT      O61771   4.512   8.980   3.077
20510WAT     H161772   4.586   8.968   3.142
20510WAT     H261773   4.548   8.976   2.984
20511WAT      O61774   7.608   2.351   4.873
20511WAT     H161775   7.539   2.399   4.927
20511WAT     H261776   7.593   2.369   4.775
20512WAT      O61777   3.403   2.690   2.793
20512WAT     H161778   3.379   2.766   2.853
20512WAT     H261779   3.401   2.604   2.844
20513WAT      O61780   4.957   2.487   3.438
20513WAT     H161781   4.912   2.465   3.524
20513WAT     H261782   4.998   2.578   3.444
20514WAT      O61783   1.001   2.604   2.389
20514WAT     H161784   0.987   2.601   2.488
20514WAT     H261785   1.034   2.694   2.363
20515WAT      O61786   6.632   7.798   7.865
20515WAT     H161787   6.729   7.823   7.871
20515WAT     H261788   6.623   7.699   7.856
20516WAT      O61789   3.152   3.059   2.835
20516WAT     H161790   3.213   3.138   2.824
20516WAT     H261791   3.203   2.983   2.875
20517WAT      O61792   1.264   6.423   4.430
20517WAT     H161793   1.179   6.441   4.380
20517WAT     H261794   1.243   6.381   4.518
20518WAT      O61795   1.956   6.225   6.757
20518WAT     H161796   1.937   6.182   6.669
20518WAT     H261797   1.907   6.176   6.829
20519WAT      O61798   7.980   5.256   0.808
20519WAT     H161799   7.881   5.267   0.816
20519WAT     H261800   8.024   5.293   0.889
20520WAT      O61801   9.888   2.266   9.161
20520WAT     H161802   9.804   2.224   9.127
20520WAT     H261803   9.877   2.365   9.161
20521WAT      O61804   8.535   0.466   2.729
20521WAT     H161805   8.586   0.505   2.653
20521WAT     H261806   8.540   0.366   2.725
20522WAT      O61807   3.289   0.425   0.074
20522WAT     H161808   3.280   0.399  -0.022
20522WAT     H261809   3.349   0.504   0.082
20523WAT      O61810   6.030   3.030   2.834
20523WAT     H161811   5.991   3.078   2.756
20523WAT     H261812   5.977   3.051   2.917
20524WAT      O61813   6.106   9.401   7.374
20524WAT     H161814   6.097   9.303   7.359
20524WAT     H261815   6.173   9.418   7.446
20525WAT      O61816   7.648   9.749   1.868
20525WAT     H161817   7.722   9.787   1.924
20525WAT     H261818   7.684   9.728   1.777
20526WAT      O61819   7.035   5.495   8.031
20526WAT     H161820   7.088   5.572   8.067
20526WAT     H261821   7.059   5.412   8.081
20527WAT      O61822   7.316   0.350   5.704
20527WAT     H161823   7.292   0.403   5.785
20527WAT     H261824   7.238   0.347   5.641
20528WAT      O61825   6.258   1.468   8.693
20528WAT     H161826   6.164   1.446   8.719
20528WAT     H261827   6.260   1.554   8.642
20529WAT      O61828   6.468   5.855   3.212
20529WAT     H161829   6.406   5.813   3.146
20529WAT     H261830   6.418   5.874   3.297
20530WAT      O61831   6.188   6.320   5.894
20530WAT     H161832   6.240   6.248   5.847
20530WAT     H261833   6.135   6.372   5.827
20531WAT      O61834   0.856   3.351   2.463
20531WAT     H161835   0.946   3.387   2.439
20531WAT     H261836   0.791   3.426   2.472
20532WAT      O61837   9.181   7.102   2.531
20532WAT     H161838   9.101   7.087   2.589
20532WAT     H261839   9.189   7.200   2.510
20533WAT      O61840   2.863   9.306   4.071
20533WAT     H161841   2.893   9.284   3.979
20533WAT     H261842   2.764   9.303   4.076
20534WAT      O61843   2.732   3.410   7.519
20534WAT     H161844   2.694   3.431   7.610
20534WAT     H261845   2.657   3.394   7.455
20535WAT      O61846   9.571   7.033   3.997
20535WAT     H161847   9.567   7.021   3.898
20535WAT     H261848   9.494   6.987   4.040
20536WAT      O61849   4.319   6.019   1.706
20536WAT     H161850   4.240   5.983   1.754
20536WAT     H261851   4.380   5.943   1.680
20537WAT      O61852   8.160   4.260   0.232
20537WAT     H161853   8.115   4.329   0.175
20537WAT     H261854   8.187   4.183   0.175
20538WAT      O61855   9.861   8.289   2.466
20538WAT     H161856   9.945   8.274   2.519
20538WAT     H261857   9.875   8.258   2.372
20539WAT      O61858   6.870   8.905   1.683
20539WAT     H161859   6.926   8.840   1.630
20539WAT     H261860   6.788   8.859   1.716
20540WAT      O61861   3.550   2.401   3.582
20540WAT     H161862   3.514   2.433   3.494
20540WAT     H261863   3.640   2.441   3.598
20541WAT      O61864   0.417   8.714   1.388
20541WAT     H161865   0.435   8.797   1.335
20541WAT     H261866   0.436   8.731   1.484
20542WAT      O61867   0.602   9.703   0.882
20542WAT     H161868   0.572   9.793   0.913
20542WAT     H261869   0.580   9.691   0.786
20543WAT      O61870   0.743   3.077   1.185
20543WAT     H161871   0.747   3.114   1.278
20543WAT     H261872   0.693   2.990   1.186
20544WAT      O61873   1.118   0.786   7.280
20544WAT     H161874   1.110   0.702   7.226
20544WAT     H261875   1.202   0.834   7.255
20545WAT      O61876   4.342   7.303   3.154
20545WAT     H161877   4.439   7.311   3.177
20545WAT     H261878   4.317   7.378   3.092
20546WAT      O61879   3.128   2.013   3.729
20546WAT     H161880   3.064   1.974   3.796
20546WAT     H261881   3.078   2.071   3.665
20547WAT      O61882   9.108   7.255   6.210
20547WAT     H161883   9.113   7.208   6.298
20547WAT     H261884   9.100   7.187   6.137
20548WAT      O61885   3.166   0.608   4.739
20548WAT     H161886   3.202   0.598   4.832
20548WAT     H261887   3.174   0.521   4.691
20549WAT      O61888   4.825   1.733   8.874
20549WAT     H161889   4.824   1.671   8.952
20549WAT     H261890   4.753   1.802   8.885
20550WAT      O61891   6.589   2.630   4.567
20550WAT     H161892   6.550   2.694   4.633
20550WAT     H261893   6.689   2.627   4.578
20551WAT      O61894   2.867   4.319   6.783
20551WAT     H161895   2.820   4.355   6.864
20551WAT     H261896   2.860   4.219   6.784
20552WAT      O61897   4.610   5.572   5.431
20552WAT     H161898   4.513   5.565   5.408
20552WAT     H261899   4.642   5.666   5.417
20553WAT      O61900   5.818   6.074   0.964
20553WAT     H161901   5.791   6.078   0.868
20553WAT     H261902   5.788   5.988   1.004
20554WAT      O61903   9.157   7.639   2.828
20554WAT     H161904   9.201   7.602   2.910
20554WAT     H261905   9.109   7.566   2.780
20555WAT      O61906   5.264   4.841   8.242
20555WAT     H161907   5.308   4.815   8.328
20555WAT     H261908   5.165   4.832   8.251
20556WAT      O61909   7.641   5.150   5.540
20556WAT     H161910   7.571   5.188   5.601
20556WAT     H261911   7.722   5.209   5.542
20557WAT      O61912   1.728   9.569   1.109
20557WAT     H161913   1.765   9.642   1.051
20557WAT     H261914   1.629   9.580   1.118
20558WAT      O61915   4.891   9.546   9.026
20558WAT     H161916   4.880   9.591   8.937
20558WAT     H261917   4.803   9.512   9.057
20559WAT      O61918   0.101   8.569   7.478
20559WAT     H161919   0.100   8.645   7.544
20559WAT     H261920   0.027   8.582   7.412
20560WAT      O61921   1.850   2.832   4.300
20560WAT     H161922   1.908   2.908   4.269
20560WAT     H261923   1.906   2.750   4.308
20561WAT      O61924   2.042   1.517   2.656
20561WAT     H161925   2.033   1.482   2.749
20561WAT     H261926   1.951   1.538   2.619
20562WAT      O61927   6.743   5.443   8.150
20562WAT     H161928   6.831   5.445   8.103
20562WAT     H261929   6.693   5.528   8.132
20563WAT      O61930   4.817   6.021   3.190
20563WAT     H161931   4.779   5.978   3.271
20563WAT     H261932   4.783   6.115   3.183
20564WAT      O61933   1.286   7.208   9.175
20564WAT     H161934   1.264   7.290   9.121
20564WAT     H261935   1.245   7.128   9.131
20565WAT      O61936   1.332   2.422   5.758
20565WAT     H161937   1.324   2.369   5.673
20565WAT     H261938   1.243   2.430   5.801
20566WAT      O61939   4.506   3.792   7.318
20566WAT     H161940   4.418   3.757   7.287
20566WAT     H261941   4.523   3.760   7.412
20567WAT      O61942   5.801   6.859   4.015
20567WAT     H161943   5.712   6.854   4.060
20567WAT     H261944   5.814   6.951   3.976
20568WAT      O61945   0.967   4.280   6.702
20568WAT     H161946   0.903   4.352   6.678
20568WAT     H261947   1.061   4.315   6.698
20569WAT      O61948   6.623   7.721   3.698
20569WAT     H161949   6.570   7.648   3.741
20569WAT     H261950   6.593   7.809   3.735
20570WAT      O61951   9.144   4.346   1.986
20570WAT     H161952   9.218   4.302   2.036
20570WAT     H261953   9.131   4.299   1.898
20571WAT      O61954   8.385   7.969   9.016
20571WAT     H161955   8.473   7.962   8.969
20571WAT     H261956   8.317   8.007   8.954
20572WAT      O61957   3.798   6.484   0.793
20572WAT     H161958   3.867   6.531   0.738
20572WAT     H261959   3.842   6.447   0.875
20573WAT      O61960   2.948   0.082   6.458
20573WAT     H161961   3.029   0.032   6.487
20573WAT     H261962   2.883   0.089   6.534
20574WAT      O61963   1.633   4.128   3.744
20574WAT     H161964   1.559   4.062   3.740
20574WAT     H261965   1.638   4.179   3.658
20575WAT      O61966   6.510   8.360   1.005
20575WAT     H161967   6.478   8.384   0.913
20575WAT     H261968   6.593   8.411   1.026
20576WAT      O61969   5.890   1.296   1.441
20576WAT     H161970   5.859   1.204   1.415
20576WAT     H261971   5.816   1.344   1.487
20577WAT      O61972   6.328   1.997   0.255
20577WAT     H161973   6.248   2.051   0.229
20577WAT     H261974   6.363   2.030   0.343
20578WAT      O61975   1.132   1.092   6.847
20578WAT     H161976   1.216   1.039   6.838
20578WAT     H261977   1.154   1.189   6.854
20579WAT      O61978   3.180   6.350   0.350
20579WAT     H161979   3.256   6.296   0.386
20579WAT     H261980   3.145   6.306   0.267
20580WAT      O61981   2.360   6.677   8.840
20580WAT     H161982   2.278   6.631   8.808
20580WAT     H261983   2.350   6.776   8.829
20581WAT      O61984   3.014   7.806   9.302
20581WAT     H161985   2.962   7.837   9.223
20581WAT     H261986   2.955   7.756   9.365
20582WAT      O61987   2.342   1.141   3.090
20582WAT     H161988   2.410   1.214   3.102
20582WAT     H261989   2.288   1.133   3.174
20583WAT      O61990   7.545   9.034   0.300
20583WAT     H161991   7.540   8.993   0.209
20583WAT     H261992   7.456   9.075   0.323
20584WAT      O61993   1.101   1.797   6.626
20584WAT     H161994   1.128   1.893   6.617
20584WAT     H261995   1.160   1.752   6.693
20585WAT      O61996   3.316   7.196   3.396
20585WAT     H161997   3.299   7.157   3.487
20585WAT     H261998   3.412   7.182   3.371
20586WAT      O61999   3.169   1.898   6.545
20586WAT     H162000   3.193   1.967   6.476
20586WAT     H262001   3.099   1.935   6.606
20587WAT      O62002   7.027   4.749   0.561
20587WAT     H162003   7.002   4.684   0.489
20587WAT     H262004   7.009   4.709   0.650
20588WAT      O62005   9.889   6.939   2.698
20588WAT     H162006   9.940   6.916   2.781
20588WAT     H262007   9.809   6.993   2.722
20589WAT      O62008   3.639   5.758   5.849
20589WAT     H162009   3.734   5.787   5.839
20589WAT     H262010   3.582   5.808   5.783
20590WAT      O62011   5.282   0.990   0.936
20590WAT     H162012   5.312   0.929   0.863
20590WAT     H262013   5.268   0.938   1.020
20591WAT      O62014   5.413   6.465   5.847
20591WAT     H162015   5.466   6.393   5.803
20591WAT     H262016   5.325   6.427   5.878
20592WAT      O62017   5.017   6.035   9.630
20592WAT     H162018   5.081   5.966   9.662
20592WAT     H262019   5.016   6.112   9.694
20593WAT      O62020   9.240   4.970   1.727
20593WAT     H162021   9.254   5.068   1.741
20593WAT     H262022   9.142   4.953   1.712
20594WAT      O62023   3.239   8.410   8.138
20594WAT     H162024   3.148   8.372   8.123
20594WAT     H262025   3.232   8.510   8.149
20595WAT      O62026   2.845   3.284   5.702
20595WAT     H162027   2.854   3.245   5.793
20595WAT     H262028   2.750   3.310   5.685
20596WAT      O62029   4.260   8.729   6.224
20596WAT     H162030   4.357   8.738   6.204
20596WAT     H262031   4.236   8.787   6.302
20597WAT      O62032   3.879   8.011   6.834
20597WAT     H162033   3.842   7.920   6.819
20597WAT     H262034   3.909   8.049   6.746
20598WAT      O62035   6.103   7.570   1.221
20598WAT     H162036   6.046   7.532   1.148
20598WAT     H262037   6.199   7.563   1.195
20599WAT      O62038   8.727   1.826   5.398
20599WAT     H162039   8.801   1.761   5.383
20599WAT     H262040   8.645   1.776   5.427
20600WAT      O62041   8.210   1.847   6.876
20600WAT     H162042   8.137   1.788   6.911
20600WAT     H262043   8.241   1.813   6.787
20601WAT      O62044   4.064   8.560   9.744
20601WAT     H162045   3.997   8.521   9.808
20601WAT     H262046   4.135   8.608   9.796
20602WAT      O62047   9.414   2.366   8.207
20602WAT     H162048   9.317   2.369   8.184
20602WAT     H262049   9.434   2.279   8.253
20603WAT      O62050   7.322   2.782   9.388
20603WAT     H162051   7.380   2.705   9.361
20603WAT     H262052   7.277   2.761   9.475
20604WAT      O62053   8.743   6.358   7.679
20604WAT     H162054   8.755   6.443   7.730
20604WAT     H262055   8.831   6.328   7.642
20605WAT      O62056   2.802   6.409   4.047
20605WAT     H162057   2.802   6.334   3.980
20605WAT     H262058   2.856   6.485   4.012
20606WAT      O62059   4.719   0.151   8.156
20606WAT     H162060   4.631   0.128   8.115
20606WAT     H262061   4.771   0.211   8.095
20607WAT      O62062   2.776   6.481   2.450
20607WAT     H162063   2.839   6.501   2.374
20607WAT     H262064   2.693   6.535   2.439
20608WAT      O62065   2.617   2.954   9.643
20608WAT     H162066   2.546   2.892   9.609
20608WAT     H262067   2.707   2.915   9.622
20609WAT      O62068   6.789   4.232   6.791
20609WAT     H162069   6.863   4.178   6.833
20609WAT     H262070   6.761   4.188   6.705
20610WAT      O62071   4.400   8.856   8.216
20610WAT     H162072   4.490   8.833   8.253
20610WAT     H262073   4.378   8.951   8.237
20611WAT      O62074   9.180   9.795   5.092
20611WAT     H162075   9.217   9.864   5.029
20611WAT     H262076   9.146   9.717   5.039
20612WAT      O62077   1.690   5.647   1.228
20612WAT     H162078   1.616   5.706   1.258
20612WAT     H262079   1.708   5.578   1.298
20613WAT      O62080   6.499   7.735   4.062
20613WAT     H162081   6.466   7.787   3.983
20613WAT     H262082   6.573   7.675   4.034
20614WAT      O62083   4.526   2.605   8.329
20614WAT     H162084   4.587   2.666   8.380
20614WAT     H262085   4.568   2.515   8.320
20615WAT      O62086   3.199   2.228   3.020
20615WAT     H162087   3.129   2.158   3.010
20615WAT     H262088   3.253   2.209   3.102
20616WAT      O62089   1.145   0.992   3.630
20616WAT     H162090   1.047   0.970   3.625
20616WAT     H262091   1.196   0.929   3.573
20617WAT      O62092   8.179   0.459   3.384
20617WAT     H162093   8.079   0.464   3.394
20617WAT     H262094   8.215   0.392   3.449
20618WAT      O62095   7.550   3.399   7.466
20618WAT     H162096   7.505   3.475   7.419
20618WAT     H262097   7.522   3.399   7.563
20619WAT      O62098   5.541   9.279   9.164
20619WAT     H162099   5.521   9.208   9.232
20619WAT     H262100   5.612   9.246   9.101
20620WAT      O62101   5.029   4.291   2.310
20620WAT     H162102   5.123   4.258   2.315
20620WAT     H262103   4.997   4.287   2.216
20621WAT      O62104   0.695   7.234   2.335
20621WAT     H162105   0.745   7.266   2.255
20621WAT     H262106   0.723   7.288   2.415
20622WAT      O62107   6.576   3.800   6.352
20622WAT     H162108   6.670   3.816   6.381
20622WAT     H262109   6.542   3.717   6.394
20623WAT      O62110   3.129   2.940   9.675
20623WAT     H162111   3.204   3.006   9.679
20623WAT     H262112   3.162   2.854   9.636
20624WAT      O62113   8.866   0.754   9.074
20624WAT     H162114   8.812   0.805   9.007
20624WAT     H262115   8.931   0.694   9.026
20625WAT      O62116   3.626   9.577   3.726
20625WAT     H162117   3.583   9.583   3.815
20625WAT     H262118   3.645   9.670   3.692
20626WAT      O62119   1.116   6.306   0.479
20626WAT     H162120   1.200   6.352   0.507
20626WAT     H262121   1.121   6.283   0.382
20627WAT      O62122   0.808   3.161   4.548
20627WAT     H162123   0.751   3.114   4.615
20627WAT     H262124   0.833   3.097   4.475
20628WAT      O62125   3.995   4.705   4.414
20628WAT     H162126   4.023   4.800   4.398
20628WAT     H262127   4.073   4.653   4.449
20629WAT      O62128   8.029   7.307   8.658
20629WAT     H162129   8.118   7.282   8.695
20629WAT     H262130   7.995   7.233   8.599
20630WAT      O62131   5.070   9.562   1.084
20630WAT     H162132   5.065   9.577   0.985
20630WAT     H262133   4.997   9.500   1.112
20631WAT      O62134   8.203   2.555   8.442
20631WAT     H162135   8.222   2.640   8.393
20631WAT     H262136   8.115   2.518   8.413
20632WAT      O62137   6.267   8.008   5.870
20632WAT     H162138   6.362   7.997   5.839
20632WAT     H262139   6.265   8.062   5.954
20633WAT      O62140   2.898   0.185   8.478
20633WAT     H162141   2.839   0.117   8.521
20633WAT     H262142   2.993   0.155   8.483
20634WAT      O62143   8.845   0.717   5.035
20634WAT     H162144   8.854   0.643   4.968
20634WAT     H262145   8.914   0.787   5.018
20635WAT      O62146   1.846   5.359   6.882
20635WAT     H162147   1.875   5.286   6.944
20635WAT     H262148   1.924   5.416   6.858
20636WAT      O62149   5.578   9.473   4.263
20636WAT     H162150   5.548   9.568   4.276
20636WAT     H262151   5.609   9.436   4.350
20637WAT      O62152   4.955   9.584   5.871
20637WAT     H162153   4.865   9.622   5.853
20637WAT     H262154   5.023   9.657   5.871
20638WAT      O62155   8.571   5.946   8.232
20638WAT     H162156   8.529   6.037   8.234
20638WAT     H262157   8.504   5.878   8.262
20639WAT      O62158   2.176   7.649   4.048
20639WAT     H162159   2.270   7.684   4.057
20639WAT     H262160   2.114   7.707   4.101
20640WAT      O62161   8.900   4.769   6.904
20640WAT     H162162   8.987   4.787   6.950
20640WAT     H262163   8.887   4.835   6.830
20641WAT      O62164   1.000   5.934   4.490
20641WAT     H162165   1.098   5.916   4.483
20641WAT     H262166   0.974   6.004   4.424
20642WAT      O62167   2.766   9.215   9.179
20642WAT     H162168   2.787   9.226   9.276
20642WAT     H262169   2.850   9.189   9.130
20643WAT      O62170   8.529   6.313   8.961
20643WAT     H162171   8.495   6.401   8.993
20643WAT     H262172   8.553   6.256   9.039
20644WAT      O62173   2.873   5.278   7.020
20644WAT     H162174   2.816   5.200   7.043
20644WAT     H262175   2.861   5.301   6.923
20645WAT      O62176   8.577   0.116   5.713
20645WAT     H162177   8.667   0.147   5.682
20645WAT     H262178   8.551   0.167   5.795
20646WAT      O62179   9.457   3.619   4.748
20646WAT     H162180   9.477   3.687   4.677
20646WAT     H262181   9.397   3.548   4.711
20647WAT      O62182   4.823   7.463   8.160
20647WAT     H162183   4.772   7.548   8.145
20647WAT     H262184   4.775   7.387   8.118
20648WAT      O62185   9.583   3.233   0.725
20648WAT     H162186   9.555   3.150   0.773
20648WAT     H262187   9.681   3.245   0.735
20649WAT      O62188   8.572   6.607   0.607
20649WAT     H162189   8.603   6.699   0.632
20649WAT     H262190   8.525   6.565   0.685
20650WAT      O62191   1.493   2.252   3.285
20650WAT     H162192   1.496   2.298   3.374
20650WAT     H262193   1.486   2.153   3.300
20651WAT      O62194   8.107   5.134   1.724
20651WAT     H162195   8.153   5.215   1.761
20651WAT     H262196   8.132   5.054   1.779
20652WAT      O62197   6.793   5.917   8.824
20652WAT     H162198   6.892   5.923   8.819
20652WAT     H262199   6.763   5.925   8.919
20653WAT      O62200   2.566   5.385   3.842
20653WAT     H162201   2.636   5.458   3.844
20653WAT     H262202   2.477   5.425   3.819
20654WAT      O62203   3.639   0.410   0.345
20654WAT     H162204   3.719   0.469   0.334
20654WAT     H262205   3.558   0.467   0.356
20655WAT      O62206   3.981   8.825   1.631
20655WAT     H162207   3.909   8.848   1.697
20655WAT     H262208   3.991   8.898   1.565
20656WAT      O62209   3.548   6.412   4.574
20656WAT     H162210   3.526   6.494   4.520
20656WAT     H262211   3.527   6.428   4.670
20657WAT      O62212   5.708   3.786   2.514
20657WAT     H162213   5.785   3.849   2.524
20657WAT     H262214   5.625   3.829   2.550
20658WAT      O62215   3.334   5.475   4.123
20658WAT     H162216   3.373   5.431   4.043
20658WAT     H262217   3.255   5.531   4.095
20659WAT      O62218   9.498   8.185   4.394
20659WAT     H162219   9.403   8.154   4.393
20659WAT     H262220   9.552   8.125   4.454
20660WAT      O62221   8.483   3.985   0.033
20660WAT     H162222   8.543   4.022   0.104
20660WAT     H262223   8.517   4.011  -0.057
20661WAT      O62224   7.169   2.480   9.236
20661WAT     H162225   7.198   2.447   9.147
20661WAT     H262226   7.088   2.539   9.226
20662WAT      O62227   1.880   7.667   4.357
20662WAT     H162228   1.789   7.640   4.388
20662WAT     H262229   1.949   7.632   4.420
20663WAT      O62230   4.430   4.405   8.883
20663WAT     H162231   4.469   4.367   8.967
20663WAT     H262232   4.333   4.382   8.878
20664WAT      O62233   3.791   4.467   9.886
20664WAT     H162234   3.856   4.477   9.962
20664WAT     H262235   3.705   4.511   9.910
20665WAT      O62236   6.783   7.456   4.022
20665WAT     H162237   6.822   7.538   3.980
20665WAT     H262238   6.830   7.375   3.986
20666WAT      O62239   9.841   2.175   5.718
20666WAT     H162240   9.918   2.203   5.661
20666WAT     H262241   9.790   2.256   5.746
20667WAT      O62242   7.792   3.853   7.638
20667WAT     H162243   7.853   3.913   7.690
20667WAT     H262244   7.818   3.758   7.654
20668WAT      O62245   3.230   2.294   4.045
20668WAT     H162246   3.207   2.299   4.142
20668WAT     H262247   3.279   2.209   4.026
20669WAT      O62248   3.227   4.094   8.220
20669WAT     H162249   3.250   4.177   8.271
20669WAT     H262250   3.130   4.072   8.235
20670WAT      O62251   4.758   3.270   3.098
20670WAT     H162252   4.828   3.272   3.027
20670WAT     H262253   4.782   3.201   3.166
20671WAT      O62254   9.575   5.000   9.116
20671WAT     H162255   9.604   5.081   9.064
20671WAT     H262256   9.479   4.980   9.095
20672WAT      O62257   1.954   8.772   0.244
20672WAT     H162258   1.914   8.748   0.332
20672WAT     H262259   2.031   8.711   0.224
20673WAT      O62260   7.156   6.126   6.314
20673WAT     H162261   7.064   6.093   6.291
20673WAT     H262262   7.180   6.095   6.406
20674WAT      O62263   0.287   2.920   2.901
20674WAT     H162264   0.307   2.860   2.824
20674WAT     H262265   0.196   2.959   2.890
20675WAT      O62266   7.689   8.680   0.514
20675WAT     H162267   7.779   8.638   0.524
20675WAT     H262268   7.629   8.618   0.462
20676WAT      O62269   3.621   0.987   6.181
20676WAT     H162270   3.604   1.024   6.272
20676WAT     H262271   3.582   0.895   6.175
20677WAT      O62272   9.504   8.034   9.523
20677WAT     H162273   9.507   8.091   9.605
20677WAT     H262274   9.579   7.968   9.525
20678WAT      O62275   3.069   8.313   4.966
20678WAT     H162276   3.094   8.366   5.047
20678WAT     H262277   3.125   8.343   4.889
20679WAT      O62278   0.069   6.985   1.225
20679WAT     H162279   0.099   7.000   1.131
20679WAT     H262280   0.060   7.073   1.271
20680WAT      O62281   3.151   5.618   3.793
20680WAT     H162282   3.142   5.521   3.772
20680WAT     H262283   3.235   5.653   3.750
20681WAT      O62284   9.566   3.452   8.117
20681WAT     H162285   9.508   3.370   8.115
20681WAT     H262286   9.601   3.465   8.210
20682WAT      O62287   7.818   3.665   2.257
20682WAT     H162288   7.795   3.655   2.354
20682WAT     H262289   7.742   3.631   2.201
20683WAT      O62290   0.124   3.138   6.167
20683WAT     H162291   0.151   3.057   6.116
20683WAT     H262292   0.024   3.139   6.178
20684WAT      O62293   3.379   2.467   6.460
20684WAT     H162294   3.404   2.517   6.378
20684WAT     H262295   3.460   2.424   6.499
20685WAT      O62296   4.153   8.331   1.877
20685WAT     H162297   4.117   8.249   1.833
20685WAT     H262298   4.078   8.386   1.914
20686WAT      O62299   4.966   3.410   4.664
20686WAT     H162300   4.891   3.418   4.599
20686WAT     H262301   4.967   3.490   4.724
20687WAT      O62302   7.269   1.128   6.249
20687WAT     H162303   7.351   1.185   6.258
20687WAT     H262304   7.265   1.064   6.325
20688WAT      O62305   9.576   5.697   6.468
20688WAT     H162306   9.597   5.699   6.566
20688WAT     H262307   9.601   5.608   6.430
20689WAT      O62308   4.177   3.124   6.978
20689WAT     H162309   4.190   3.212   7.024
20689WAT     H262310   4.259   3.068   6.990
20690WAT      O62311   0.928   0.429   0.248
20690WAT     H162312   0.869   0.352   0.225
20690WAT     H262313   0.986   0.452   0.170
20691WAT      O62314   9.443   0.547   4.178
20691WAT     H162315   9.484   0.457   4.192
20691WAT     H262316   9.442   0.598   4.264
20692WAT      O62317   2.817   3.406   8.635
20692WAT     H162318   2.912   3.390   8.609
20692WAT     H262319   2.782   3.487   8.588
20693WAT      O62320   7.890   1.240   2.137
20693WAT     H162321   7.823   1.313   2.131
20693WAT     H262322   7.982   1.279   2.130
20694WAT      O62323   8.460   3.024   4.241
20694WAT     H162324   8.533   3.082   4.277
20694WAT     H262325   8.469   2.932   4.278
20695WAT      O62326   6.697   6.021   1.059
20695WAT     H162327   6.629   6.030   0.986
20695WAT     H262328   6.771   5.961   1.028
20696WAT      O62329   7.190   9.243   1.997
20696WAT     H162330   7.186   9.143   1.997
20696WAT     H262331   7.181   9.277   1.903
20697WAT      O62332   4.163   9.500   6.130
20697WAT     H162333   4.255   9.536   6.138
20697WAT     H262334   4.166   9.408   6.090
20698WAT      O62335   4.246   8.240   7.185
20698WAT     H162336   4.232   8.204   7.277
20698WAT     H262337   4.161   8.233   7.132
20699WAT      O62338   1.989   5.613   8.768
20699WAT     H162339   1.947   5.616   8.677
20699WAT     H262340   1.936   5.552   8.827
20700WAT      O62341   6.931   3.915   5.014
20700WAT     H162342   6.940   3.829   5.063
20700WAT     H262343   6.990   3.984   5.057
20701WAT      O62344   0.404   2.210   3.556
20701WAT     H162345   0.343   2.289   3.566
20701WAT     H262346   0.388   2.167   3.468
20702WAT      O62347   0.157   8.199   8.639
20702WAT     H162348   0.197   8.199   8.547
20702WAT     H262349   0.143   8.293   8.670
20703WAT      O62350   9.361   4.927   3.469
20703WAT     H162351   9.282   4.902   3.525
20703WAT     H262352   9.442   4.933   3.528
20704WAT      O62353   5.651   4.881   1.608
20704WAT     H162354   5.576   4.815   1.600
20704WAT     H262355   5.703   4.863   1.692
20705WAT      O62356   1.948   1.252   6.862
20705WAT     H162357   1.991   1.246   6.772
20705WAT     H262358   1.894   1.170   6.878
20706WAT      O62359   8.586   3.649   8.746
20706WAT     H162360   8.619   3.588   8.817
20706WAT     H262361   8.590   3.602   8.657
20707WAT      O62362   3.547   4.221   5.854
20707WAT     H162363   3.646   4.210   5.864
20707WAT     H262364   3.507   4.242   5.944
20708WAT      O62365   7.984   0.375   9.784
20708WAT     H162366   8.049   0.370   9.860
20708WAT     H262367   7.909   0.437   9.807
20709WAT      O62368   2.148   7.465   2.004
20709WAT     H162369   2.138   7.564   2.011
20709WAT     H262370   2.192   7.430   2.087
20710WAT      O62371   7.786   1.214   4.282
20710WAT     H162372   7.753   1.261   4.364
20710WAT     H262373   7.710   1.204   4.218
20711WAT      O62374   0.958   4.687   5.694
20711WAT     H162375   0.940   4.688   5.595
20711WAT     H262376   0.871   4.690   5.743
20712WAT      O62377   2.886   0.062   7.656
20712WAT     H162378   2.888   0.013   7.743
20712WAT     H262379   2.945   0.142   7.660
20713WAT      O62380   9.695   0.935   4.094
20713WAT     H162381   9.732   0.858   4.146
20713WAT     H262382   9.596   0.922   4.083
20714WAT      O62383   8.481   1.918   7.553
20714WAT     H162384   8.506   1.849   7.622
20714WAT     H262385   8.563   1.966   7.522
20715WAT      O62386   5.687   6.396   4.810
20715WAT     H162387   5.757   6.341   4.765
20715WAT     H262388   5.597   6.372   4.772
20716WAT      O62389   6.186   4.155   0.150
20716WAT     H162390   6.098   4.137   0.105
20716WAT     H262391   6.192   4.252   0.174
20717WAT      O62392   8.000   7.177   2.504
20717WAT     H162393   8.004   7.088   2.457
20717WAT     H262394   7.909   7.188   2.545
20718WAT      O62395   0.288   0.706   2.498
20718WAT     H162396   0.241   0.650   2.565
20718WAT     H262397   0.233   0.787   2.478
20719WAT      O62398   3.570   5.334   3.071
20719WAT     H162399   3.664   5.305   3.088
20719WAT     H262400   3.510   5.293   3.139
20720WAT      O62401   5.425   9.782   6.446
20720WAT     H162402   5.325   9.780   6.441
20720WAT     H262403   5.458   9.874   6.429
20721WAT      O62404   0.682   5.267   2.795
20721WAT     H162405   0.697   5.168   2.791
20721WAT     H262406   0.661   5.301   2.704
20722WAT      O62407   2.496   3.672   7.452
20722WAT     H162408   2.507   3.578   7.419
20722WAT     H262409   2.532   3.679   7.545
20723WAT      O62410   3.048   4.814   9.835
20723WAT     H162411   3.046   4.798   9.736
20723WAT     H262412   3.121   4.879   9.857
20724WAT      O62413   4.055   1.633   9.379
20724WAT     H162414   4.031   1.648   9.283
20724WAT     H262415   4.126   1.563   9.385
20725WAT      O62416   9.841   8.586   4.838
20725WAT     H162417   9.764   8.522   4.840
20725WAT     H262418   9.857   8.622   4.929
20726WAT      O62419   1.272   8.536   1.622
20726WAT     H162420   1.262   8.480   1.704
20726WAT     H262421   1.363   8.523   1.583
20727WAT      O62422   2.795   4.096   0.433
20727WAT     H162423   2.822   4.090   0.529
20727WAT     H262424   2.871   4.133   0.379
20728WAT      O62425   6.541   7.767   1.841
20728WAT     H162426   6.604   7.837   1.874
20728WAT     H262427   6.559   7.748   1.745
20729WAT      O62428   1.047   2.559   6.105
20729WAT     H162429   0.996   2.477   6.129
20729WAT     H262430   1.074   2.555   6.008
20730WAT      O62431   0.670   8.758   1.169
20730WAT     H162432   0.644   8.751   1.072
20730WAT     H262433   0.722   8.676   1.195
20731WAT      O62434   5.227   7.936   9.621
20731WAT     H162435   5.230   7.873   9.698
20731WAT     H262436   5.310   7.991   9.618
20732WAT      O62437   0.449   2.940   3.127
20732WAT     H162438   0.484   2.846   3.122
20732WAT     H262439   0.389   2.956   3.048
20733WAT      O62440   4.185   8.453   2.478
20733WAT     H162441   4.181   8.490   2.385
20733WAT     H262442   4.251   8.505   2.532
20734WAT      O62443   3.983   6.512   4.368
20734WAT     H162444   4.075   6.474   4.376
20734WAT     H262445   3.921   6.443   4.330
20735WAT      O62446   3.561   9.241   3.917
20735WAT     H162447   3.537   9.337   3.929
20735WAT     H262448   3.559   9.217   3.820
20736WAT      O62449   2.678   0.149   5.014
20736WAT     H162450   2.755   0.182   4.959
20736WAT     H262451   2.675   0.049   5.009
20737WAT      O62452   9.058   9.178   8.686
20737WAT     H162453   8.963   9.204   8.703
20737WAT     H262454   9.084   9.106   8.750
20738WAT      O62455   4.237   1.283   0.308
20738WAT     H162456   4.286   1.269   0.222
20738WAT     H262457   4.263   1.212   0.373
20739WAT      O62458   0.286   3.656   4.482
20739WAT     H162459   0.351   3.671   4.408
20739WAT     H262460   0.291   3.732   4.548
20740WAT      O62461   5.918   2.636   9.696
20740WAT     H162462   5.997   2.664   9.751
20740WAT     H262463   5.949   2.590   9.613
20741WAT      O62464   8.494   1.168   4.956
20741WAT     H162465   8.524   1.218   5.038
20741WAT     H262466   8.558   1.094   4.937
20742WAT      O62467   8.312   1.491   5.612
20742WAT     H162468   8.278   1.403   5.644
20742WAT     H262469   8.378   1.477   5.539
20743WAT      O62470   8.004   7.384   0.674
20743WAT     H162471   8.008   7.317   0.748
20743WAT     H262472   8.079   7.367   0.609
20744WAT      O62473   8.827   3.118   4.953
20744WAT     H162474   8.812   3.138   5.050
20744WAT     H262475   8.814   3.021   4.936
20745WAT      O62476   1.102   1.461   1.120
20745WAT     H162477   1.125   1.555   1.094
20745WAT     H262478   1.068   1.460   1.214
20746WAT      O62479   8.060   5.965   5.528
20746WAT     H162480   8.096   5.997   5.441
20746WAT     H262481   8.065   5.865   5.531
20747WAT      O62482   3.070   6.211   4.622
20747WAT     H162483   3.077   6.227   4.523
20747WAT     H262484   3.031   6.292   4.666
20748WAT      O62485   8.651   7.956   6.751
20748WAT     H162486   8.664   8.055   6.760
20748WAT     H262487   8.686   7.910   6.833
20749WAT      O62488   8.171   5.763   7.465
20749WAT     H162489   8.257   5.728   7.427
20749WAT     H262490   8.180   5.862   7.479
20750WAT      O62491   5.663   7.983   6.250
20750WAT     H162492   5.647   7.989   6.152
20750WAT     H262493   5.630   7.895   6.284
20751WAT      O62494   6.591   4.072   1.163
20751WAT     H162495   6.512   4.087   1.221
20751WAT     H262496   6.641   4.157   1.150
20752WAT      O62497   7.728   5.899   9.642
20752WAT     H162498   7.780   5.820   9.608
20752WAT     H262499   7.736   5.902   9.742
20753WAT      O62500   8.001   9.325   5.014
20753WAT     H162501   7.957   9.324   5.104
20753WAT     H262502   8.036   9.234   4.993
20754WAT      O62503   2.303   4.946   9.840
20754WAT     H162504   2.248   4.903   9.768
20754WAT     H262505   2.243   4.990   9.906
20755WAT      O62506   4.414   6.062   6.842
20755WAT     H162507   4.408   6.010   6.928
20755WAT     H262508   4.507   6.056   6.806
20756WAT      O62509   8.769   4.577   5.759
20756WAT     H162510   8.763   4.649   5.690
20756WAT     H262511   8.820   4.611   5.838
20757WAT      O62512   5.843   3.443   9.806
20757WAT     H162513   5.900   3.378   9.755
20757WAT     H262514   5.902   3.509   9.853
20758WAT      O62515   3.022   3.628   4.671
20758WAT     H162516   3.112   3.597   4.641
20758WAT     H262517   3.009   3.606   4.768
20759WAT      O62518   3.287   7.171   6.541
20759WAT     H162519   3.331   7.098   6.593
20759WAT     H262520   3.331   7.180   6.452
20760WAT      O62521   1.395   6.371   7.597
20760WAT     H162522   1.347   6.302   7.652
20760WAT     H262523   1.465   6.415   7.653
20761WAT      O62524   9.595   7.547   4.345
20761WAT     H162525   9.559   7.627   4.297
20761WAT     H262526   9.523   7.506   4.401
20762WAT      O62527   4.217   0.095   1.579
20762WAT     H162528   4.297   0.036   1.584
20762WAT     H262529   4.234   0.170   1.515
20763WAT      O62530   8.153   4.516   8.809
20763WAT     H162531   8.089   4.504   8.732
20763WAT     H262532   8.129   4.454   8.883
20764WAT      O62533   2.881   8.751   2.279
20764WAT     H162534   2.839   8.829   2.233
20764WAT     H262535   2.889   8.770   2.376
20765WAT      O62536   6.131   5.040   2.001
20765WAT     H162537   6.137   5.014   1.904
20765WAT     H262538   6.036   5.030   2.032
20766WAT      O62539   1.099   5.194   2.695
20766WAT     H162540   1.181   5.142   2.721
20766WAT     H262541   1.066   5.160   2.607
20767WAT      O62542   2.372   2.062   1.330
20767WAT     H162543   2.471   2.067   1.316
20767WAT     H262544   2.352   2.058   1.427
20768WAT      O62545   1.313   4.943   9.046
20768WAT     H162546   1.223   4.933   9.004
20768WAT     H262547   1.303   4.954   9.145
20769WAT      O62548   2.610   9.270   3.066
20769WAT     H162549   2.564   9.286   2.978
20769WAT     H262550   2.705   9.243   3.049
20770WAT      O62551   2.448   6.992   0.768
20770WAT     H162552   2.482   6.913   0.819
20770WAT     H262553   2.352   7.007   0.789
20771WAT      O62554   6.208   0.285   2.897
20771WAT     H162555   6.244   0.239   2.979
20771WAT     H262556   6.285   0.322   2.844
20772WAT      O62557   4.551   4.685   1.394
20772WAT     H162558   4.482   4.634   1.444
20772WAT     H262559   4.509   4.733   1.317
20773WAT      O62560   0.784   4.141   0.815
20773WAT     H162561   0.728   4.208   0.767
20773WAT     H262562   0.756   4.048   0.789
20774WAT      O62563   3.397   0.744   3.174
20774WAT     H162564   3.435   0.794   3.252
20774WAT     H262565   3.357   0.658   3.205
20775WAT      O62566   9.527   9.588   8.255
20775WAT     H162567   9.519   9.506   8.312
20775WAT     H262568   9.621   9.621   8.256
20776WAT      O62569   9.300   9.533   5.241
20776WAT     H162570   9.335   9.616   5.285
20776WAT     H262571   9.204   9.547   5.215
20777WAT      O62572   3.517   5.053   9.121
20777WAT     H162573   3.433   5.021   9.078
20777WAT     H262574   3.593   5.044   9.058
20778WAT      O62575   6.267   6.983   9.246
20778WAT     H162576   6.254   6.938   9.158
20778WAT     H262577   6.189   7.044   9.264
20779WAT      O62578   0.427   9.374   3.903
20779WAT     H162579   0.340   9.354   3.948
20779WAT     H262580   0.475   9.288   3.884
20780WAT      O62581   0.513   9.696   0.194
20780WAT     H162582   0.594   9.656   0.151
20780WAT     H262583   0.456   9.739   0.124
20781WAT      O62584   3.585   2.849   8.497
20781WAT     H162585   3.625   2.851   8.406
20781WAT     H262586   3.533   2.764   8.509
20782WAT      O62587   8.642   3.532   7.552
20782WAT     H162588   8.691   3.615   7.523
20782WAT     H262589   8.696   3.485   7.622
20783WAT      O62590   8.342   9.749   9.830
20783WAT     H162591   8.365   9.845   9.850
20783WAT     H262592   8.257   9.725   9.877
20784WAT      O62593   3.789   0.064   9.262
20784WAT     H162594   3.728   0.126   9.311
20784WAT     H262595   3.764  -0.031   9.282
20785WAT      O62596   9.243   2.034   9.341
20785WAT     H162597   9.192   2.004   9.421
20785WAT     H262598   9.340   2.009   9.350
20786WAT      O62599   6.786   9.070   2.992
20786WAT     H162600   6.884   9.067   3.009
20786WAT     H262601   6.769   9.102   2.899
20787WAT      O62602   8.663   3.552   8.472
20787WAT     H162603   8.701   3.577   8.384
20787WAT     H262604   8.649   3.453   8.476
20788WAT      O62605   6.673   0.801   9.287
20788WAT     H162606   6.715   0.865   9.351
20788WAT     H262607   6.696   0.828   9.193
20789WAT      O62608   6.629   6.688   7.511
20789WAT     H162609   6.584   6.766   7.468
20789WAT     H262610   6.705   6.721   7.567
20790WAT      O62611   5.462   7.778   2.315
20790WAT     H162612   5.388   7.802   2.253
20790WAT     H262613   5.550   7.795   2.270
20791WAT      O62614   8.722   3.607   8.188
20791WAT     H162615   8.793   3.677   8.191
20791WAT     H262616   8.680   3.605   8.097
20792WAT      O62617   7.716   2.421   6.919
20792WAT     H162618   7.686   2.325   6.919
20792WAT     H262619   7.765   2.440   7.004
20793WAT      O62620   6.872   7.143   5.182
20793WAT     H162621   6.944   7.183   5.239
20793WAT     H262622   6.903   7.140   5.087
20794WAT      O62623   2.419   3.298   2.205
20794WAT     H162624   2.517   3.280   2.194
20794WAT     H262625   2.368   3.213   2.191
20795WAT      O62626   6.378   0.241   0.395
20795WAT     H162627   6.321   0.323   0.397
20795WAT     H262628   6.404   0.221   0.301
20796WAT      O62629   2.573   2.306   5.498
20796WAT     H162630   2.595   2.401   5.476
20796WAT     H262631   2.651   2.263   5.543
20797WAT      O62632   5.818   5.141   7.218
20797WAT     H162633   5.847   5.084   7.294
20797WAT     H262634   5.878   5.220   7.210
20798WAT      O62635   7.401   4.691   8.650
20798WAT     H162636   7.338   4.614   8.657
20798WAT     H262637   7.350   4.776   8.664
20799WAT      O62638   0.856   9.770   5.703
20799WAT     H162639   0.866   9.854   5.755
20799WAT     H262640   0.806   9.702   5.757
20800WAT      O62641   7.790   5.681   8.680
20800WAT     H162642   7.775   5.606   8.616
20800WAT     H262643   7.705   5.734   8.690
20801WAT      O62644   6.486   3.405   5.959
20801WAT     H162645   6.528   3.347   6.029
20801WAT     H262646   6.505   3.368   5.868
20802WAT      O62647   2.267   5.675   9.515
20802WAT     H162648   2.237   5.580   9.509
20802WAT     H262649   2.357   5.679   9.558
20803WAT      O62650   0.970   7.115   2.760
20803WAT     H162651   0.909   7.185   2.721
20803WAT     H262652   0.931   7.024   2.743
20804WAT      O62653   8.309   2.317   0.029
20804WAT     H162654   8.241   2.245   0.037
20804WAT     H262655   8.264   2.406   0.035
20805WAT      O62656   6.692   7.053   2.952
20805WAT     H162657   6.755   7.123   2.920
20805WAT     H262658   6.743   6.979   2.997
20806WAT      O62659   9.567   0.402   8.895
20806WAT     H162660   9.484   0.458   8.894
20806WAT     H262661   9.622   0.425   8.975
20807WAT      O62662   5.735   9.119   5.177
20807WAT     H162663   5.651   9.170   5.194
20807WAT     H262664   5.716   9.043   5.115
20808WAT      O62665   7.445   8.790   9.661
20808WAT     H162666   7.452   8.702   9.613
20808WAT     H262667   7.385   8.780   9.740
20809WAT      O62668   4.167   3.507   0.156
20809WAT     H162669   4.162   3.598   0.197
20809WAT     H262670   4.079   3.483   0.115
20810WAT      O62671   4.701   6.263   9.102
20810WAT     H162672   4.746   6.283   9.015
20810WAT     H262673   4.607   6.235   9.086
20811WAT      O62674   0.221   8.883   9.300
20811WAT     H162675   0.185   8.969   9.335
20811WAT     H262676   0.148   8.830   9.258
20812WAT      O62677   9.680   1.617   1.807
20812WAT     H162678   9.660   1.710   1.839
20812WAT     H262679   9.766   1.586   1.849
20813WAT      O62680   8.944   8.838   7.400
20813WAT     H162681   8.943   8.904   7.325
20813WAT     H262682   8.949   8.746   7.363
20814WAT      O62683   0.831   4.705   7.876
20814WAT     H162684   0.870   4.681   7.964
20814WAT     H262685   0.869   4.646   7.805
20815WAT      O62686   7.960   3.094   6.948
20815WAT     H162687   8.056   3.067   6.962
20815WAT     H262688   7.900   3.026   6.991
20816WAT      O62689   9.131   6.968   0.666
20816WAT     H162690   9.133   6.869   0.654
20816WAT     H262691   9.142   6.990   0.763
20817WAT      O62692   0.805   4.630   0.199
20817WAT     H162693   0.882   4.571   0.226
20817WAT     H262694   0.839   4.703   0.139
20818WAT      O62695   3.421   5.896   0.481
20818WAT     H162696   3.459   5.874   0.391
20818WAT     H262697   3.365   5.819   0.513
20819WAT      O62698   6.586   4.446   6.881
20819WAT     H162699   6.651   4.391   6.828
20819WAT     H262700   6.494   4.408   6.872
20820WAT      O62701   3.982   4.700   8.152
20820WAT     H162702   3.974   4.651   8.065
20820WAT     H262703   3.952   4.641   8.227
20821WAT      O62704   8.712   1.976   2.200
20821WAT     H162705   8.689   1.954   2.295
20821WAT     H262706   8.725   2.075   2.191
20822WAT      O62707   8.012   6.822   8.727
20822WAT     H162708   7.920   6.818   8.689
20822WAT     H262709   8.059   6.904   8.694
20823WAT      O62710   0.737   8.749   7.233
20823WAT     H162711   0.781   8.782   7.150
20823WAT     H262712   0.669   8.816   7.264
20824WAT      O62713   7.198   0.815   1.690
20824WAT     H162714   7.221   0.792   1.784
20824WAT     H262715   7.105   0.851   1.686
20825WAT      O62716   2.633   8.093   5.586
20825WAT     H162717   2.557   8.067   5.646
20825WAT     H262718   2.683   8.170   5.627
20826WAT      O62719   6.962   7.473   6.423
20826WAT     H162720   6.972   7.387   6.473
20826WAT     H262721   6.945   7.547   6.488
20827WAT      O62722   1.620   5.397   3.995
20827WAT     H162723   1.590   5.302   3.987
20827WAT     H262724   1.696   5.402   4.059
20828WAT      O62725   7.303   8.194   5.749
20828WAT     H162726   7.316   8.148   5.837
20828WAT     H262727   7.387   8.186   5.695
20829WAT      O62728   4.036   6.366   8.042
20829WAT     H162729   3.951   6.378   7.991
20829WAT     H262730   4.109   6.419   7.999
20830WAT      O62731   0.389   5.720   2.504
20830WAT     H162732   0.353   5.767   2.424
20830WAT     H262733   0.352   5.761   2.587
20831WAT      O62734   7.262   4.490   9.741
20831WAT     H162735   7.262   4.484   9.641
20831WAT     H262736   7.190   4.551   9.772
20832WAT      O62737   8.604   4.596   3.859
20832WAT     H162738   8.565   4.595   3.951
20832WAT     H262739   8.535   4.625   3.794
20833WAT      O62740   1.349   4.852   5.890
20833WAT     H162741   1.372   4.778   5.828
20833WAT     H262742   1.397   4.935   5.863
20834WAT      O62743   2.630   1.515   7.909
20834WAT     H162744   2.534   1.499   7.886
20834WAT     H262745   2.635   1.573   7.990
20835WAT      O62746   3.266   9.137   5.326
20835WAT     H162747   3.170   9.164   5.333
20835WAT     H262748   3.297   9.147   5.232
20836WAT      O62749   8.711   2.088   7.438
20836WAT     H162750   8.755   2.145   7.508
20836WAT     H262751   8.748   1.995   7.442
20837WAT      O62752   7.137   1.348   7.463
20837WAT     H162753   7.175   1.404   7.537
20837WAT     H262754   7.039   1.368   7.453
20838WAT      O62755   7.954   6.461   9.588
20838WAT     H162756   7.896   6.491   9.512
20838WAT     H262757   7.908   6.478   9.675
20839WAT      O62758   8.000   4.326   7.143
20839WAT     H162759   8.049   4.299   7.226
20839WAT     H262760   7.951   4.247   7.106
20840WAT      O62761   8.095   7.384   4.663
20840WAT     H162762   8.144   7.461   4.704
20840WAT     H262763   7.998   7.407   4.655
20841WAT      O62764   2.128   2.933   2.715
20841WAT     H162765   2.078   2.881   2.785
20841WAT     H262766   2.097   3.028   2.716
20842WAT      O62767   0.790   7.754   3.128
20842WAT     H162768   0.707   7.809   3.123
20842WAT     H262769   0.853   7.795   3.194
20843WAT      O62770   6.329   3.345   3.684
20843WAT     H162771   6.237   3.369   3.715
20843WAT     H262772   6.343   3.246   3.695
20844WAT      O62773   3.410   2.861   9.800
20844WAT     H162774   3.506   2.837   9.813
20844WAT     H262775   3.356   2.824   9.876
20845WAT      O62776   7.072   3.583   1.283
20845WAT     H162777   7.142   3.652   1.265
20845WAT     H262778   7.069   3.518   1.207
20846WAT      O62779   4.475   4.115   1.871
20846WAT     H162780   4.540   4.146   1.801
20846WAT     H262781   4.506   4.028   1.909
20847WAT      O62782   1.894   0.977   6.982
20847WAT     H162783   1.922   0.917   6.907
20847WAT     H262784   1.975   1.010   7.031
20848WAT      O62785   5.820   4.576   6.370
20848WAT     H162786   5.779   4.569   6.461
20848WAT     H262787   5.919   4.590   6.378
20849WAT      O62788   1.697   6.482   5.752
20849WAT     H162789   1.601   6.493   5.777
20849WAT     H262790   1.735   6.403   5.801
20850WAT      O62791   1.891   3.856   6.749
20850WAT     H162792   1.829   3.865   6.827
20850WAT     H262793   1.857   3.784   6.688
20851WAT      O62794   4.587   3.870   3.042
20851WAT     H162795   4.687   3.863   3.047
20851WAT     H262796   4.551   3.788   2.997
20852WAT      O62797   3.999   1.902   4.050
20852WAT     H162798   4.059   1.823   4.046
20852WAT     H262799   3.989   1.941   3.958
20853WAT      O62800   6.378   2.975   8.448
20853WAT     H162801   6.375   2.886   8.402
20853WAT     H262802   6.421   3.042   8.388
20854WAT      O62803   8.109   0.752   0.561
20854WAT     H162804   8.197   0.705   0.551
20854WAT     H262805   8.040   0.688   0.594
20855WAT      O62806   2.549   8.600   5.896
20855WAT     H162807   2.602   8.670   5.943
20855WAT     H262808   2.472   8.572   5.954
20856WAT      O62809   6.501   8.640   3.506
20856WAT     H162810   6.461   8.665   3.594
20856WAT     H262811   6.547   8.551   3.515
20857WAT      O62812   1.295   5.758   3.943
20857WAT     H162813   1.381   5.808   3.935
20857WAT     H262814   1.224   5.819   3.978
20858WAT      O62815   6.422   3.754   0.154
20858WAT     H162816   6.416   3.852   0.176
20858WAT     H262817   6.384   3.700   0.229
20859WAT      O62818   0.472   9.156   7.399
20859WAT     H162819   0.396   9.213   7.429
20859WAT     H262820   0.556   9.211   7.396
20860WAT      O62821   1.632   3.072   7.069
20860WAT     H162822   1.697   3.102   7.139
20860WAT     H262823   1.649   2.976   7.047
20861WAT      O62824   3.583   6.751   7.917
20861WAT     H162825   3.650   6.821   7.890
20861WAT     H262826   3.523   6.731   7.839
20862WAT      O62827   0.150   2.901   3.719
20862WAT     H162828   0.186   2.958   3.645
20862WAT     H262829   0.064   2.941   3.752
20863WAT      O62830   5.083   1.539   2.503
20863WAT     H162831   5.075   1.625   2.453
20863WAT     H262832   5.179   1.522   2.525
20864WAT      O62833   8.657   0.353   0.537
20864WAT     H162834   8.578   0.294   0.554
20864WAT     H262835   8.663   0.423   0.608
20865WAT      O62836   6.384   3.784   2.374
20865WAT     H162837   6.378   3.841   2.291
20865WAT     H262838   6.293   3.756   2.402
20866WAT      O62839   3.942   7.880   2.516
20866WAT     H162840   3.865   7.854   2.573
20866WAT     H262841   3.943   7.823   2.434
20867WAT      O62842   5.771   1.339   7.314
20867WAT     H162843   5.866   1.368   7.329
20867WAT     H262844   5.743   1.279   7.389
20868WAT      O62845   5.507   8.199   0.141
20868WAT     H162846   5.606   8.205   0.144
20868WAT     H262847   5.469   8.229   0.229
20869WAT      O62848   8.472   2.430   4.354
20869WAT     H162849   8.385   2.423   4.403
20869WAT     H262850   8.472   2.364   4.279
20870WAT      O62851   8.315   6.874   7.402
20870WAT     H162852   8.308   6.963   7.447
20870WAT     H262853   8.379   6.816   7.452
20871WAT      O62854   2.823   6.237   3.860
20871WAT     H162855   2.897   6.282   3.811
20871WAT     H262856   2.856   6.150   3.898
20872WAT      O62857   3.316   9.047   2.638
20872WAT     H162858   3.259   9.076   2.715
20872WAT     H262859   3.412   9.069   2.657
20873WAT      O62860   3.819   4.001   9.868
20873WAT     H162861   3.726   3.973   9.844
20873WAT     H262862   3.876   3.920   9.882
20874WAT      O62863   1.833   1.607   5.758
20874WAT     H162864   1.919   1.563   5.784
20874WAT     H262865   1.802   1.666   5.833
20875WAT      O62866   8.359   6.183   5.099
20875WAT     H162867   8.396   6.107   5.045
20875WAT     H262868   8.332   6.257   5.037
20876WAT      O62869   2.339   8.887   1.477
20876WAT     H162870   2.300   8.804   1.518
20876WAT     H262871   2.437   8.892   1.497
20877WAT      O62872   4.423   6.322   6.085
20877WAT     H162873   4.338   6.313   6.137
20877WAT     H262874   4.493   6.262   6.125
20878WAT      O62875   6.328   3.834   7.794
20878WAT     H162876   6.411   3.809   7.745
20878WAT     H262877   6.273   3.896   7.737
20879WAT      O62878   7.482   1.994   8.454
20879WAT     H162879   7.389   2.028   8.440
20879WAT     H262880   7.541   2.070   8.481
20880WAT      O62881   8.841   5.030   9.469
20880WAT     H162882   8.820   5.122   9.501
20880WAT     H262883   8.874   4.974   9.545
20881WAT      O62884   0.806   0.146   7.585
20881WAT     H162885   0.764   0.233   7.560
20881WAT     H262886   0.872   0.160   7.658
20882WAT      O62887   6.714   5.255   9.584
20882WAT     H162888   6.715   5.352   9.608
20882WAT     H262889   6.720   5.245   9.485
20883WAT      O62890   7.204   8.250   2.035
20883WAT     H162891   7.260   8.330   2.058
20883WAT     H262892   7.109   8.278   2.023
20884WAT      O62893   6.001   5.008   0.465
20884WAT     H162894   6.053   5.085   0.502
20884WAT     H262895   5.973   5.029   0.371
20885WAT      O62896   4.494   2.640   7.098
20885WAT     H162897   4.526   2.569   7.161
20885WAT     H262898   4.572   2.691   7.062
20886WAT      O62899   1.165   5.107   6.700
20886WAT     H162900   1.087   5.051   6.730
20886WAT     H262901   1.133   5.178   6.637
20887WAT      O62902   0.030   2.456   5.521
20887WAT     H162903  -0.069   2.467   5.534
20887WAT     H262904   0.047   2.385   5.453
20888WAT      O62905   4.005   9.716   7.456
20888WAT     H162906   3.940   9.643   7.437
20888WAT     H262907   3.968   9.777   7.526
20889WAT      O62908   4.004   2.294   8.012
20889WAT     H162909   3.966   2.202   8.025
20889WAT     H262910   3.944   2.362   8.054
20890WAT      O62911   6.331   0.826   6.272
20890WAT     H162912   6.240   0.786   6.283
20890WAT     H262913   6.357   0.825   6.175
20891WAT      O62914   0.569   7.419   7.351
20891WAT     H162915   0.515   7.470   7.417
20891WAT     H262916   0.509   7.363   7.294
20892WAT      O62917   3.809   2.249   3.991
20892WAT     H162918   3.721   2.210   4.020
20892WAT     H262919   3.876   2.237   4.064
20893WAT      O62920   3.571   5.330   4.963
20893WAT     H162921   3.472   5.324   4.972
20893WAT     H262922   3.600   5.282   4.880
20894WAT      O62923   5.481   5.402   0.632
20894WAT     H162924   5.388   5.396   0.668
20894WAT     H262925   5.482   5.372   0.537
20895WAT      O62926   5.172   1.381   1.603
20895WAT     H162927   5.078   1.406   1.579
20895WAT     H262928   5.211   1.450   1.663
20896WAT      O62929   3.893   5.786   2.858
20896WAT     H162930   3.948   5.762   2.778
20896WAT     H262931   3.832   5.862   2.836
20897WAT      O62932   6.697   6.324   3.395
20897WAT     H162933   6.718   6.411   3.438
20897WAT     H262934   6.605   6.327   3.356
20898WAT      O62935   3.140   7.006   7.421
20898WAT     H162936   3.059   6.972   7.373
20898WAT     H262937   3.197   7.059   7.359
20899WAT      O62938   6.715   6.872   9.372
20899WAT     H162939   6.696   6.804   9.301
20899WAT     H262940   6.635   6.931   9.383
20900WAT      O62941   6.717   3.026   6.735
20900WAT     H162942   6.665   2.950   6.696
20900WAT     H262943   6.751   3.083   6.661
20901WAT      O62944   3.210   7.022   5.979
20901WAT     H162945   3.145   7.051   6.049
20901WAT     H262946   3.286   7.087   5.974
20902WAT      O62947   8.748   9.514   6.040
20902WAT     H162948   8.691   9.515   5.958
20902WAT     H262949   8.697   9.557   6.115
20903WAT      O62950   7.081   5.158   4.309
20903WAT     H162951   7.168   5.113   4.327
20903WAT     H262952   7.078   5.247   4.355
20904WAT      O62953   9.010   9.615   4.943
20904WAT     H162954   8.926   9.621   4.890
20904WAT     H262955   8.998   9.549   5.017
20905WAT      O62956   0.869   4.185   7.668
20905WAT     H162957   0.878   4.234   7.581
20905WAT     H262958   0.961   4.164   7.703
20906WAT      O62959   6.220   9.150   2.219
20906WAT     H162960   6.261   9.131   2.308
20906WAT     H262961   6.278   9.111   2.147
20907WAT      O62962   3.049   1.420   4.087
20907WAT     H162963   3.139   1.379   4.099
20907WAT     H262964   3.041   1.501   4.144
20908WAT      O62965   0.662   1.172   1.570
20908WAT     H162966   0.642   1.080   1.604
20908WAT     H262967   0.613   1.188   1.484
20909WAT      O62968   1.450   4.203   9.363
20909WAT     H162969   1.531   4.259   9.346
20909WAT     H262970   1.370   4.248   9.324
20910WAT      O62971   9.685   6.253   9.700
20910WAT     H162972   9.645   6.326   9.755
20910WAT     H262973   9.749   6.200   9.755
20911WAT      O62974   3.979   3.344   3.380
20911WAT     H162975   4.077   3.338   3.397
20911WAT     H262976   3.930   3.344   3.467
20912WAT      O62977   2.215   7.407   7.813
20912WAT     H162978   2.160   7.330   7.845
20912WAT     H262979   2.310   7.380   7.804
20913WAT      O62980   4.138   0.137   4.026
20913WAT     H162981   4.145   0.037   4.025
20913WAT     H262982   4.216   0.174   4.076
20914WAT      O62983   0.273   4.911   8.231
20914WAT     H162984   0.294   4.937   8.136
20914WAT     H262985   0.243   4.816   8.233
20915WAT      O62986   5.176   0.160   3.632
20915WAT     H162987   5.227   0.239   3.600
20915WAT     H262988   5.093   0.190   3.680
20916WAT      O62989   6.588   2.511   4.067
20916WAT     H162990   6.633   2.559   3.991
20916WAT     H262991   6.564   2.419   4.038
20917WAT      O62992   8.395   7.985   3.009
20917WAT     H162993   8.437   7.947   2.927
20917WAT     H262994   8.429   7.937   3.090
20918WAT      O62995   4.335   1.363   4.205
20918WAT     H162996   4.248   1.409   4.190
20918WAT     H262997   4.364   1.376   4.299
20919WAT      O62998   1.385   8.974   8.851
20919WAT     H162999   1.304   8.963   8.792
20919WAT     H263000   1.372   9.052   8.911
20920WAT      O63001   2.997   1.065   5.064
20920WAT     H163002   2.933   1.010   5.010
20920WAT     H263003   3.081   1.014   5.078
20921WAT      O63004   8.710   4.384   8.483
20921WAT     H163005   8.688   4.303   8.536
20921WAT     H263006   8.669   4.376   8.392
20922WAT      O63007   6.216   3.148   7.048
20922WAT     H163008   6.177   3.074   6.992
20922WAT     H263009   6.289   3.111   7.105
20923WAT      O63010   7.891   0.538   7.797
20923WAT     H163011   7.984   0.515   7.766
20923WAT     H263012   7.878   0.637   7.792
20924WAT      O63013   0.752   6.536   0.400
20924WAT     H163014   0.743   6.544   0.500
20924WAT     H263015   0.683   6.593   0.356
20925WAT      O63016   3.839   2.319   9.172
20925WAT     H163017   3.884   2.407   9.158
20925WAT     H263018   3.887   2.268   9.243
20926WAT      O63019   7.431   1.900   5.123
20926WAT     H163020   7.441   1.987   5.075
20926WAT     H263021   7.334   1.877   5.130
20927WAT      O63022   0.048   4.894   0.292
20927WAT     H163023   0.098   4.979   0.310
20927WAT     H263024  -0.050   4.913   0.287
20928WAT      O63025   9.810   8.112   5.937
20928WAT     H163026   9.865   8.189   5.969
20928WAT     H263027   9.718   8.144   5.913
20929WAT      O63028   5.440   8.496   6.420
20929WAT     H163029   5.523   8.490   6.364
20929WAT     H263030   5.359   8.484   6.363
20930WAT      O63031   5.178   3.229   9.503
20930WAT     H163032   5.178   3.325   9.530
20930WAT     H263033   5.215   3.220   9.410
20931WAT      O63034   9.175   8.340   7.037
20931WAT     H163035   9.145   8.268   6.976
20931WAT     H263036   9.120   8.422   7.022
20932WAT      O63037   5.088   1.820   8.170
20932WAT     H163038   5.145   1.784   8.244
20932WAT     H263039   5.127   1.790   8.082
20933WAT      O63040   0.834   3.621   7.536
20933WAT     H163041   0.892   3.547   7.503
20933WAT     H263042   0.874   3.709   7.510
20934WAT      O63043   6.540   2.159   4.677
20934WAT     H163044   6.583   2.123   4.760
20934WAT     H263045   6.488   2.241   4.700
20935WAT      O63046   5.183   0.397   8.493
20935WAT     H163047   5.230   0.471   8.445
20935WAT     H263048   5.210   0.309   8.453
20936WAT      O63049   8.384   7.904   1.945
20936WAT     H163050   8.374   7.960   2.028
20936WAT     H263051   8.418   7.962   1.871
20937WAT      O63052   5.248   5.395   3.021
20937WAT     H163053   5.170   5.342   3.055
20937WAT     H263054   5.319   5.398   3.092
20938WAT      O63055   3.327   2.165   8.973
20938WAT     H163056   3.319   2.069   8.946
20938WAT     H263057   3.332   2.171   9.073
20939WAT      O63058   4.499   6.338   2.965
20939WAT     H163059   4.455   6.391   3.038
20939WAT     H263060   4.428   6.291   2.911
20940WAT      O63061   4.527   4.474   2.740
20940WAT     H163062   4.507   4.566   2.706
20940WAT     H263063   4.561   4.481   2.834
20941WAT      O63064   1.236   1.646   4.073
20941WAT     H163065   1.166   1.580   4.044
20941WAT     H263066   1.193   1.717   4.129
20942WAT      O63067   6.717   4.596   9.521
20942WAT     H163068   6.810   4.588   9.555
20942WAT     H263069   6.666   4.513   9.544
20943WAT      O63070   5.256   9.227   2.670
20943WAT     H163071   5.156   9.217   2.680
20943WAT     H263072   5.277   9.269   2.582
20944WAT      O63073   8.613   0.418   4.804
20944WAT     H163074   8.571   0.329   4.820
20944WAT     H263075   8.606   0.442   4.707
20945WAT      O63076   9.382   7.569   2.299
20945WAT     H163077   9.290   7.608   2.299
20945WAT     H263078   9.379   7.474   2.269
20946WAT      O63079   5.164   7.492   6.020
20946WAT     H163080   5.141   7.446   6.105
20946WAT     H263081   5.092   7.558   5.997
20947WAT      O63082   2.652   3.032   6.493
20947WAT     H163083   2.567   2.979   6.494
20947WAT     H263084   2.724   2.978   6.450
20948WAT      O63085   6.159   7.084   5.046
20948WAT     H163086   6.149   7.092   4.947
20948WAT     H263087   6.135   7.171   5.089
20949WAT      O63088   5.592   5.612   6.153
20949WAT     H163089   5.525   5.687   6.158
20949WAT     H263090   5.618   5.599   6.057
20950WAT      O63091   1.247   4.157   1.613
20950WAT     H163092   1.216   4.205   1.695
20950WAT     H263093   1.243   4.058   1.629
20951WAT      O63094   5.998   1.008   5.310
20951WAT     H163095   5.927   0.958   5.360
20951WAT     H263096   5.968   1.023   5.216
20952WAT      O63097   3.419   1.295   7.792
20952WAT     H163098   3.490   1.226   7.782
20952WAT     H263099   3.459   1.386   7.783
20953WAT      O63100   2.233   0.830   1.216
20953WAT     H163101   2.193   0.744   1.186
20953WAT     H263102   2.240   0.893   1.139
20954WAT      O63103   7.087   4.776   9.609
20954WAT     H163104   7.020   4.850   9.599
20954WAT     H263105   7.040   4.689   9.620
20955WAT      O63106   6.690   2.151   6.915
20955WAT     H163107   6.612   2.198   6.875
20955WAT     H263108   6.675   2.052   6.911
20956WAT      O63109   5.382   6.383   8.857
20956WAT     H163110   5.342   6.292   8.842
20956WAT     H263111   5.464   6.374   8.912
20957WAT      O63112   3.971   5.369   4.469
20957WAT     H163113   3.976   5.346   4.566
20957WAT     H263114   4.053   5.419   4.442
20958WAT      O63115   8.755   2.048   0.126
20958WAT     H163116   8.809   2.076   0.206
20958WAT     H263117   8.811   1.990   0.067
20959WAT      O63118   4.192   5.437   0.320
20959WAT     H163119   4.177   5.531   0.351
20959WAT     H263120   4.125   5.376   0.364
20960WAT      O63121   7.950   7.773   1.859
20960WAT     H163122   7.886   7.753   1.785
20960WAT     H263123   7.923   7.722   1.941
20961WAT      O63124   1.914   7.896   2.461
20961WAT     H163125   1.848   7.887   2.535
20961WAT     H263126   2.007   7.898   2.498
20962WAT      O63127   1.478   2.461   7.604
20962WAT     H163128   1.540   2.536   7.629
20962WAT     H263129   1.392   2.471   7.654
20963WAT      O63130   0.493   9.206   0.533
20963WAT     H163131   0.408   9.240   0.493
20963WAT     H263132   0.514   9.258   0.616
20964WAT      O63133   9.316   6.106   5.965
20964WAT     H163134   9.296   6.011   5.943
20964WAT     H263135   9.271   6.166   5.899
20965WAT      O63136   3.578   2.012   0.878
20965WAT     H163137   3.506   2.081   0.877
20965WAT     H263138   3.553   1.937   0.815
20966WAT      O63139   5.134   5.778   2.129
20966WAT     H163140   5.087   5.783   2.041
20966WAT     H263141   5.068   5.760   2.202
20967WAT      O63142   4.011   2.526   8.896
20967WAT     H163143   3.975   2.436   8.871
20967WAT     H263144   3.963   2.560   8.977
20968WAT      O63145   3.418   0.739   0.483
20968WAT     H163146   3.348   0.810   0.486
20968WAT     H263147   3.429   0.699   0.574
20969WAT      O63148   1.452   1.456   1.319
20969WAT     H163149   1.514   1.502   1.255
20969WAT     H263150   1.365   1.506   1.323
20970WAT      O63151   4.406   3.471   5.924
20970WAT     H163152   4.429   3.546   5.986
20970WAT     H263153   4.440   3.492   5.833
20971WAT      O63154   8.541   2.948   9.787
20971WAT     H163155   8.477   2.902   9.724
20971WAT     H263156   8.489   3.005   9.851
20972WAT      O63157   5.811   5.921   5.912
20972WAT     H163158   5.877   5.852   5.942
20972WAT     H263159   5.860   5.998   5.872
20973WAT      O63160   0.267   3.773   0.187
20973WAT     H163161   0.268   3.714   0.106
20973WAT     H263162   0.311   3.860   0.165
20974WAT      O63163   2.535   2.053   9.491
20974WAT     H163164   2.563   2.142   9.454
20974WAT     H263165   2.451   2.065   9.544
20975WAT      O63166   0.707   2.668   5.569
20975WAT     H163167   0.705   2.662   5.469
20975WAT     H263168   0.625   2.626   5.607
20976WAT      O63169   6.241   0.941   4.567
20976WAT     H163170   6.312   0.881   4.530
20976WAT     H263171   6.178   0.887   4.622
20977WAT      O63172   5.227   9.067   7.604
20977WAT     H163173   5.323   9.072   7.631
20977WAT     H263174   5.199   9.156   7.568
20978WAT      O63175   4.543   2.832   7.914
20978WAT     H163176   4.623   2.886   7.936
20978WAT     H263177   4.510   2.857   7.823
20979WAT      O63178   9.732   2.621   8.946
20979WAT     H163179   9.779   2.614   9.034
20979WAT     H263180   9.655   2.556   8.944
20980WAT      O63181   3.586   6.862   0.550
20980WAT     H163182   3.686   6.858   0.563
20980WAT     H263183   3.544   6.908   0.628
20981WAT      O63184   4.619   6.620   7.113
20981WAT     H163185   4.652   6.529   7.087
20981WAT     H263186   4.522   6.615   7.137
20982WAT      O63187   7.926   5.694   4.669
20982WAT     H163188   7.873   5.772   4.701
20982WAT     H263189   7.939   5.700   4.570
20983WAT      O63190   7.509   0.644   3.392
20983WAT     H163191   7.605   0.655   3.414
20983WAT     H263192   7.463   0.733   3.394
20984WAT      O63193   4.292   6.424   5.470
20984WAT     H163194   4.326   6.513   5.440
20984WAT     H263195   4.268   6.370   5.390
20985WAT      O63196   4.646   9.328   7.479
20985WAT     H163197   4.550   9.308   7.456
20985WAT     H263198   4.649   9.390   7.557
20986WAT      O63199   1.812   6.204   5.434
20986WAT     H163200   1.865   6.123   5.410
20986WAT     H263201   1.731   6.210   5.376
20987WAT      O63202   4.203   0.282   7.684
20987WAT     H163203   4.209   0.377   7.654
20987WAT     H263204   4.243   0.223   7.613
20988WAT      O63205   9.456   5.582   5.185
20988WAT     H163206   9.421   5.554   5.095
20988WAT     H263207   9.456   5.682   5.191
20989WAT      O63208   8.067   4.280   2.283
20989WAT     H163209   8.145   4.234   2.241
20989WAT     H263210   7.987   4.220   2.280
20990WAT      O63211   6.279   1.851   5.051
20990WAT     H163212   6.309   1.859   5.146
20990WAT     H263213   6.204   1.914   5.034
20991WAT      O63214   4.727   0.345   5.066
20991WAT     H163215   4.672   0.268   5.098
20991WAT     H263216   4.797   0.366   5.135
20992WAT      O63217   1.126   0.191   1.441
20992WAT     H163218   1.092   0.228   1.527
20992WAT     H263219   1.216   0.231   1.421
20993WAT      O63220   9.156   3.512   2.569
20993WAT     H163221   9.097   3.538   2.645
20993WAT     H263222   9.248   3.494   2.604
20994WAT      O63223   8.309   5.132   0.550
20994WAT     H163224   8.246   5.168   0.481
20994WAT     H263225   8.393   5.101   0.505
20995WAT      O63226   6.882   4.323   5.554
20995WAT     H163227   6.953   4.335   5.624
20995WAT     H263228   6.878   4.405   5.496
20996WAT      O63229   6.302   1.574   5.791
20996WAT     H163230   6.226   1.509   5.792
20996WAT     H263231   6.310   1.617   5.881
20997WAT      O63232   7.624   4.855   5.488
20997WAT     H163233   7.625   4.949   5.521
20997WAT     H263234   7.532   4.831   5.457
20998WAT      O63235   4.276   7.480   2.394
20998WAT     H163236   4.354   7.446   2.342
20998WAT     H263237   4.257   7.575   2.367
20999WAT      O63238   3.291   0.999   5.928
20999WAT     H163239   3.284   1.099   5.925
20999WAT     H263240   3.299   0.963   5.835
21000WAT      O63241   7.936   6.286   2.344
21000WAT     H163242   7.961   6.293   2.441
21000WAT     H263243   7.836   6.286   2.335
21001WAT      O63244   3.111   2.788   1.028
21001WAT     H163245   3.028   2.786   0.973
21001WAT     H263246   3.098   2.849   1.106
21002WAT      O63247   3.901   4.736   9.511
21002WAT     H163248   3.888   4.785   9.598
21002WAT     H263249   3.816   4.738   9.459
21003WAT      O63250   7.624   2.575   1.109
21003WAT     H163251   7.671   2.621   1.184
21003WAT     H263252   7.579   2.643   1.051
21004WAT      O63253   7.193   4.196   5.509
21004WAT     H163254   7.135   4.120   5.480
21004WAT     H263255   7.155   4.237   5.592
21005WAT      O63256   8.521   7.426   2.310
21005WAT     H163257   8.604   7.479   2.292
21005WAT     H263258   8.453   7.445   2.239
21006WAT      O63259   4.918   1.811   7.563
21006WAT     H163260   4.939   1.719   7.531
21006WAT     H263261   4.942   1.819   7.659
21007WAT      O63262   1.192   9.213   3.977
21007WAT     H163263   1.135   9.272   3.919
21007WAT     H263264   1.285   9.251   3.982
21008WAT      O63265   8.017   3.862   4.455
21008WAT     H163266   8.101   3.822   4.492
21008WAT     H263267   8.010   3.839   4.358
21009WAT      O63268   3.273   9.088   4.520
21009WAT     H163269   3.303   9.080   4.615
21009WAT     H263270   3.186   9.041   4.508
21010WAT      O63271   7.397   4.857   8.973
21010WAT     H163272   7.398   4.830   9.069
21010WAT     H263273   7.489   4.884   8.945
21011WAT      O63274   0.428   0.860   7.598
21011WAT     H163275   0.359   0.860   7.671
21011WAT     H263276   0.515   0.894   7.634
21012WAT      O63277   3.399   4.110   3.756
21012WAT     H163278   3.351   4.083   3.673
21012WAT     H263279   3.398   4.209   3.765
21013WAT      O63280   2.585   8.231   4.045
21013WAT     H163281   2.490   8.233   4.012
21013WAT     H263282   2.585   8.233   4.145
21014WAT      O63283   8.002   6.446   2.641
21014WAT     H163284   7.991   6.369   2.704
21014WAT     H263285   8.098   6.454   2.615
21015WAT      O63286   8.579   9.587   3.902
21015WAT     H163287   8.642   9.632   3.965
21015WAT     H263288   8.594   9.623   3.809
21016WAT      O63289   4.659   8.842   0.763
21016WAT     H163290   4.746   8.855   0.811
21016WAT     H263291   4.588   8.817   0.829
21017WAT      O63292   5.447   9.782   2.848
21017WAT     H163293   5.425   9.708   2.911
21017WAT     H263294   5.546   9.786   2.835
21018WAT      O63295   3.960   9.540   2.931
21018WAT     H163296   3.958   9.620   2.990
21018WAT     H263297   4.007   9.561   2.845
21019WAT      O63298   3.238   9.446   1.349
21019WAT     H163299   3.332   9.460   1.320
21019WAT     H263300   3.188   9.533   1.345
21020WAT      O63301   5.680   5.680   2.984
21020WAT     H163302   5.753   5.745   3.001
21020WAT     H263303   5.668   5.667   2.886
21021WAT      O63304   9.281   9.249   1.019
21021WAT     H163305   9.194   9.295   1.001
21021WAT     H263306   9.292   9.235   1.117
21022WAT      O63307   3.154   7.726   4.463
21022WAT     H163308   3.219   7.672   4.409
21022WAT     H263309   3.201   7.805   4.502
21023WAT      O63310   1.256   7.228   3.418
21023WAT     H163311   1.226   7.233   3.322
21023WAT     H263312   1.185   7.183   3.473
21024WAT      O63313   9.040   0.569   5.165
21024WAT     H163314   9.090   0.556   5.079
21024WAT     H263315   8.960   0.626   5.148
21025WAT      O63316   2.317   6.133   5.764
21025WAT     H163317   2.397   6.171   5.716
21025WAT     H263318   2.274   6.206   5.818
21026WAT      O63319   3.660   2.728   3.079
21026WAT     H163320   3.749   2.733   3.124
21026WAT     H263321   3.627   2.634   3.080
21027WAT      O63322   9.309   0.562   2.117
21027WAT     H163323   9.295   0.477   2.065
21027WAT     H263324   9.280   0.640   2.061
21028WAT      O63325   0.709   5.568   9.196
21028WAT     H163326   0.616   5.603   9.202
21028WAT     H263327   0.752   5.571   9.287
21029WAT      O63328   7.401   6.717   5.609
21029WAT     H163329   7.447   6.801   5.580
21029WAT     H263330   7.400   6.711   5.709
21030WAT      O63331   6.776   5.658   0.897
21030WAT     H163332   6.771   5.561   0.873
21030WAT     H263333   6.694   5.705   0.862
21031WAT      O63334   7.493   7.101   8.101
21031WAT     H163335   7.557   7.176   8.116
21031WAT     H263336   7.494   7.075   8.005
21032WAT      O63337   2.155   4.554   1.277
21032WAT     H163338   2.060   4.545   1.304
21032WAT     H263339   2.167   4.519   1.184
21033WAT      O63340   6.503   9.836   1.167
21033WAT     H163341   6.469   9.770   1.101
21033WAT     H263342   6.461   9.925   1.150
21034WAT      O63343   2.881   1.743   2.733
21034WAT     H163344   2.903   1.782   2.644
21034WAT     H263345   2.819   1.666   2.722
21035WAT      O63346   4.473   8.647   3.533
21035WAT     H163347   4.424   8.728   3.567
21035WAT     H263348   4.459   8.571   3.597
21036WAT      O63349   0.069   0.909   1.389
21036WAT     H163350  -0.007   0.848   1.413
21036WAT     H263351   0.032   0.995   1.352
21037WAT      O63352   7.445   4.331   0.563
21037WAT     H163353   7.405   4.282   0.641
21037WAT     H263354   7.456   4.268   0.487
21038WAT      O63355   6.031   3.682   1.624
21038WAT     H163356   6.012   3.598   1.675
21038WAT     H263357   6.048   3.659   1.528
21039WAT      O63358   9.147   6.652   0.330
21039WAT     H163359   9.170   6.614   0.241
21039WAT     H263360   9.104   6.742   0.318
21040WAT      O63361   6.170   1.331   8.067
21040WAT     H163362   6.078   1.294   8.084
21040WAT     H263363   6.186   1.409   8.128
21041WAT      O63364   0.993   0.346   3.456
21041WAT     H163365   0.924   0.416   3.476
21041WAT     H263366   1.062   0.384   3.394
21042WAT      O63367   6.439   2.507   9.247
21042WAT     H163368   6.362   2.507   9.310
21042WAT     H263369   6.497   2.428   9.265
21043WAT      O63370   8.337   2.674   1.173
21043WAT     H163371   8.412   2.721   1.218
21043WAT     H263372   8.306   2.598   1.231
21044WAT      O63373   3.848   6.285   3.953
21044WAT     H163374   3.932   6.292   4.006
21044WAT     H263375   3.863   6.227   3.872
21045WAT      O63376   7.015   5.072   0.466
21045WAT     H163377   7.091   5.026   0.420
21045WAT     H263378   7.001   5.163   0.426
21046WAT      O63379   3.639   2.842   1.328
21046WAT     H163380   3.675   2.798   1.246
21046WAT     H263381   3.714   2.860   1.392
21047WAT      O63382   2.581   6.909   4.419
21047WAT     H163383   2.591   6.810   4.410
21047WAT     H263384   2.604   6.937   4.512
21048WAT      O63385   9.660   0.921   0.787
21048WAT     H163386   9.694   0.937   0.880
21048WAT     H263387   9.608   1.000   0.756
21049WAT      O63388   7.200   9.378   5.507
21049WAT     H163389   7.158   9.290   5.528
21049WAT     H263390   7.247   9.413   5.588
21050WAT      O63391   9.558   6.762   1.948
21050WAT     H163392   9.536   6.829   2.018
21050WAT     H263393   9.652   6.776   1.916
21051WAT      O63394   0.773   8.618   5.431
21051WAT     H163395   0.834   8.595   5.355
21051WAT     H263396   0.745   8.713   5.425
21052WAT      O63397   9.567   0.933   2.622
21052WAT     H163398   9.647   0.883   2.589
21052WAT     H263399   9.587   1.031   2.620
21053WAT      O63400   6.209   4.919   1.684
21053WAT     H163401   6.124   4.964   1.657
21053WAT     H263402   6.271   4.986   1.725
21054WAT      O63403   6.231   3.464   6.630
21054WAT     H163404   6.248   3.397   6.702
21054WAT     H263405   6.178   3.421   6.557
21055WAT      O63406   9.515   2.081   9.714
21055WAT     H163407   9.531   1.984   9.697
21055WAT     H263408   9.554   2.135   9.639
21056WAT      O63409   2.224   3.836   7.638
21056WAT     H163410   2.206   3.923   7.593
21056WAT     H263411   2.317   3.837   7.676
21057WAT      O63412   7.977   1.367   1.460
21057WAT     H163413   7.992   1.404   1.368
21057WAT     H263414   7.879   1.360   1.477
21058WAT      O63415   7.095   7.400   0.837
21058WAT     H163416   7.154   7.479   0.817
21058WAT     H263417   7.003   7.432   0.860
21059WAT      O63418   3.903   6.714   3.884
21059WAT     H163419   3.893   6.686   3.980
21059WAT     H263420   3.950   6.802   3.879
21060WAT      O63421   0.869   4.967   5.443
21060WAT     H163422   0.950   4.994   5.391
21060WAT     H263423   0.857   5.029   5.521
21061WAT      O63424   1.461   9.379   6.049
21061WAT     H163425   1.511   9.416   6.127
21061WAT     H263426   1.479   9.280   6.043
21062WAT      O63427   7.298   2.027   5.684
21062WAT     H163428   7.368   1.959   5.706
21062WAT     H263429   7.328   2.083   5.607
21063WAT      O63430   5.772   9.590   2.321
21063WAT     H163431   5.842   9.558   2.385
21063WAT     H263432   5.769   9.690   2.323
21064WAT      O63433   1.242   1.711   8.486
21064WAT     H163434   1.211   1.795   8.530
21064WAT     H263435   1.204   1.632   8.535
21065WAT      O63436   1.620   7.501   2.788
21065WAT     H163437   1.675   7.430   2.745
21065WAT     H263438   1.525   7.495   2.756
21066WAT      O63439   0.940   5.764   5.787
21066WAT     H163440   0.897   5.696   5.727
21066WAT     H263441   1.015   5.721   5.837
21067WAT      O63442   1.483   7.274   9.365
21067WAT     H163443   1.419   7.231   9.302
21067WAT     H263444   1.438   7.350   9.412
21068WAT      O63445   4.773   6.568   5.463
21068WAT     H163446   4.770   6.521   5.551
21068WAT     H263447   4.803   6.662   5.477
21069WAT      O63448   1.105   0.579   0.397
21069WAT     H163449   1.051   0.638   0.457
21069WAT     H263450   1.044   0.519   0.345
21070WAT      O63451   8.630   3.491   4.635
21070WAT     H163452   8.537   3.487   4.597
21070WAT     H263453   8.641   3.418   4.702
21071WAT      O63454   8.716   6.369   4.803
21071WAT     H163455   8.705   6.373   4.704
21071WAT     H263456   8.710   6.273   4.834
21072WAT      O63457   1.680   0.035   0.081
21072WAT     H163458   1.776   0.060   0.089
21072WAT     H263459   1.645   0.009   0.172
21073WAT      O63460   6.825   7.608   9.848
21073WAT     H163461   6.805   7.678   9.917
21073WAT     H263462   6.829   7.651   9.757
21074WAT      O63463   6.332   3.842   8.951
21074WAT     H163464   6.260   3.799   9.006
21074WAT     H263465   6.290   3.890   8.874
21075WAT      O63466   2.696   5.418   4.378
21075WAT     H163467   2.694   5.517   4.391
21075WAT     H263468   2.671   5.395   4.284
21076WAT      O63469   5.755   9.569   0.970
21076WAT     H163470   5.659   9.595   0.963
21076WAT     H263471   5.789   9.588   1.062
21077WAT      O63472   0.923   7.406   5.801
21077WAT     H163473   0.878   7.387   5.889
21077WAT     H263474   0.996   7.339   5.786
21078WAT      O63475   9.430   6.861   5.727
21078WAT     H163476   9.488   6.920   5.670
21078WAT     H263477   9.379   6.798   5.668
21079WAT      O63478   6.345   4.069   1.417
21079WAT     H163479   6.329   3.976   1.384
21079WAT     H263480   6.334   4.134   1.342
21080WAT      O63481   0.529   4.639   2.677
21080WAT     H163482   0.473   4.578   2.622
21080WAT     H263483   0.502   4.633   2.773
21081WAT      O63484   3.003   9.211   1.667
21081WAT     H163485   2.917   9.216   1.616
21081WAT     H263486   3.009   9.288   1.731
21082WAT      O63487   3.081   3.862   4.013
21082WAT     H163488   2.994   3.813   4.015
21082WAT     H263489   3.065   3.959   3.996
21083WAT      O63490   8.456   4.468   8.613
21083WAT     H163491   8.556   4.470   8.608
21083WAT     H263492   8.428   4.440   8.704
21084WAT      O63493   3.395   5.850   9.213
21084WAT     H163494   3.363   5.935   9.254
21084WAT     H263495   3.409   5.781   9.284
21085WAT      O63496   4.774   2.463   0.444
21085WAT     H163497   4.791   2.455   0.346
21085WAT     H263498   4.812   2.549   0.478
21086WAT      O63499   2.161   4.682   8.876
21086WAT     H163500   2.145   4.767   8.826
21086WAT     H263501   2.213   4.619   8.819
21087WAT      O63502   2.882   0.199   8.824
21087WAT     H163503   2.815   0.172   8.894
21087WAT     H263504   2.885   0.129   8.753
21088WAT      O63505   4.925   7.801   8.785
21088WAT     H163506   4.956   7.791   8.690
21088WAT     H263507   4.826   7.817   8.786
21089WAT      O63508   1.991   7.012   5.002
21089WAT     H163509   1.982   7.110   5.020
21089WAT     H263510   1.980   6.994   4.905
21090WAT      O63511   5.833   3.618   7.394
21090WAT     H163512   5.841   3.715   7.372
21090WAT     H263513   5.818   3.606   7.492
21091WAT      O63514   0.899   4.993   7.075
21091WAT     H163515   0.812   4.998   7.124
21091WAT     H263516   0.939   5.085   7.070
21092WAT      O63517   0.499   3.517   1.440
21092WAT     H163518   0.455   3.430   1.461
21092WAT     H263519   0.514   3.524   1.341
21093WAT      O63520   7.251   2.462   9.486
21093WAT     H163521   7.199   2.471   9.401
21093WAT     H263522   7.348   2.457   9.466
21094WAT      O63523   8.682   0.751   3.738
21094WAT     H163524   8.704   0.848   3.725
21094WAT     H263525   8.620   0.721   3.666
21095WAT      O63526   7.442   9.780   4.189
21095WAT     H163527   7.417   9.703   4.248
21095WAT     H263528   7.377   9.786   4.113
21096WAT      O63529   2.284   6.007   3.323
21096WAT     H163530   2.275   5.932   3.258
21096WAT     H263531   2.258   5.976   3.414
21097WAT      O63532   8.786   0.933   7.446
21097WAT     H163533   8.738   0.890   7.523
21097WAT     H263534   8.839   0.865   7.397
21098WAT      O63535   7.317   5.034   4.368
21098WAT     H163536   7.417   5.041   4.375
21098WAT     H263537   7.285   4.957   4.423
21099WAT      O63538   1.947   2.964   6.045
21099WAT     H163539   1.938   2.865   6.062
21099WAT     H263540   2.036   2.982   6.004
21100WAT      O63541   9.670   1.762   0.014
21100WAT     H163542   9.768   1.774   0.032
21100WAT     H263543   9.644   1.668   0.034
21101WAT      O63544   2.521   5.639   7.214
21101WAT     H163545   2.477   5.562   7.166
21101WAT     H263546   2.451   5.703   7.245
21102WAT      O63547   4.920   8.839   0.491
21102WAT     H163548   4.946   8.754   0.536
21102WAT     H263549   4.825   8.832   0.459
21103WAT      O63550   8.220   8.258   2.399
21103WAT     H163551   8.130   8.225   2.372
21103WAT     H263552   8.282   8.181   2.413
21104WAT      O63553   0.662   9.743   3.934
21104WAT     H163554   0.603   9.819   3.961
21104WAT     H263555   0.621   9.694   3.857
21105WAT      O63556   5.862   6.964   4.926
21105WAT     H163557   5.935   6.897   4.934
21105WAT     H263558   5.773   6.919   4.936
21106WAT      O63559   0.992   8.027   2.037
21106WAT     H163560   1.047   8.054   1.958
21106WAT     H263561   1.029   7.943   2.076
21107WAT      O63562   7.357   0.955   0.369
21107WAT     H163563   7.288   0.971   0.298
21107WAT     H263564   7.357   0.859   0.394
21108WAT      O63565   1.390   0.059   7.945
21108WAT     H163566   1.480   0.020   7.964
21108WAT     H263567   1.397   0.124   7.869
21109WAT      O63568   7.506   0.028   7.175
21109WAT     H163569   7.562  -0.035   7.121
21109WAT     H263570   7.553   0.049   7.261
21110WAT      O63571   0.288   7.829   7.984
21110WAT     H163572   0.265   7.882   7.902
21110WAT     H263573   0.218   7.759   7.998
21111WAT      O63574   0.538   5.995   2.940
21111WAT     H163575   0.508   6.055   2.865
21111WAT     H263576   0.638   5.995   2.944
21112WAT      O63577   5.417   4.671   5.607
21112WAT     H163578   5.325   4.707   5.619
21112WAT     H263579   5.428   4.635   5.515
21113WAT      O63580   8.075   9.668   8.194
21113WAT     H163581   7.981   9.691   8.218
21113WAT     H263582   8.138   9.722   8.249
21114WAT      O63583   4.899   2.946   5.882
21114WAT     H163584   4.984   2.950   5.933
21114WAT     H263585   4.918   2.950   5.784
21115WAT      O63586   9.200   1.592   9.744
21115WAT     H163587   9.292   1.562   9.716
21115WAT     H263588   9.156   1.638   9.667
21116WAT      O63589   8.747   3.581   2.609
21116WAT     H163590   8.831   3.598   2.661
21116WAT     H263591   8.668   3.608   2.664
21117WAT      O63592   7.957   7.620   6.460
21117WAT     H163593   7.904   7.687   6.514
21117WAT     H263594   8.034   7.666   6.417
21118WAT      O63595   2.099   9.351   0.030
21118WAT     H163596   2.012   9.306   0.052
21118WAT     H263597   2.088   9.450   0.037
21119WAT      O63598   3.557   7.321   8.099
21119WAT     H163599   3.483   7.377   8.062
21119WAT     H263600   3.544   7.226   8.071
21120WAT      O63601   6.525   8.459   6.815
21120WAT     H163602   6.609   8.490   6.859
21120WAT     H263603   6.514   8.505   6.727
21121WAT      O63604   0.064   3.498   8.865
21121WAT     H163605   0.107   3.588   8.868
21121WAT     H263606   0.135   3.428   8.856
21122WAT      O63607   6.694   9.033   3.409
21122WAT     H163608   6.633   9.005   3.334
21122WAT     H263609   6.719   9.129   3.397
21123WAT      O63610   2.946   7.294   1.298
21123WAT     H163611   2.949   7.377   1.354
21123WAT     H263612   3.029   7.241   1.312
21124WAT      O63613   0.759   6.461   2.994
21124WAT     H163614   0.718   6.478   2.905
21124WAT     H263615   0.717   6.522   3.062
21125WAT      O63616   3.846   1.563   3.684
21125WAT     H163617   3.834   1.651   3.731
21125WAT     H263618   3.901   1.502   3.741
21126WAT      O63619   5.898   7.741   1.943
21126WAT     H163620   5.926   7.703   2.031
21126WAT     H263621   5.973   7.730   1.877
21127WAT      O63622   4.150   4.603   3.029
21127WAT     H163623   4.083   4.670   3.060
21127WAT     H263624   4.236   4.648   3.007
21128WAT      O63625   3.705   2.048   2.869
21128WAT     H163626   3.606   2.054   2.884
21128WAT     H263627   3.726   1.964   2.818
21129WAT      O63628   4.615   6.892   2.969
21129WAT     H163629   4.686   6.881   3.038
21129WAT     H263630   4.593   6.803   2.929
21130WAT      O63631   8.098   3.699   7.743
21130WAT     H163632   8.094   3.762   7.666
21130WAT     H263633   8.007   3.660   7.758
21131WAT      O63634   1.657   4.886   1.524
21131WAT     H163635   1.606   4.874   1.610
21131WAT     H263636   1.725   4.958   1.536
21132WAT      O63637   9.650   9.096   0.030
21132WAT     H163638   9.737   9.107  -0.017
21132WAT     H263639   9.653   9.014   0.087
21133WAT      O63640   2.487   0.675   2.796
21133WAT     H163641   2.392   0.703   2.804
21133WAT     H263642   2.509   0.610   2.868
21134WAT      O63643   0.389   6.071   0.041
21134WAT     H163644   0.455   6.005   0.005
21134WAT     H263645   0.352   6.037   0.128
21135WAT      O63646   2.621   5.239   3.017
21135WAT     H163647   2.543   5.264   2.960
21135WAT     H263648   2.591   5.176   3.088
21136WAT      O63649   6.259   6.266   0.422
21136WAT     H163650   6.223   6.213   0.499
21136WAT     H263651   6.290   6.203   0.350
21137WAT      O63652   0.603   8.243   7.103
21137WAT     H163653   0.652   8.328   7.085
21137WAT     H263654   0.538   8.256   7.178
21138WAT      O63655   0.980   3.883   4.811
21138WAT     H163656   0.980   3.789   4.779
21138WAT     H263657   0.890   3.906   4.850
21139WAT      O63658   4.939   7.806   1.896
21139WAT     H163659   5.000   7.733   1.865
21139WAT     H263660   4.880   7.835   1.820
21140WAT      O63661   9.479   9.760   4.508
21140WAT     H163662   9.397   9.732   4.557
21140WAT     H263663   9.558   9.713   4.545
21141WAT      O63664   9.050   5.623   8.358
21141WAT     H163665   9.095   5.696   8.411
21141WAT     H263666   8.970   5.591   8.408
21142WAT      O63667   0.243   2.641   6.715
21142WAT     H163668   0.300   2.708   6.762
21142WAT     H263669   0.257   2.551   6.756
21143WAT      O63670   4.388   8.377   9.715
21143WAT     H163671   4.404   8.339   9.806
21143WAT     H263672   4.319   8.322   9.668
21144WAT      O63673   1.084   7.704   6.092
21144WAT     H163674   1.140   7.628   6.124
21144WAT     H263675   1.120   7.738   6.005
21145WAT      O63676   5.128   2.346   8.563
21145WAT     H163677   5.089   2.287   8.491
21145WAT     H263678   5.058   2.411   8.594
21146WAT      O63679   1.046   7.667   9.135
21146WAT     H163680   1.047   7.571   9.163
21146WAT     H263681   1.014   7.674   9.041
21147WAT      O63682   0.403   1.213   4.111
21147WAT     H163683   0.382   1.131   4.165
21147WAT     H263684   0.335   1.283   4.130
21148WAT      O63685   2.284   2.401   9.810
21148WAT     H163686   2.197   2.369   9.774
21148WAT     H263687   2.291   2.375   9.907
21149WAT      O63688   0.690   3.589   4.165
21149WAT     H163689   0.711   3.680   4.130
21149WAT     H263690   0.726   3.520   4.102
21150WAT      O63691   5.064   2.547   4.308
21150WAT     H163692   4.970   2.519   4.326
21150WAT     H263693   5.067   2.608   4.229
21151WAT      O63694   6.924   7.628   8.902
21151WAT     H163695   6.911   7.564   8.826
21151WAT     H263696   7.021   7.636   8.923
21152WAT      O63697   5.701   5.454   8.179
21152WAT     H163698   5.713   5.354   8.178
21152WAT     H263699   5.608   5.476   8.151
21153WAT      O63700   8.592   0.268   6.327
21153WAT     H163701   8.646   0.191   6.294
21153WAT     H263702   8.496   0.256   6.302
21154WAT      O63703   6.687   5.434   2.669
21154WAT     H163704   6.781   5.406   2.649
21154WAT     H263705   6.642   5.462   2.585
21155WAT      O63706   6.871   7.514   7.359
21155WAT     H163707   6.876   7.611   7.384
21155WAT     H263708   6.830   7.506   7.268
21156WAT      O63709   3.391   6.998   2.692
21156WAT     H163710   3.402   7.044   2.604
21156WAT     H263711   3.413   7.061   2.766
21157WAT      O63712   4.400   2.513   5.455
21157WAT     H163713   4.403   2.426   5.505
21157WAT     H263714   4.330   2.572   5.494
21158WAT      O63715   7.281   1.436   4.607
21158WAT     H163716   7.209   1.419   4.675
21158WAT     H263717   7.365   1.391   4.636
21159WAT      O63718   6.802   1.646   5.842
21159WAT     H163719   6.710   1.638   5.804
21159WAT     H263720   6.868   1.610   5.776
21160WAT      O63721   4.604   1.991   0.328
21160WAT     H163722   4.547   1.972   0.408
21160WAT     H263723   4.573   1.934   0.251
21161WAT      O63724   0.316   3.272   2.515
21161WAT     H163725   0.321   3.175   2.495
21161WAT     H263726   0.278   3.286   2.607
21162WAT      O63727   1.705   3.727   6.105
21162WAT     H163728   1.779   3.754   6.166
21162WAT     H263729   1.636   3.799   6.102
21163WAT      O63730   5.694   6.070   7.582
21163WAT     H163731   5.650   6.065   7.492
21163WAT     H263732   5.625   6.078   7.653
21164WAT      O63733   5.915   9.316   8.811
21164WAT     H163734   5.816   9.308   8.804
21164WAT     H263735   5.945   9.401   8.768
21165WAT      O63736   0.185   3.276   6.905
21165WAT     H163737   0.111   3.266   6.839
21165WAT     H263738   0.252   3.341   6.871
21166WAT      O63739   8.782   9.240   8.821
21166WAT     H163740   8.738   9.209   8.737
21166WAT     H263741   8.772   9.339   8.830
21167WAT      O63742   4.118   6.872   1.424
21167WAT     H163743   4.044   6.921   1.470
21167WAT     H263744   4.098   6.866   1.326
21168WAT      O63745   0.050   4.462   7.095
21168WAT     H163746   0.129   4.406   7.119
21168WAT     H263747  -0.032   4.405   7.091
21169WAT      O63748   1.602   8.511   8.780
21169WAT     H163749   1.598   8.462   8.867
21169WAT     H263750   1.536   8.586   8.780
21170WAT      O63751   8.291   0.215   2.839
21170WAT     H163752   8.220   0.152   2.807
21170WAT     H263753   8.369   0.211   2.777
21171WAT      O63754   5.664   9.554   3.610
21171WAT     H163755   5.595   9.522   3.675
21171WAT     H263756   5.755   9.551   3.653
21172WAT      O63757   3.141   3.285   4.210
21172WAT     H163758   3.100   3.222   4.276
21172WAT     H263759   3.170   3.368   4.256
21173WAT      O63760   7.237   7.249   7.646
21173WAT     H163761   7.226   7.195   7.563
21173WAT     H263762   7.257   7.344   7.622
21174WAT      O63763   3.512   0.439   8.527
21174WAT     H163764   3.461   0.514   8.570
21174WAT     H263765   3.451   0.388   8.467
21175WAT      O63766   2.629   4.755   7.211
21175WAT     H163767   2.716   4.729   7.253
21175WAT     H263768   2.602   4.845   7.246
21176WAT      O63769   3.097   6.387   3.953
21176WAT     H163770   3.068   6.355   3.862
21176WAT     H263771   3.054   6.330   4.023
21177WAT      O63772   7.268   7.265   1.919
21177WAT     H163773   7.290   7.357   1.951
21177WAT     H263774   7.315   7.198   1.977
21178WAT      O63775   6.508   8.598   6.276
21178WAT     H163776   6.544   8.690   6.291
21178WAT     H263777   6.572   8.546   6.219
21179WAT      O63778   3.527   5.708   1.068
21179WAT     H163779   3.558   5.698   0.974
21179WAT     H263780   3.461   5.783   1.073
21180WAT      O63781   5.449   0.457   5.003
21180WAT     H163782   5.414   0.401   5.078
21180WAT     H263783   5.374   0.509   4.962
21181WAT      O63784   8.962   6.261   0.594
21181WAT     H163785   8.947   6.176   0.542
21181WAT     H263786   9.031   6.246   0.664
21182WAT      O63787   0.959   1.798   5.098
21182WAT     H163788   0.961   1.786   5.197
21182WAT     H263789   0.915   1.885   5.076
21183WAT      O63790   8.568   9.548   1.075
21183WAT     H163791   8.633   9.480   1.109
21183WAT     H263792   8.600   9.585   0.988
21184WAT      O63793   7.869   5.883   0.886
21184WAT     H163794   7.879   5.921   0.795
21184WAT     H263795   7.857   5.784   0.880
21185WAT      O63796   3.301   2.804   3.735
21185WAT     H163797   3.361   2.855   3.673
21185WAT     H263798   3.251   2.867   3.793
21186WAT      O63799   6.965   5.235   3.893
21186WAT     H163800   6.928   5.291   3.818
21186WAT     H263801   7.063   5.256   3.905
21187WAT      O63802   0.514   4.467   9.582
21187WAT     H163803   0.588   4.502   9.640
21187WAT     H263804   0.435   4.528   9.587
21188WAT      O63805   3.425   5.223   4.338
21188WAT     H163806   3.335   5.218   4.296
21188WAT     H263807   3.426   5.170   4.423
21189WAT      O63808   0.665   3.631   3.674
21189WAT     H163809   0.672   3.539   3.635
21189WAT     H263810   0.578   3.640   3.721
21190WAT      O63811   4.072   4.476   1.154
21190WAT     H163812   4.082   4.403   1.086
21190WAT     H263813   3.977   4.483   1.182
21191WAT      O63814   7.069   4.278   9.621
21191WAT     H163815   7.133   4.208   9.655
21191WAT     H263816   7.109   4.323   9.542
21192WAT      O63817   2.283   9.283   8.125
21192WAT     H163818   2.288   9.382   8.111
21192WAT     H263819   2.272   9.263   8.222
21193WAT      O63820   7.784   2.360   1.597
21193WAT     H163821   7.716   2.432   1.586
21193WAT     H263822   7.751   2.276   1.555
21194WAT      O63823   1.143   9.333   9.349
21194WAT     H163824   1.156   9.402   9.420
21194WAT     H263825   1.070   9.270   9.376
21195WAT      O63826   3.267   8.749   6.027
21195WAT     H163827   3.357   8.713   6.053
21195WAT     H263828   3.226   8.797   6.105
21196WAT      O63829   5.864   2.615   7.395
21196WAT     H163830   5.943   2.654   7.443
21196WAT     H263831   5.850   2.665   7.309
21197WAT      O63832   4.386   6.796   0.666
21197WAT     H163833   4.306   6.807   0.725
21197WAT     H263834   4.458   6.748   0.716
21198WAT      O63835   2.229   8.879   1.792
21198WAT     H163836   2.247   8.947   1.864
21198WAT     H263837   2.308   8.818   1.784
21199WAT      O63838   3.856   0.791   9.425
21199WAT     H163839   3.865   0.696   9.454
21199WAT     H263840   3.919   0.848   9.479
21200WAT      O63841   6.417   2.704   8.348
21200WAT     H163842   6.505   2.664   8.373
21200WAT     H263843   6.346   2.633   8.352
21201WAT      O63844   9.276   1.032   2.741
21201WAT     H163845   9.352   1.080   2.786
21201WAT     H263846   9.297   1.021   2.644
21202WAT      O63847   6.212   0.150   5.498
21202WAT     H163848   6.112   0.145   5.506
21202WAT     H263849   6.236   0.212   5.424
21203WAT      O63850   9.508   3.153   0.475
21203WAT     H163851   9.591   3.125   0.428
21203WAT     H263852   9.528   3.169   0.572
21204WAT      O63853   1.254   3.513   7.270
21204WAT     H163854   1.219   3.471   7.186
21204WAT     H263855   1.252   3.613   7.261
21205WAT      O63856   1.528   8.880   7.792
21205WAT     H163857   1.576   8.881   7.704
21205WAT     H263858   1.593   8.862   7.866
21206WAT      O63859   7.993   5.982   2.961
21206WAT     H163860   7.976   6.062   3.019
21206WAT     H263861   7.919   5.917   2.971
21207WAT      O63862   0.800   3.875   7.864
21207WAT     H163863   0.834   3.896   7.772
21207WAT     H263864   0.746   3.790   7.861
21208WAT      O63865   2.363   8.188   9.331
21208WAT     H163866   2.299   8.126   9.377
21208WAT     H263867   2.313   8.261   9.286
21209WAT      O63868   3.260   1.161   1.986
21209WAT     H163869   3.176   1.110   2.005
21209WAT     H263870   3.260   1.190   1.891
21210WAT      O63871   2.528   8.689   9.099
21210WAT     H163872   2.546   8.704   9.196
21210WAT     H263873   2.448   8.631   9.089
21211WAT      O63874   6.152   0.995   3.854
21211WAT     H163875   6.128   0.898   3.844
21211WAT     H263876   6.249   1.004   3.874
21212WAT      O63877   8.122   1.392   6.207
21212WAT     H163878   8.036   1.422   6.248
21212WAT     H263879   8.166   1.470   6.162
21213WAT      O63880   7.620   9.646   5.811
21213WAT     H163881   7.557   9.667   5.736
21213WAT     H263882   7.571   9.652   5.898
21214WAT      O63883   2.295   7.115   9.541
21214WAT     H163884   2.295   7.208   9.577
21214WAT     H263885   2.361   7.109   9.465
21215WAT      O63886   2.625   4.806   9.486
21215WAT     H163887   2.642   4.710   9.461
21215WAT     H263888   2.547   4.810   9.549
21216WAT      O63889   1.069   4.180   7.831
21216WAT     H163890   1.027   4.136   7.910
21216WAT     H263891   1.100   4.271   7.856
21217WAT      O63892   1.740   1.665   7.589
21217WAT     H163893   1.767   1.663   7.493
21217WAT     H263894   1.822   1.676   7.646
21218WAT      O63895   8.639   2.959   0.373
21218WAT     H163896   8.627   2.875   0.426
21218WAT     H263897   8.554   2.980   0.324
21219WAT      O63898   6.408   8.952   5.671
21219WAT     H163899   6.369   8.862   5.657
21219WAT     H263900   6.340   9.013   5.711
21220WAT      O63901   8.078   7.804   2.258
21220WAT     H163902   8.107   7.772   2.168
21220WAT     H263903   7.989   7.764   2.280
21221WAT      O63904   9.844   5.692   3.240
21221WAT     H163905   9.763   5.653   3.284
21221WAT     H263906   9.901   5.618   3.204
21222WAT      O63907   2.420   2.909   4.556
21222WAT     H163908   2.493   2.969   4.589
21222WAT     H263909   2.410   2.832   4.618
21223WAT      O63910   1.268   2.114   8.988
21223WAT     H163911   1.185   2.119   9.044
21223WAT     H263912   1.341   2.168   9.030
21224WAT      O63913   0.749   6.447   1.361
21224WAT     H163914   0.661   6.450   1.410
21224WAT     H263915   0.733   6.457   1.263
21225WAT      O63916   0.644   2.927   2.794
21225WAT     H163917   0.740   2.933   2.822
21225WAT     H263918   0.604   3.019   2.789
21226WAT      O63919   1.108   9.707   3.078
21226WAT     H163920   1.055   9.733   2.997
21226WAT     H263921   1.046   9.685   3.153
21227WAT      O63922   3.378   1.782   4.558
21227WAT     H163923   3.352   1.739   4.645
21227WAT     H263924   3.369   1.715   4.484
21228WAT      O63925   2.099   9.627   4.154
21228WAT     H163926   2.006   9.647   4.188
21228WAT     H263927   2.163   9.693   4.193
21229WAT      O63928   8.781   9.759   8.028
21229WAT     H163929   8.796   9.705   8.111
21229WAT     H263930   8.829   9.846   8.036
21230WAT      O63931   7.506   3.423   5.271
21230WAT     H163932   7.422   3.448   5.320
21230WAT     H263933   7.517   3.481   5.191
21231WAT      O63934   5.836   2.992   3.053
21231WAT     H163935   5.740   2.982   3.026
21231WAT     H263936   5.852   2.943   3.138
21232WAT      O63937   6.395   0.058   8.232
21232WAT     H163938   6.482   0.095   8.263
21232WAT     H263939   6.396   0.049   8.132
21233WAT      O63940   0.168   1.461   3.036
21233WAT     H163941   0.105   1.398   3.082
21233WAT     H263942   0.127   1.552   3.032
21234WAT      O63943   3.811   1.980   9.576
21234WAT     H163944   3.762   2.056   9.618
21234WAT     H263945   3.748   1.926   9.520
21235WAT      O63946   3.069   9.257   9.640
21235WAT     H163947   3.033   9.350   9.638
21235WAT     H263948   3.049   9.215   9.729
21236WAT      O63949   7.681   7.453   0.282
21236WAT     H163950   7.696   7.406   0.195
21236WAT     H263951   7.633   7.539   0.265
21237WAT      O63952   6.204   8.717   8.282
21237WAT     H163953   6.229   8.813   8.285
21237WAT     H263954   6.219   8.675   8.371
21238WAT      O63955   1.727   5.031   1.894
21238WAT     H163956   1.727   5.097   1.970
21238WAT     H263957   1.812   4.980   1.894
21239WAT      O63958   1.421   5.107   8.377
21239WAT     H163959   1.399   5.013   8.399
21239WAT     H263960   1.359   5.141   8.307
21240WAT      O63961   5.142   5.615   7.011
21240WAT     H163962   5.080   5.547   7.050
21240WAT     H263963   5.142   5.696   7.069
21241WAT      O63964   2.070   4.078   3.852
21241WAT     H163965   2.153   4.033   3.820
21241WAT     H263966   2.070   4.081   3.952
21242WAT      O63967   2.548   1.533   4.978
21242WAT     H163968   2.588   1.468   4.913
21242WAT     H263969   2.479   1.486   5.034
21243WAT      O63970   4.008   2.203   5.103
21243WAT     H163971   4.061   2.238   5.180
21243WAT     H263972   4.069   2.155   5.040
21244WAT      O63973   0.420   3.742   3.811
21244WAT     H163974   0.383   3.652   3.832
21244WAT     H263975   0.403   3.804   3.888
21245WAT      O63976   3.993   6.656   3.598
21245WAT     H163977   3.897   6.677   3.614
21245WAT     H263978   4.051   6.722   3.646
21246WAT      O63979   9.280   7.673   0.244
21246WAT     H163980   9.183   7.695   0.251
21246WAT     H263981   9.290   7.576   0.220
21247WAT      O63982   6.941   7.317   7.570
21247WAT     H163983   7.023   7.284   7.616
21247WAT     H263984   6.963   7.401   7.520
21248WAT      O63985   6.232   0.384   3.229
21248WAT     H163986   6.266   0.290   3.221
21248WAT     H263987   6.275   0.429   3.307
21249WAT      O63988   9.500   8.342   8.520
21249WAT     H163989   9.524   8.335   8.423
21249WAT     H263990   9.523   8.257   8.566
21250WAT      O63991   8.889   0.489   6.654
21250WAT     H163992   8.850   0.569   6.699
21250WAT     H263993   8.883   0.410   6.715
21251WAT      O63994   1.637   9.064   6.919
21251WAT     H163995   1.642   9.103   6.827
21251WAT     H263996   1.618   8.967   6.913
21252WAT      O63997   5.437   3.996   1.474
21252WAT     H163998   5.517   3.987   1.532
21252WAT     H263999   5.404   4.091   1.476
21253WAT      O64000   4.140   5.299   4.164
21253WAT     H164001   4.204   5.303   4.087
21253WAT     H264002   4.181   5.343   4.244
21254WAT      O64003   3.778   7.924   1.858
21254WAT     H164004   3.755   7.839   1.905
21254WAT     H264005   3.775   7.911   1.759
21255WAT      O64006   0.609   6.652   3.416
21255WAT     H164007   0.684   6.694   3.467
21255WAT     H264008   0.522   6.688   3.447
21256WAT      O64009   7.777   8.663   3.501
21256WAT     H164010   7.765   8.759   3.477
21256WAT     H264011   7.865   8.651   3.548
21257WAT      O64012   2.475   1.787   0.256
21257WAT     H164013   2.425   1.764   0.339
21257WAT     H264014   2.571   1.801   0.277
21258WAT      O64015   8.397   7.854   0.873
21258WAT     H164016   8.301   7.828   0.877
21258WAT     H264017   8.405   7.946   0.834
21259WAT      O64018   9.561   3.330   3.962
21259WAT     H164019   9.644   3.291   3.924
21259WAT     H264020   9.582   3.417   4.006
21260WAT      O64021   3.760   2.480   7.730
21260WAT     H164022   3.841   2.521   7.689
21260WAT     H264023   3.747   2.516   7.823
21261WAT      O64024   0.076   1.382   9.289
21261WAT     H164025   0.055   1.284   9.295
21261WAT     H264026   0.047   1.417   9.200
21262WAT      O64027   3.176   0.130   0.907
21262WAT     H164028   3.092   0.121   0.854
21262WAT     H264029   3.254   0.102   0.851
21263WAT      O64030   7.336   7.191   4.686
21263WAT     H164031   7.373   7.168   4.776
21263WAT     H264032   7.265   7.124   4.662
21264WAT      O64033   4.248   2.217   3.111
21264WAT     H164034   4.181   2.192   3.181
21264WAT     H264035   4.303   2.294   3.143
21265WAT      O64036   4.833   9.243   7.050
21265WAT     H164037   4.817   9.243   6.952
21265WAT     H264038   4.858   9.151   7.081
21266WAT      O64039   2.581   8.865   2.857
21266WAT     H164040   2.672   8.849   2.894
21266WAT     H264041   2.530   8.927   2.918
21267WAT      O64042   4.987   7.887   6.043
21267WAT     H164043   5.070   7.860   5.994
21267WAT     H264044   5.009   7.962   6.106
21268WAT      O64045   6.675   7.987   3.177
21268WAT     H164046   6.686   7.954   3.084
21268WAT     H264047   6.713   7.920   3.241
21269WAT      O64048   1.639   6.037   1.419
21269WAT     H164049   1.592   6.118   1.383
21269WAT     H264050   1.715   6.013   1.359
21270WAT      O64051   3.998   7.496   4.857
21270WAT     H164052   3.941   7.479   4.937
21270WAT     H264053   3.957   7.568   4.801
21271WAT      O64054   4.594   4.883   5.833
21271WAT     H164055   4.523   4.851   5.895
21271WAT     H264056   4.570   4.858   5.739
21272WAT      O64057   4.511   6.180   3.369
21272WAT     H164058   4.454   6.261   3.356
21272WAT     H264059   4.591   6.204   3.424
21273WAT      O64060   9.707   0.235   6.496
21273WAT     H164061   9.694   0.189   6.409
21273WAT     H264062   9.799   0.274   6.500
21274WAT      O64063   8.467   2.548   8.265
21274WAT     H164064   8.560   2.520   8.290
21274WAT     H264065   8.435   2.618   8.330
21275WAT      O64066   5.606   0.458   7.108
21275WAT     H164067   5.595   0.543   7.056
21275WAT     H264068   5.517   0.428   7.142
21276WAT      O64069   5.375   1.920   7.324
21276WAT     H164070   5.457   1.945   7.376
21276WAT     H264071   5.295   1.962   7.366
21277WAT      O64072   1.297   9.277   4.924
21277WAT     H164073   1.234   9.267   4.847
21277WAT     H264074   1.272   9.213   4.996
21278WAT      O64075   3.433   4.313   6.096
21278WAT     H164076   3.344   4.335   6.137
21278WAT     H264077   3.494   4.279   6.167
21279WAT      O64078   0.444   1.111   9.021
21279WAT     H164079   0.528   1.059   9.008
21279WAT     H264080   0.366   1.057   8.992
21280WAT      O64081   6.796   5.659   8.431
21280WAT     H164082   6.748   5.689   8.513
21280WAT     H264083   6.795   5.559   8.427
21281WAT      O64084   8.759   4.411   5.509
21281WAT     H164085   8.666   4.408   5.473
21281WAT     H264086   8.760   4.466   5.593
21282WAT      O64087   8.606   1.872   2.482
21282WAT     H164088   8.561   1.961   2.469
21282WAT     H264089   8.548   1.800   2.444
21283WAT      O64090   6.319   4.335   5.881
21283WAT     H164091   6.297   4.419   5.929
21283WAT     H264092   6.366   4.272   5.944
21284WAT      O64093   3.822   9.067   5.274
21284WAT     H164094   3.902   9.018   5.310
21284WAT     H264095   3.760   9.088   5.350
21285WAT      O64096   6.056   4.713   5.387
21285WAT     H164097   6.100   4.667   5.464
21285WAT     H264098   5.971   4.667   5.364
21286WAT      O64099   2.100   2.374   5.647
21286WAT     H164100   2.171   2.340   5.585
21286WAT     H264101   2.034   2.428   5.594
21287WAT      O64102   1.085   4.594   7.199
21287WAT     H164103   1.032   4.577   7.282
21287WAT     H264104   1.090   4.510   7.144
21288WAT      O64105   0.295   5.490   7.705
21288WAT     H164106   0.203   5.488   7.665
21288WAT     H264107   0.299   5.427   7.783
21289WAT      O64108   8.688   2.637   6.259
21289WAT     H164109   8.734   2.567   6.314
21289WAT     H264110   8.687   2.609   6.163
21290WAT      O64111   9.245   4.486   9.579
21290WAT     H164112   9.152   4.515   9.601
21290WAT     H264113   9.247   4.386   9.569
21291WAT      O64114   0.461   5.992   7.757
21291WAT     H164115   0.522   5.994   7.837
21291WAT     H264116   0.370   5.964   7.786
21292WAT      O64117   3.147   2.800   5.328
21292WAT     H164118   3.196   2.725   5.282
21292WAT     H264119   3.165   2.886   5.281
21293WAT      O64120   6.276   8.739   5.191
21293WAT     H164121   6.187   8.740   5.144
21293WAT     H264122   6.271   8.679   5.271
21294WAT      O64123   4.097   4.017   0.274
21294WAT     H164124   3.999   4.038   0.284
21294WAT     H264125   4.122   4.018   0.177
21295WAT      O64126   9.128   9.633   9.791
21295WAT     H164127   9.147   9.552   9.846
21295WAT     H264128   9.029   9.642   9.779
21296WAT      O64129   8.115   5.131   4.430
21296WAT     H164130   8.201   5.092   4.465
21296WAT     H264131   8.112   5.122   4.331
21297WAT      O64132   3.761   8.551   9.863
21297WAT     H164133   3.661   8.548   9.861
21297WAT     H264134   3.791   8.628   9.919
21298WAT      O64135   4.462   6.607   3.978
21298WAT     H164136   4.553   6.581   4.011
21298WAT     H264137   4.392   6.557   4.029
21299WAT      O64138   8.739   7.490   3.235
21299WAT     H164139   8.665   7.424   3.246
21299WAT     H264140   8.736   7.556   3.309
21300WAT      O64141   5.796   0.435   6.831
21300WAT     H164142   5.780   0.340   6.856
21300WAT     H264143   5.709   0.484   6.827
21301WAT      O64144   2.993   0.643   7.492
21301WAT     H164145   2.932   0.637   7.572
21301WAT     H264146   3.088   0.652   7.523
21302WAT      O64147   2.521   8.687   9.401
21302WAT     H164148   2.508   8.595   9.440
21302WAT     H264149   2.436   8.738   9.407
21303WAT      O64150   6.636   9.117   2.642
21303WAT     H164151   6.585   9.088   2.723
21303WAT     H264152   6.676   9.036   2.599
21304WAT      O64153   4.627   0.163   6.445
21304WAT     H164154   4.569   0.157   6.526
21304WAT     H264155   4.570   0.174   6.363
21305WAT      O64156   9.372   8.144   6.754
21305WAT     H164157   9.296   8.093   6.714
21305WAT     H264158   9.403   8.097   6.837
21306WAT      O64159   8.669   8.801   4.287
21306WAT     H164160   8.709   8.831   4.374
21306WAT     H264161   8.722   8.840   4.211
21307WAT      O64162   0.641   6.930   8.577
21307WAT     H164163   0.697   6.973   8.649
21307WAT     H264164   0.573   6.870   8.620
21308WAT      O64165   4.317   5.809   2.073
21308WAT     H164166   4.288   5.839   2.164
21308WAT     H264167   4.414   5.827   2.061
21309WAT      O64168   6.639   0.810   7.695
21309WAT     H164169   6.574   0.821   7.770
21309WAT     H264170   6.724   0.770   7.729
21310WAT      O64171   8.422   9.243   3.104
21310WAT     H164172   8.363   9.324   3.106
21310WAT     H264173   8.512   9.269   3.069
21311WAT      O64174   9.535   4.882   8.325
21311WAT     H164175   9.532   4.937   8.242
21311WAT     H264176   9.563   4.940   8.402
21312WAT      O64177   3.804   8.396   7.668
21312WAT     H164178   3.850   8.484   7.652
21312WAT     H264179   3.848   8.326   7.611
21313WAT      O64180   4.660   5.793   6.509
21313WAT     H164181   4.625   5.701   6.490
21313WAT     H264182   4.588   5.860   6.491
21314WAT      O64183   5.763   4.009   5.892
21314WAT     H164184   5.826   4.066   5.944
21314WAT     H264185   5.749   4.049   5.801
21315WAT      O64186   9.724   4.299   8.439
21315WAT     H164187   9.801   4.236   8.434
21315WAT     H264188   9.746   4.375   8.500
21316WAT      O64189   0.574   3.407   6.823
21316WAT     H164190   0.480   3.429   6.797
21316WAT     H264191   0.637   3.452   6.759
21317WAT      O64192   1.071   2.080   3.264
21317WAT     H164193   0.990   2.022   3.264
21317WAT     H264194   1.120   2.070   3.351
21318WAT      O64195   8.102   7.780   3.231
21318WAT     H164196   8.030   7.797   3.164
21318WAT     H264197   8.191   7.803   3.192
21319WAT      O64198   5.610   5.607   4.242
21319WAT     H164199   5.577   5.676   4.306
21319WAT     H264200   5.601   5.641   4.148
21320WAT      O64201   7.687   9.611   8.204
21320WAT     H164202   7.750   9.664   8.261
21320WAT     H264203   7.594   9.647   8.214
21321WAT      O64204   5.427   2.409   2.228
21321WAT     H164205   5.527   2.411   2.221
21321WAT     H264206   5.390   2.343   2.162
21322WAT      O64207   2.553   7.403   7.356
21322WAT     H164208   2.548   7.308   7.323
21322WAT     H264209   2.628   7.450   7.310
21323WAT      O64210   3.829   6.817   8.436
21323WAT     H164211   3.814   6.884   8.508
21323WAT     H264212   3.896   6.852   8.371
21324WAT      O64213   0.732   2.463   7.288
21324WAT     H164214   0.711   2.506   7.200
21324WAT     H264215   0.749   2.534   7.356
21325WAT      O64216   8.329   4.800   4.007
21325WAT     H164217   8.359   4.718   4.055
21325WAT     H264218   8.311   4.873   4.074
21326WAT      O64219   4.852   1.735   6.275
21326WAT     H164220   4.782   1.666   6.261
21326WAT     H264221   4.819   1.824   6.243
21327WAT      O64222   1.119   1.420   2.919
21327WAT     H164223   1.199   1.360   2.930
21327WAT     H264224   1.036   1.364   2.915
21328WAT      O64225   2.155   6.569   3.023
21328WAT     H164226   2.115   6.523   2.944
21328WAT     H264227   2.092   6.640   3.056
21329WAT      O64228   1.309   3.554   8.639
21329WAT     H164229   1.353   3.507   8.716
21329WAT     H264230   1.335   3.650   8.641
21330WAT      O64231   9.743   7.795   7.288
21330WAT     H164232   9.667   7.731   7.284
21330WAT     H264233   9.829   7.745   7.300
21331WAT      O64234   9.003   5.003   1.448
21331WAT     H164235   9.012   4.912   1.408
21331WAT     H264236   8.987   5.070   1.376
21332WAT      O64237   0.418   9.427   1.547
21332WAT     H164238   0.433   9.334   1.513
21332WAT     H264239   0.440   9.493   1.475
21333WAT      O64240   4.257   4.683   7.219
21333WAT     H164241   4.208   4.624   7.154
21333WAT     H264242   4.308   4.753   7.169
21334WAT      O64243   2.057   8.396   4.841
21334WAT     H164244   2.147   8.424   4.873
21334WAT     H264245   2.015   8.337   4.910
21335WAT      O64246   2.277   0.523   5.459
21335WAT     H164247   2.224   0.548   5.378
21335WAT     H264248   2.229   0.450   5.508
21336WAT      O64249   5.786   0.648   2.920
21336WAT     H164250   5.787   0.676   2.824
21336WAT     H264251   5.760   0.551   2.926
21337WAT      O64252   5.360   3.663   5.054
21337WAT     H164253   5.426   3.593   5.082
21337WAT     H264254   5.331   3.715   5.135
21338WAT      O64255   0.776   3.842   3.275
21338WAT     H164256   0.716   3.870   3.350
21338WAT     H264257   0.757   3.747   3.251
21339WAT      O64258   0.467   9.430   3.166
21339WAT     H164259   0.550   9.486   3.165
21339WAT     H264260   0.476   9.359   3.236
21340WAT      O64261   4.471   1.841   5.031
21340WAT     H164262   4.554   1.785   5.026
21340WAT     H264263   4.409   1.801   5.099
21341WAT      O64264   2.079   4.552   1.810
21341WAT     H164265   2.138   4.513   1.882
21341WAT     H264266   2.134   4.570   1.728
21342WAT      O64267   0.664   9.762   7.165
21342WAT     H164268   0.577   9.763   7.214
21342WAT     H264269   0.739   9.766   7.231
21343WAT      O64270   6.159   5.970   2.071
21343WAT     H164271   6.139   6.068   2.079
21343WAT     H264272   6.082   5.925   2.025
21344WAT      O64273   1.085   0.371   7.495
21344WAT     H164274   1.057   0.467   7.485
21344WAT     H264275   1.159   0.365   7.563
21345WAT      O64276   0.661   1.644   1.340
21345WAT     H164277   0.710   1.635   1.427
21345WAT     H264278   0.657   1.740   1.313
21346WAT      O64279   8.055   4.272   7.768
21346WAT     H164280   8.042   4.175   7.747
21346WAT     H264281   8.142   4.303   7.731
21347WAT      O64282   0.600   4.116   8.034
21347WAT     H164283   0.638   4.069   8.114
21347WAT     H264284   0.547   4.051   7.979
21348WAT      O64285   7.807   1.004   8.998
21348WAT     H164286   7.827   0.992   8.901
21348WAT     H264287   7.771   0.919   9.035
21349WAT      O64288   4.634   8.928   2.852
21349WAT     H164289   4.722   8.880   2.849
21349WAT     H264290   4.644   9.018   2.811
21350WAT      O64291   4.377   9.323   7.442
21350WAT     H164292   4.324   9.404   7.418
21350WAT     H264293   4.358   9.250   7.376
21351WAT      O64294   4.014   8.648   3.419
21351WAT     H164295   3.984   8.592   3.342
21351WAT     H264296   4.110   8.672   3.408
21352WAT      O64297   8.289   6.783   5.680
21352WAT     H164298   8.204   6.735   5.702
21352WAT     H264299   8.273   6.845   5.604
21353WAT      O64300   8.016   6.172   7.630
21353WAT     H164301   8.007   6.255   7.685
21353WAT     H264302   7.986   6.190   7.537
21354WAT      O64303   4.090   6.610   1.525
21354WAT     H164304   4.118   6.687   1.468
21354WAT     H264305   4.102   6.634   1.621
21355WAT      O64306   0.949   8.378   9.240
21355WAT     H164307   1.034   8.409   9.197
21355WAT     H264308   0.871   8.413   9.188
21356WAT      O64309   6.426   8.997   4.606
21356WAT     H164310   6.431   9.005   4.706
21356WAT     H264311   6.424   8.901   4.581
21357WAT      O64312   0.070   5.159   7.136
21357WAT     H164313   0.154   5.173   7.084
21357WAT     H264314   0.076   5.074   7.187
21358WAT      O64315   7.103   3.832   3.254
21358WAT     H164316   7.174   3.765   3.276
21358WAT     H264317   7.145   3.911   3.209
21359WAT      O64318   9.600   2.031   2.494
21359WAT     H164319   9.521   1.973   2.472
21359WAT     H264320   9.602   2.110   2.432
21360WAT      O64321   5.741   8.921   3.719
21360WAT     H164322   5.808   8.924   3.794
21360WAT     H264323   5.755   8.838   3.665
21361WAT      O64324   9.831   4.902   8.294
21361WAT     H164325   9.817   4.883   8.196
21361WAT     H264326   9.875   4.823   8.337
21362WAT      O64327   6.353   1.420   2.094
21362WAT     H164328   6.319   1.505   2.053
21362WAT     H264329   6.304   1.403   2.179
21363WAT      O64330   0.397   2.660   3.890
21363WAT     H164331   0.425   2.588   3.827
21363WAT     H264332   0.309   2.697   3.861
21364WAT      O64333   0.956   7.429   2.357
21364WAT     H164334   0.978   7.407   2.262
21364WAT     H264335   0.923   7.523   2.363
21365WAT      O64336   1.974   5.181   9.174
21365WAT     H164337   1.901   5.162   9.240
21365WAT     H264338   1.983   5.105   9.111
21366WAT      O64339   1.075   3.105   4.590
21366WAT     H164340   1.128   3.156   4.658
21366WAT     H264341   0.978   3.116   4.608
21367WAT      O64342   8.651   0.287   3.399
21367WAT     H164343   8.705   0.370   3.387
21367WAT     H264344   8.554   0.307   3.381
21368WAT      O64345   5.563   8.342   8.886
21368WAT     H164346   5.655   8.324   8.920
21368WAT     H264347   5.533   8.432   8.918
21369WAT      O64348   5.088   5.953   7.765
21369WAT     H164349   5.137   5.925   7.682
21369WAT     H264350   5.118   6.044   7.792
21370WAT      O64351   6.206   3.485   4.478
21370WAT     H164352   6.268   3.526   4.411
21370WAT     H264353   6.194   3.388   4.458
21371WAT      O64354   4.652   1.675   4.163
21371WAT     H164355   4.752   1.682   4.164
21371WAT     H264356   4.621   1.639   4.251
21372WAT      O64357   1.130   0.125   8.053
21372WAT     H164358   1.161   0.188   8.124
21372WAT     H264359   1.204   0.061   8.031
21373WAT      O64360   9.642   8.219   8.859
21373WAT     H164361   9.705   8.143   8.873
21373WAT     H264362   9.687   8.305   8.882
21374WAT      O64363   8.322   9.134   2.015
21374WAT     H164364   8.276   9.217   2.046
21374WAT     H264365   8.328   9.135   1.915
21375WAT      O64366   4.429   5.657   2.697
21375WAT     H164367   4.430   5.557   2.702
21375WAT     H264368   4.430   5.685   2.601
21376WAT      O64369   6.835   6.227   8.031
21376WAT     H164370   6.895   6.219   7.951
21376WAT     H264371   6.820   6.324   8.051
21377WAT      O64372   2.898   6.875   7.354
21377WAT     H164373   2.920   6.873   7.256
21377WAT     H264374   2.808   6.918   7.367
21378WAT      O64375   6.576   8.337   8.218
21378WAT     H164376   6.619   8.420   8.252
21378WAT     H264377   6.636   8.258   8.234
21379WAT      O64378   8.745   8.279   6.218
21379WAT     H164379   8.656   8.272   6.262
21379WAT     H264380   8.800   8.349   6.263
21380WAT      O64381   2.718   7.378   6.351
21380WAT     H164382   2.697   7.458   6.407
21380WAT     H264383   2.814   7.383   6.321
21381WAT      O64384   5.004   8.724   6.163
21381WAT     H164385   5.052   8.675   6.090
21381WAT     H264386   4.998   8.821   6.140
21382WAT      O64387   3.735   0.395   2.690
21382WAT     H164388   3.711   0.342   2.771
21382WAT     H264389   3.795   0.339   2.631
21383WAT      O64390   8.081   2.957   4.492
21383WAT     H164391   8.083   3.048   4.452
21383WAT     H264392   8.174   2.926   4.509
21384WAT      O64393   2.440   6.139   4.922
21384WAT     H164394   2.436   6.108   4.826
21384WAT     H264395   2.535   6.147   4.951
21385WAT      O64396   1.113   8.713   2.528
21385WAT     H164397   1.181   8.777   2.493
21385WAT     H264398   1.159   8.638   2.574
21386WAT      O64399   5.912   4.732   8.462
21386WAT     H164400   5.853   4.656   8.491
21386WAT     H264401   5.856   4.801   8.416
21387WAT      O64402   7.538   4.594   3.897
21387WAT     H164403   7.459   4.533   3.901
21387WAT     H264404   7.588   4.578   3.812
21388WAT      O64405   1.115   7.340   3.726
21388WAT     H164406   1.035   7.397   3.745
21388WAT     H264407   1.088   7.264   3.667
21389WAT      O64408   1.919   4.457   2.409
21389WAT     H164409   1.925   4.513   2.492
21389WAT     H264410   1.836   4.402   2.412
21390WAT      O64411   6.163   5.867   8.030
21390WAT     H164412   6.078   5.815   8.033
21390WAT     H264413   6.167   5.929   8.109
21391WAT      O64414   2.034   9.639   6.316
21391WAT     H164415   1.971   9.588   6.375
21391WAT     H264416   2.077   9.712   6.369
21392WAT      O64417   2.053   0.961   3.717
21392WAT     H164418   2.149   0.953   3.690
21392WAT     H264419   1.995   0.936   3.639
21393WAT      O64420   6.901   5.056   5.922
21393WAT     H164421   6.935   5.088   5.834
21393WAT     H264422   6.831   5.119   5.956
21394WAT      O64423   8.646   1.763   1.600
21394WAT     H164424   8.571   1.776   1.534
21394WAT     H264425   8.631   1.678   1.650
21395WAT      O64426   6.442   6.161   7.238
21395WAT     H164427   6.425   6.146   7.335
21395WAT     H264428   6.375   6.110   7.184
21396WAT      O64429   8.147   7.264   9.039
21396WAT     H164430   8.047   7.264   9.044
21396WAT     H264431   8.184   7.240   9.129
21397WAT      O64432   2.990   9.198   0.604
21397WAT     H164433   3.072   9.239   0.565
21397WAT     H264434   2.941   9.148   0.533
21398WAT      O64435   9.619   8.605   7.603
21398WAT     H164436   9.537   8.555   7.631
21398WAT     H264437   9.675   8.546   7.545
21399WAT      O64438   7.726   4.308   5.013
21399WAT     H164439   7.822   4.289   4.992
21399WAT     H264440   7.668   4.243   4.965
21400WAT      O64441   4.339   2.765   0.102
21400WAT     H164442   4.264   2.826   0.127
21400WAT     H264443   4.417   2.818   0.070
21401WAT      O64444   1.814   2.981   3.916
21401WAT     H164445   1.741   3.015   3.975
21401WAT     H264446   1.890   2.949   3.973
21402WAT      O64447   6.193   2.712   0.274
21402WAT     H164448   6.144   2.715   0.361
21402WAT     H264449   6.197   2.804   0.235
21403WAT      O64450   9.310   5.294   3.355
21403WAT     H164451   9.292   5.200   3.326
21403WAT     H264452   9.383   5.333   3.299
21404WAT      O64453   6.754   2.316   0.181
21404WAT     H164454   6.742   2.408   0.145
21404WAT     H264455   6.664   2.271   0.187
21405WAT      O64456   9.802   9.148   3.635
21405WAT     H164457   9.779   9.168   3.540
21405WAT     H264458   9.895   9.181   3.655
21406WAT      O64459   7.333   7.603   4.736
21406WAT     H164460   7.359   7.598   4.833
21406WAT     H264461   7.285   7.689   4.718
21407WAT      O64462   0.720   4.718   3.684
21407WAT     H164463   0.714   4.719   3.784
21407WAT     H264464   0.633   4.748   3.645
21408WAT      O64465   4.787   6.196   8.199
21408WAT     H164466   4.689   6.187   8.215
21408WAT     H264467   4.833   6.111   8.227
21409WAT      O64468   7.438   2.362   2.717
21409WAT     H164469   7.519   2.372   2.660
21409WAT     H264470   7.434   2.270   2.755
21410WAT      O64471   7.488   8.889   3.601
21410WAT     H164472   7.523   8.890   3.695
21410WAT     H264473   7.566   8.890   3.538
21411WAT      O64474   9.694   4.807   4.394
21411WAT     H164475   9.749   4.870   4.338
21411WAT     H264476   9.666   4.729   4.338
21412WAT      O64477   5.078   6.355   6.993
21412WAT     H164478   5.069   6.455   6.998
21412WAT     H264479   5.157   6.326   7.046
21413WAT      O64480   2.672   0.570   4.719
21413WAT     H164481   2.763   0.593   4.683
21413WAT     H264482   2.673   0.576   4.818
21414WAT      O64483   8.706   8.915   7.072
21414WAT     H164484   8.796   8.942   7.107
21414WAT     H264485   8.681   8.973   6.994
21415WAT      O64486   1.006   7.397   9.188
21415WAT     H164487   1.043   7.351   9.269
21415WAT     H264488   0.918   7.357   9.164
21416WAT      O64489   4.508   2.974   1.536
21416WAT     H164490   4.474   2.974   1.630
21416WAT     H264491   4.478   3.058   1.489
21417WAT      O64492   3.175   0.943   9.815
21417WAT     H164493   3.087   0.896   9.807
21417WAT     H264494   3.170   1.030   9.764
21418WAT      O64495   8.283   2.299   9.601
21418WAT     H164496   8.240   2.360   9.534
21418WAT     H264497   8.288   2.345   9.689
21419WAT      O64498   6.393   2.830   5.749
21419WAT     H164499   6.480   2.784   5.765
21419WAT     H264500   6.327   2.763   5.714
21420WAT      O64501   8.697   5.888   2.595
21420WAT     H164502   8.752   5.862   2.516
21420WAT     H264503   8.707   5.819   2.667
21421WAT      O64504   2.933   9.605   1.187
21421WAT     H164505   2.847   9.651   1.212
21421WAT     H264506   2.957   9.630   1.093
21422WAT      O64507   3.304   5.005   1.262
21422WAT     H164508   3.269   5.018   1.355
21422WAT     H264509   3.335   5.093   1.226
21423WAT      O64510   5.463   0.076   2.025
21423WAT     H164511   5.455   0.154   1.963
21423WAT     H264512   5.505   0.107   2.110
21424WAT      O64513   5.920   0.092   5.480
21424WAT     H164514   5.910   0.191   5.472
21424WAT     H264515   5.829   0.050   5.486
21425WAT      O64516   2.647   8.536   7.166
21425WAT     H164517   2.581   8.606   7.193
21425WAT     H264518   2.633   8.511   7.071
21426WAT      O64519   0.338   4.091   6.787
21426WAT     H164520   0.300   4.065   6.876
21426WAT     H264521   0.355   4.008   6.733
21427WAT      O64522   1.940   6.660   3.978
21427WAT     H164523   1.842   6.662   3.993
21427WAT     H264524   1.961   6.703   3.890
21428WAT      O64525   3.603   9.370   2.311
21428WAT     H164526   3.565   9.409   2.395
21428WAT     H264527   3.703   9.378   2.313
21429WAT      O64528   8.285   6.070   2.065
21429WAT     H164529   8.243   6.161   2.074
21429WAT     H264530   8.350   6.056   2.140
21430WAT      O64531   5.408   5.008   2.755
21430WAT     H164532   5.362   5.020   2.666
21430WAT     H264533   5.372   4.926   2.800
21431WAT      O64534   7.136   3.437   6.872
21431WAT     H164535   7.121   3.366   6.941
21431WAT     H264536   7.233   3.460   6.868
21432WAT      O64537   7.724   5.562   0.339
21432WAT     H164538   7.636   5.516   0.349
21432WAT     H264539   7.769   5.567   0.428
21433WAT      O64540   5.358   6.890   6.989
21433WAT     H164541   5.297   6.964   7.016
21433WAT     H264542   5.374   6.894   6.890
21434WAT      O64543   3.607   9.414   7.161
21434WAT     H164544   3.611   9.325   7.116
21434WAT     H264545   3.554   9.407   7.245
21435WAT      O64546   4.651   8.295   3.435
21435WAT     H164547   4.725   8.362   3.442
21435WAT     H264548   4.596   8.315   3.353
21436WAT      O64549   6.433   8.711   7.952
21436WAT     H164550   6.357   8.738   8.012
21436WAT     H264551   6.397   8.658   7.875
21437WAT      O64552   6.403   2.497   6.417
21437WAT     H164553   6.403   2.534   6.325
21437WAT     H264554   6.328   2.537   6.470
21438WAT      O64555   0.575   2.142   0.553
21438WAT     H164556   0.636   2.217   0.531
21438WAT     H264557   0.628   2.065   0.588
21439WAT      O64558   8.864   3.015   3.836
21439WAT     H164559   8.806   3.037   3.758
21439WAT     H264560   8.863   3.092   3.901
21440WAT      O64561   3.015   3.790   4.967
21440WAT     H164562   3.000   3.691   4.971
21440WAT     H264563   3.070   3.818   5.046
21441WAT      O64564   4.303   8.775   0.059
21441WAT     H164565   4.308   8.853   0.121
21441WAT     H264566   4.342   8.694   0.103
21442WAT      O64567   6.848   0.644   6.840
21442WAT     H164568   6.817   0.714   6.775
21442WAT     H264569   6.799   0.558   6.822
21443WAT      O64570   7.577   4.770   7.681
21443WAT     H164571   7.659   4.796   7.731
21443WAT     H264572   7.554   4.674   7.700
21444WAT      O64573   4.216   3.506   1.515
21444WAT     H164574   4.189   3.467   1.603
21444WAT     H264575   4.311   3.539   1.521
21445WAT      O64576   0.262   2.250   7.741
21445WAT     H164577   0.221   2.301   7.816
21445WAT     H264578   0.244   2.152   7.754
21446WAT      O64579   4.872   3.173   8.413
21446WAT     H164580   4.835   3.173   8.505
21446WAT     H264581   4.971   3.159   8.417
21447WAT      O64582   8.827   9.257   3.788
21447WAT     H164583   8.901   9.191   3.783
21447WAT     H264584   8.755   9.232   3.724
21448WAT      O64585   0.257   4.578   8.708
21448WAT     H164586   0.220   4.671   8.699
21448WAT     H264587   0.251   4.550   8.804
21449WAT      O64588   1.545   7.108   9.623
21449WAT     H164589   1.585   7.194   9.594
21449WAT     H264590   1.449   7.105   9.597
21450WAT      O64591   7.616   5.506   7.741
21450WAT     H164592   7.612   5.425   7.799
21450WAT     H264593   7.532   5.558   7.750
21451WAT      O64594   8.789   5.016   6.505
21451WAT     H164595   8.798   4.919   6.528
21451WAT     H264596   8.696   5.034   6.473
21452WAT      O64597   3.178   9.124   5.822
21452WAT     H164598   3.239   9.046   5.839
21452WAT     H264599   3.196   9.196   5.890
21453WAT      O64600   0.981   7.832   5.611
21453WAT     H164601   0.989   7.918   5.561
21453WAT     H264602   0.931   7.765   5.554
21454WAT      O64603   1.452   7.920   3.676
21454WAT     H164604   1.464   7.836   3.622
21454WAT     H264605   1.427   7.896   3.770
21455WAT      O64606   4.285   4.563   7.688
21455WAT     H164607   4.234   4.637   7.730
21455WAT     H264608   4.345   4.599   7.617
21456WAT      O64609   0.630   7.309   0.403
21456WAT     H164610   0.667   7.218   0.421
21456WAT     H264611   0.672   7.374   0.467
21457WAT      O64612   2.561   2.589   4.286
21457WAT     H164613   2.643   2.628   4.327
21457WAT     H264614   2.573   2.490   4.277
21458WAT      O64615   4.089   4.217   6.972
21458WAT     H164616   4.086   4.143   6.905
21458WAT     H264617   4.076   4.305   6.926
21459WAT      O64618   3.386   7.998   7.137
21459WAT     H164619   3.471   7.960   7.101
21459WAT     H264620   3.309   7.962   7.085
21460WAT      O64621   4.419   7.698   5.925
21460WAT     H164622   4.434   7.599   5.928
21460WAT     H264623   4.429   7.735   6.017
21461WAT      O64624   4.672   7.373   6.476
21461WAT     H164625   4.753   7.316   6.463
21461WAT     H264626   4.634   7.358   6.567
21462WAT      O64627   5.160   1.457   9.719
21462WAT     H164628   5.132   1.361   9.721
21462WAT     H264629   5.094   1.512   9.770
21463WAT      O64630   2.975   0.464   8.538
21463WAT     H164631   2.953   0.366   8.541
21463WAT     H264632   2.890   0.517   8.543
21464WAT      O64633   1.662   6.430   1.175
21464WAT     H164634   1.752   6.394   1.147
21464WAT     H264635   1.672   6.525   1.203
21465WAT      O64636   7.799   7.670   6.202
21465WAT     H164637   7.809   7.754   6.149
21465WAT     H264638   7.870   7.666   6.273
21466WAT      O64639   9.329   0.532   6.003
21466WAT     H164640   9.392   0.498   5.933
21466WAT     H264641   9.305   0.457   6.065
21467WAT      O64642   1.669   1.692   6.014
21467WAT     H164643   1.657   1.707   6.112
21467WAT     H264644   1.611   1.756   5.963
21468WAT      O64645   4.048   7.850   0.190
21468WAT     H164646   3.986   7.927   0.179
21468WAT     H264647   4.137   7.884   0.220
21469WAT      O64648   5.754   8.030   6.936
21469WAT     H164649   5.770   7.976   7.019
21469WAT     H264650   5.715   7.972   6.865
21470WAT      O64651   1.770   8.409   4.460
21470WAT     H164652   1.789   8.431   4.556
21470WAT     H264653   1.782   8.491   4.405
21471WAT      O64654   8.859   1.503   2.370
21471WAT     H164655   8.889   1.408   2.355
21471WAT     H264656   8.763   1.504   2.395
21472WAT      O64657   1.636   1.092   3.614
21472WAT     H164658   1.595   1.128   3.530
21472WAT     H264659   1.676   1.168   3.666
21473WAT      O64660   2.540   8.012   1.848
21473WAT     H164661   2.564   8.025   1.944
21473WAT     H264662   2.529   8.100   1.804
21474WAT      O64663   8.087   6.440   0.366
21474WAT     H164664   8.180   6.470   0.389
21474WAT     H264665   8.025   6.464   0.440
21475WAT      O64666   8.171   7.716   7.632
21475WAT     H164667   8.105   7.788   7.611
21475WAT     H264668   8.199   7.671   7.547
21476WAT      O64669   6.335   2.972   7.445
21476WAT     H164670   6.249   2.961   7.395
21476WAT     H264671   6.316   3.011   7.535
21477WAT      O64672   4.736   6.843   6.174
21477WAT     H164673   4.818   6.796   6.206
21477WAT     H264674   4.655   6.791   6.200
21478WAT      O64675   5.270   7.333   6.422
21478WAT     H164676   5.178   7.318   6.386
21478WAT     H264677   5.318   7.245   6.427
21479WAT      O64678   7.466   5.864   9.609
21479WAT     H164679   7.563   5.887   9.610
21479WAT     H264680   7.446   5.798   9.681
21480WAT      O64681   6.556   7.447   5.128
21480WAT     H164682   6.519   7.540   5.136
21480WAT     H264683   6.501   7.385   5.184
21481WAT      O64684   2.564   3.583   1.324
21481WAT     H164685   2.567   3.515   1.398
21481WAT     H264686   2.626   3.659   1.346
21482WAT      O64687   5.220   2.938   0.514
21482WAT     H164688   5.235   2.897   0.604
21482WAT     H264689   5.135   2.990   0.515
21483WAT      O64690   6.540   4.277   2.859
21483WAT     H164691   6.560   4.341   2.785
21483WAT     H264692   6.526   4.186   2.821
21484WAT      O64693   3.004   8.909   1.244
21484WAT     H164694   3.059   8.993   1.241
21484WAT     H264695   2.940   8.909   1.167
21485WAT      O64696   3.038   1.128   8.480
21485WAT     H164697   3.042   1.167   8.388
21485WAT     H264698   3.030   1.029   8.474
21486WAT      O64699   3.223   1.165   3.828
21486WAT     H164700   3.259   1.248   3.871
21486WAT     H264701   3.125   1.174   3.813
21487WAT      O64702   4.443   3.118   2.322
21487WAT     H164703   4.526   3.173   2.326
21487WAT     H264704   4.394   3.138   2.237
21488WAT      O64705   0.394   9.223   8.178
21488WAT     H164706   0.397   9.192   8.273
21488WAT     H264707   0.366   9.318   8.174
21489WAT      O64708   1.478   7.320   2.352
21489WAT     H164709   1.564   7.368   2.370
21489WAT     H264710   1.423   7.374   2.289
21490WAT      O64711   3.120   5.223   1.953
21490WAT     H164712   3.062   5.286   1.902
21490WAT     H264713   3.216   5.236   1.928
21491WAT      O64714   5.370   9.183   1.749
21491WAT     H164715   5.411   9.189   1.840
21491WAT     H264716   5.280   9.227   1.750
21492WAT      O64717   0.282   4.400   6.397
21492WAT     H164718   0.360   4.341   6.376
21492WAT     H264719   0.251   4.383   6.491
21493WAT      O64720   4.925   0.801   5.228
21493WAT     H164721   4.875   0.880   5.265
21493WAT     H264722   5.001   0.780   5.289
21494WAT      O64723   9.871   8.556   9.583
21494WAT     H164724   9.948   8.567   9.646
21494WAT     H264725   9.895   8.487   9.514
21495WAT      O64726   2.995   4.852   8.088
21495WAT     H164727   3.025   4.869   7.994
21495WAT     H264728   2.919   4.787   8.087
21496WAT      O64729   9.554   7.986   7.369
21496WAT     H164730   9.641   7.936   7.370
21496WAT     H264731   9.483   7.929   7.327
21497WAT      O64732   6.774   9.179   1.548
21497WAT     H164733   6.739   9.240   1.618
21497WAT     H264734   6.857   9.134   1.581
21498WAT      O64735   6.183   1.693   3.457
21498WAT     H164736   6.205   1.769   3.396
21498WAT     H264737   6.087   1.668   3.445
21499WAT      O64738   8.214   1.243   8.429
21499WAT     H164739   8.291   1.219   8.489
21499WAT     H264740   8.158   1.313   8.474
21500WAT      O64741   0.020   2.796   1.393
21500WAT     H164742   0.058   2.772   1.304
21500WAT     H264743   0.068   2.745   1.465
21501WAT      O64744   1.876   1.162   8.254
21501WAT     H164745   1.911   1.161   8.160
21501WAT     H264746   1.951   1.185   8.317
21502WAT      O64747   7.393   3.178   1.814
21502WAT     H164748   7.410   3.107   1.747
21502WAT     H264749   7.479   3.207   1.856
21503WAT      O64750   9.428   6.884   7.270
21503WAT     H164751   9.432   6.966   7.212
21503WAT     H264752   9.514   6.835   7.264
21504WAT      O64753   5.708   1.492   4.682
21504WAT     H164754   5.753   1.582   4.683
21504WAT     H264755   5.730   1.444   4.597
21505WAT      O64756   2.364   8.356   8.171
21505WAT     H164757   2.417   8.387   8.250
21505WAT     H264758   2.284   8.306   8.202
21506WAT      O64759   4.730   2.963   8.328
21506WAT     H164760   4.803   3.021   8.363
21506WAT     H264761   4.657   3.021   8.291
21507WAT      O64762   5.411   4.371   9.550
21507WAT     H164763   5.353   4.365   9.631
21507WAT     H264764   5.371   4.318   9.476
21508WAT      O64765   8.302   4.286   8.403
21508WAT     H164766   8.330   4.347   8.477
21508WAT     H264767   8.375   4.279   8.336
21509WAT      O64768   3.318   8.868   2.953
21509WAT     H164769   3.411   8.867   2.917
21509WAT     H264770   3.290   8.962   2.972
21510WAT      O64771   5.956   9.355   4.722
21510WAT     H164772   5.984   9.419   4.794
21510WAT     H264773   6.007   9.270   4.731
21511WAT      O64774   3.941   5.241   9.601
21511WAT     H164775   3.926   5.214   9.696
21511WAT     H264776   3.990   5.168   9.553
21512WAT      O64777   3.658   0.116   8.905
21512WAT     H164778   3.750   0.079   8.897
21512WAT     H264779   3.625   0.147   8.816
21513WAT      O64780   6.688   0.901   3.564
21513WAT     H164781   6.677   0.918   3.466
21513WAT     H264782   6.598   0.890   3.606
21514WAT      O64783   2.106   0.402   3.255
21514WAT     H164784   2.129   0.340   3.330
21514WAT     H264785   2.099   0.496   3.290
21515WAT      O64786   0.534   2.231   1.927
21515WAT     H164787   0.449   2.256   1.973
21515WAT     H264788   0.515   2.214   1.830
21516WAT      O64789   2.197   9.456   9.250
21516WAT     H164790   2.135   9.531   9.231
21516WAT     H264791   2.148   9.384   9.299
21517WAT      O64792   6.127   2.394   9.147
21517WAT     H164793   6.197   2.423   9.081
21517WAT     H264794   6.039   2.434   9.122
21518WAT      O64795   1.602   7.388   8.309
21518WAT     H164796   1.556   7.446   8.375
21518WAT     H264797   1.540   7.316   8.279
21519WAT      O64798   2.247   4.800   7.357
21519WAT     H164799   2.158   4.833   7.328
21519WAT     H264800   2.236   4.718   7.414
21520WAT      O64801   7.065   2.741   9.205
21520WAT     H164802   7.084   2.831   9.244
21520WAT     H264803   7.121   2.727   9.124
21521WAT      O64804   2.958   1.658   0.968
21521WAT     H164805   2.927   1.753   0.961
21521WAT     H264806   3.049   1.655   1.009
21522WAT      O64807   4.896   1.310   2.158
21522WAT     H164808   4.877   1.293   2.254
21522WAT     H264809   4.965   1.382   2.149
21523WAT      O64810   0.498   6.063   2.669
21523WAT     H164811   0.421   6.002   2.688
21523WAT     H264812   0.468   6.137   2.608
21524WAT      O64813   8.030   9.159   9.573
21524WAT     H164814   8.115   9.107   9.575
21524WAT     H264815   8.036   9.230   9.504
21525WAT      O64816   3.534   0.919   4.520
21525WAT     H164817   3.490   0.831   4.506
21525WAT     H264818   3.604   0.933   4.449
21526WAT      O64819   3.694   2.227   7.719
21526WAT     H164820   3.711   2.326   7.725
21526WAT     H264821   3.712   2.184   7.807
21527WAT      O64822   1.256   7.670   7.156
21527WAT     H164823   1.328   7.633   7.099
21527WAT     H264824   1.230   7.603   7.225
21528WAT      O64825   0.372   9.488   8.228
21528WAT     H164826   0.461   9.479   8.272
21528WAT     H264827   0.377   9.560   8.158
21529WAT      O64828   3.017   9.227   6.425
21529WAT     H164829   3.091   9.168   6.458
21529WAT     H264830   2.943   9.228   6.492
21530WAT      O64831   5.828   1.943   9.816
21530WAT     H164832   5.834   1.843   9.818
21530WAT     H264833   5.765   1.971   9.743
21531WAT      O64834   3.168   0.087   8.460
21531WAT     H164835   3.226   0.078   8.541
21531WAT     H264836   3.194   0.018   8.392
21532WAT      O64837   0.947   7.797   5.031
21532WAT     H164838   1.022   7.863   5.030
21532WAT     H264839   0.979   7.711   5.070
21533WAT      O64840   7.676   5.813   7.490
21533WAT     H164841   7.598   5.871   7.467
21533WAT     H264842   7.643   5.727   7.530
21534WAT      O64843   7.552   7.592   6.270
21534WAT     H164844   7.640   7.621   6.233
21534WAT     H264845   7.554   7.598   6.370
21535WAT      O64846   0.136   9.582   2.144
21535WAT     H164847   0.171   9.671   2.174
21535WAT     H264848   0.208   9.533   2.094
21536WAT      O64849   2.597   1.050   6.386
21536WAT     H164850   2.595   0.981   6.459
21536WAT     H264851   2.516   1.108   6.393
21537WAT      O64852   9.142   4.882   2.036
21537WAT     H164853   9.227   4.926   2.062
21537WAT     H264854   9.162   4.794   1.992
21538WAT      O64855   4.108   1.037   4.618
21538WAT     H164856   4.083   1.132   4.601
21538WAT     H264857   4.202   1.034   4.653
21539WAT      O64858   1.454   0.735   8.342
21539WAT     H164859   1.507   0.658   8.308
21539WAT     H264860   1.476   0.817   8.289
21540WAT      O64861   1.267   6.479   3.361
21540WAT     H164862   1.313   6.563   3.390
21540WAT     H264863   1.198   6.454   3.429
21541WAT      O64864   8.713   8.383   1.241
21541WAT     H164865   8.773   8.305   1.219
21541WAT     H264866   8.668   8.366   1.328
21542WAT      O64867   8.032   4.997   0.863
21542WAT     H164868   8.041   5.095   0.849
21542WAT     H264869   8.025   4.951   0.775
21543WAT      O64870   9.875   4.633   0.574
21543WAT     H164871   9.898   4.536   0.588
21543WAT     H264872   9.792   4.655   0.625
21544WAT      O64873   5.996   2.263   1.410
21544WAT     H164874   5.984   2.190   1.342
21544WAT     H264875   5.979   2.351   1.366
21545WAT      O64876   1.494   6.937   3.775
21545WAT     H164877   1.540   6.848   3.778
21545WAT     H264878   1.508   6.979   3.686
21546WAT      O64879   4.065   0.451   0.446
21546WAT     H164880   4.115   0.372   0.408
21546WAT     H264881   4.130   0.517   0.482
21547WAT      O64882   7.415   2.713   6.350
21547WAT     H164883   7.475   2.768   6.292
21547WAT     H264884   7.443   2.723   6.446
21548WAT      O64885   0.371   1.378   2.595
21548WAT     H164886   0.398   1.424   2.680
21548WAT     H264887   0.451   1.334   2.554
21549WAT      O64888   5.474   2.266   5.175
21549WAT     H164889   5.540   2.198   5.208
21549WAT     H264890   5.504   2.301   5.086
21550WAT      O64891   3.643   0.401   6.881
21550WAT     H164892   3.580   0.387   6.804
21550WAT     H264893   3.647   0.498   6.903
21551WAT      O64894   0.838   1.883   3.285
21551WAT     H164895   0.795   1.971   3.269
21551WAT     H264896   0.770   1.818   3.318
21552WAT      O64897   7.520   2.204   5.251
21552WAT     H164898   7.503   2.162   5.161
21552WAT     H264899   7.490   2.300   5.248
21553WAT      O64900   6.337   2.777   6.209
21553WAT     H164901   6.421   2.813   6.169
21553WAT     H264902   6.315   2.688   6.168
21554WAT      O64903   5.444   4.359   8.994
21554WAT     H164904   5.419   4.262   8.988
21554WAT     H264905   5.535   4.372   8.954
21555WAT      O64906   3.807   6.972   2.836
21555WAT     H164907   3.784   6.879   2.807
21555WAT     H264908   3.734   7.034   2.808
21556WAT      O64909   7.331   5.747   4.031
21556WAT     H164910   7.368   5.783   3.945
21556WAT     H264911   7.382   5.665   4.057
21557WAT      O64912   5.852   9.609   3.961
21557WAT     H164913   5.854   9.548   4.040
21557WAT     H264914   5.762   9.653   3.955
21558WAT      O64915   7.688   4.935   9.869
21558WAT     H164916   7.589   4.935   9.856
21558WAT     H264917   7.722   4.841   9.868
21559WAT      O64918   4.589   2.587   2.366
21559WAT     H164919   4.618   2.679   2.340
21559WAT     H264920   4.668   2.532   2.392
21560WAT      O64921   8.822   5.859   1.748
21560WAT     H164922   8.882   5.929   1.708
21560WAT     H264923   8.791   5.889   1.838
21561WAT      O64924   8.285   0.793   0.084
21561WAT     H164925   8.353   0.727   0.054
21561WAT     H264926   8.230   0.753   0.157
21562WAT      O64927   3.591   9.821   0.059
21562WAT     H164928   3.628   9.831  -0.033
21562WAT     H264929   3.624   9.896   0.117
21563WAT      O64930   2.059   5.751   1.693
21563WAT     H164931   2.006   5.774   1.611
21563WAT     H264932   2.022   5.669   1.735
21564WAT      O64933   2.683   9.406   6.463
21564WAT     H164934   2.706   9.312   6.437
21564WAT     H264935   2.584   9.413   6.477
21565WAT      O64936   6.403   3.801   5.144
21565WAT     H164937   6.378   3.801   5.241
21565WAT     H264938   6.380   3.712   5.104
21566WAT      O64939   1.010   4.538   0.607
21566WAT     H164940   0.922   4.491   0.601
21566WAT     H264941   1.075   4.480   0.656
21567WAT      O64942   3.716   9.320   0.866
21567WAT     H164943   3.782   9.258   0.822
21567WAT     H264944   3.634   9.327   0.809
21568WAT      O64945   5.964   1.176   9.622
21568WAT     H164946   5.946   1.079   9.639
21568WAT     H264947   6.052   1.202   9.662
21569WAT      O64948   3.869   0.499   0.224
21569WAT     H164949   3.855   0.581   0.169
21569WAT     H264950   3.944   0.514   0.288
21570WAT      O64951   5.258   7.920   4.188
21570WAT     H164952   5.358   7.928   4.196
21570WAT     H264953   5.215   7.964   4.266
21571WAT      O64954   0.831   2.749   5.834
21571WAT     H164955   0.822   2.649   5.827
21571WAT     H264956   0.928   2.773   5.838
21572WAT      O64957   1.931   4.845   3.611
21572WAT     H164958   1.851   4.903   3.627
21572WAT     H264959   2.008   4.878   3.666
21573WAT      O64960   7.365   4.381   7.106
21573WAT     H164961   7.374   4.480   7.112
21573WAT     H264962   7.324   4.356   7.018
21574WAT      O64963   2.505   3.315   1.109
21574WAT     H164964   2.526   3.279   1.018
21574WAT     H264965   2.589   3.340   1.156
21575WAT      O64966   0.087   5.668   2.919
21575WAT     H164967  -0.001   5.702   2.950
21575WAT     H264968   0.086   5.658   2.819
21576WAT      O64969   1.846   0.334   9.806
21576WAT     H164970   1.932   0.290   9.781
21576WAT     H264971   1.794   0.355   9.723
21577WAT      O64972   7.118   3.130   6.825
21577WAT     H164973   7.213   3.147   6.796
21577WAT     H264974   7.056   3.156   6.751
21578WAT      O64975   5.517   5.687   7.217
21578WAT     H164976   5.463   5.770   7.230
21578WAT     H264977   5.459   5.616   7.178
21579WAT      O64978   6.474   7.968   4.205
21579WAT     H164979   6.493   7.875   4.172
21579WAT     H264980   6.545   7.994   4.271
21580WAT      O64981   7.021   5.345   5.454
21580WAT     H164982   6.989   5.416   5.516
21580WAT     H264983   7.069   5.274   5.505
21581WAT      O64984   1.500   0.621   0.523
21581WAT     H164985   1.566   0.696   0.532
21581WAT     H264986   1.438   0.640   0.447
21582WAT      O64987   0.287   3.352   4.128
21582WAT     H164988   0.327   3.411   4.197
21582WAT     H264989   0.195   3.324   4.157
21583WAT      O64990   4.823   4.335   1.113
21583WAT     H164991   4.893   4.363   1.048
21583WAT     H264992   4.826   4.396   1.193
21584WAT      O64993   2.380   1.989   1.644
21584WAT     H164994   2.426   1.972   1.731
21584WAT     H264995   2.297   1.934   1.639
21585WAT      O64996   2.621   6.427   8.478
21585WAT     H164997   2.586   6.491   8.546
21585WAT     H264998   2.546   6.389   8.425
21586WAT      O64999   1.062   4.353   7.047
21586WAT     H165000   1.045   4.265   7.002
21586WAT     H265001   0.978   4.384   7.092
21587WAT      O65002   4.476   0.108   8.087
21587WAT     H165003   4.442   0.115   8.181
21587WAT     H265004   4.403   0.132   8.024
21588WAT      O65005   6.144   8.525   4.569
21588WAT     H165006   6.162   8.576   4.653
21588WAT     H265007   6.218   8.540   4.504
21589WAT      O65008   0.942   7.935   8.631
21589WAT     H165009   0.935   7.984   8.718
21589WAT     H265010   0.858   7.881   8.617
21590WAT      O65011   4.640   8.909   5.283
21590WAT     H165012   4.578   8.982   5.311
21590WAT     H265013   4.615   8.876   5.192
21591WAT      O65014   3.206   9.440   7.401
21591WAT     H165015   3.192   9.494   7.318
21591WAT     H265016   3.118   9.423   7.445
21592WAT      O65017   9.332   7.487   3.895
21592WAT     H165018   9.414   7.466   3.949
21592WAT     H265019   9.293   7.402   3.860
21593WAT      O65020   4.935   2.655   1.765
21593WAT     H165021   5.005   2.726   1.755
21593WAT     H265022   4.921   2.610   1.677
21594WAT      O65023   1.234   2.329   1.027
21594WAT     H165024   1.234   2.268   0.948
21594WAT     H265025   1.309   2.394   1.020
21595WAT      O65026   7.619   7.688   5.087
21595WAT     H165027   7.597   7.770   5.139
21595WAT     H265028   7.685   7.711   5.014
21596WAT      O65029   6.236   6.477   0.774
21596WAT     H165030   6.296   6.455   0.697
21596WAT     H265031   6.153   6.522   0.740
21597WAT      O65032   2.975   8.759   7.900
21597WAT     H165033   3.036   8.832   7.931
21597WAT     H265034   2.933   8.715   7.980
21598WAT      O65035   3.556   8.523   4.596
21598WAT     H165036   3.550   8.620   4.575
21598WAT     H265037   3.646   8.502   4.634
21599WAT      O65038   7.641   5.835   3.525
21599WAT     H165039   7.705   5.807   3.597
21599WAT     H265040   7.683   5.820   3.435
21600WAT      O65041   5.442   1.923   8.297
21600WAT     H165042   5.380   1.996   8.325
21600WAT     H265043   5.536   1.957   8.298
21601WAT      O65044   8.225   8.647   4.718
21601WAT     H165045   8.284   8.645   4.637
21601WAT     H265046   8.278   8.617   4.798
21602WAT      O65047   2.068   4.080   4.194
21602WAT     H165048   2.017   4.152   4.148
21602WAT     H265049   2.125   4.120   4.266
21603WAT      O65050   8.168   9.100   8.338
21603WAT     H165051   8.154   9.110   8.436
21603WAT     H265052   8.233   9.169   8.306
21604WAT      O65053   1.341   7.167   6.469
21604WAT     H165054   1.295   7.249   6.435
21604WAT     H265055   1.372   7.112   6.392
21605WAT      O65056   8.657   9.842   9.120
21605WAT     H165057   8.570   9.794   9.105
21605WAT     H265058   8.707   9.798   9.195
21606WAT      O65059   4.721   2.721   8.451
21606WAT     H165060   4.815   2.688   8.449
21606WAT     H265061   4.716   2.812   8.409
21607WAT      O65062   1.095   1.316   2.320
21607WAT     H165063   1.064   1.319   2.415
21607WAT     H265064   1.041   1.249   2.269
21608WAT      O65065   0.189   5.939   9.015
21608WAT     H165066   0.282   5.927   9.050
21608WAT     H265067   0.187   6.015   8.950
21609WAT      O65068   7.059   1.902   6.670
21609WAT     H165069   7.061   1.878   6.573
21609WAT     H265070   7.084   1.822   6.724
21610WAT      O65071   9.419   4.346   9.816
21610WAT     H165072   9.414   4.445   9.831
21610WAT     H265073   9.413   4.327   9.719
21611WAT      O65074   7.951   8.341   6.822
21611WAT     H165075   7.880   8.351   6.892
21611WAT     H265076   7.991   8.431   6.803
21612WAT      O65077   2.451   8.975   1.017
21612WAT     H165078   2.484   8.952   0.925
21612WAT     H265079   2.505   8.927   1.085
21613WAT      O65080   1.454   5.581   8.553
21613WAT     H165081   1.358   5.559   8.571
21613WAT     H265082   1.469   5.585   8.454
21614WAT      O65083   9.109   0.325   4.531
21614WAT     H165084   9.208   0.327   4.514
21614WAT     H265085   9.093   0.319   4.630
21615WAT      O65086   2.254   3.610   0.440
21615WAT     H165087   2.250   3.648   0.532
21615WAT     H265088   2.174   3.552   0.425
21616WAT      O65089   3.609   2.437   6.085
21616WAT     H165090   3.674   2.481   6.023
21616WAT     H265091   3.652   2.359   6.130
21617WAT      O65092   7.006   2.023   5.033
21617WAT     H165093   7.036   1.947   4.976
21617WAT     H265094   6.907   2.036   5.022
21618WAT      O65095   0.608   9.464   0.056
21618WAT     H165096   0.678   9.490  -0.011
21618WAT     H265097   0.648   9.403   0.124
21619WAT      O65098   0.274   1.749   6.192
21619WAT     H165099   0.183   1.773   6.159
21619WAT     H265100   0.296   1.656   6.164
21620WAT      O65101   1.084   5.841   8.643
21620WAT     H165102   1.056   5.790   8.724
21620WAT     H265103   1.179   5.819   8.621
21621WAT      O65104   2.628   4.761   1.829
21621WAT     H165105   2.630   4.665   1.857
21621WAT     H265106   2.720   4.788   1.799
21622WAT      O65107   5.486   5.919   2.877
21622WAT     H165108   5.399   5.898   2.921
21622WAT     H265109   5.488   5.878   2.786
21623WAT      O65110   0.596   3.993   8.867
21623WAT     H165111   0.618   3.961   8.959
21623WAT     H265112   0.520   3.939   8.830
21624WAT      O65113   8.535   5.395   4.696
21624WAT     H165114   8.504   5.303   4.721
21624WAT     H265115   8.539   5.452   4.778
21625WAT      O65116   7.359   2.654   4.187
21625WAT     H165117   7.405   2.741   4.200
21625WAT     H265118   7.291   2.662   4.114
21626WAT      O65119   1.422   3.481   5.456
21626WAT     H165120   1.508   3.493   5.505
21626WAT     H265121   1.435   3.505   5.359
21627WAT      O65122   7.379   8.453   2.103
21627WAT     H165123   7.435   8.509   2.042
21627WAT     H265124   7.434   8.426   2.182
21628WAT      O65125   5.944   4.162   3.237
21628WAT     H165126   5.912   4.191   3.327
21628WAT     H265127   5.996   4.236   3.195
21629WAT      O65128   5.484   0.177   1.596
21629WAT     H165129   5.471   0.232   1.678
21629WAT     H265130   5.569   0.125   1.604
21630WAT      O65131   0.506   1.011   4.839
21630WAT     H165132   0.594   1.032   4.883
21630WAT     H265133   0.443   1.086   4.854
21631WAT      O65134   9.482   6.347   3.192
21631WAT     H165135   9.384   6.342   3.173
21631WAT     H265136   9.499   6.327   3.288
21632WAT      O65137   2.004   3.466   1.918
21632WAT     H165138   2.053   3.504   1.996
21632WAT     H265139   2.006   3.533   1.843
21633WAT      O65140   7.182   7.857   6.482
21633WAT     H165141   7.202   7.793   6.408
21633WAT     H265142   7.247   7.843   6.557
21634WAT      O65143   5.520   2.069   8.972
21634WAT     H165144   5.471   2.119   9.043
21634WAT     H265145   5.478   1.979   8.961
21635WAT      O65146   3.875   0.269   2.482
21635WAT     H165147   3.806   0.286   2.412
21635WAT     H265148   3.966   0.274   2.441
21636WAT      O65149   4.373   8.189   9.175
21636WAT     H165150   4.325   8.240   9.246
21636WAT     H265151   4.467   8.174   9.203
21637WAT      O65152   8.404   8.755   2.131
21637WAT     H165153   8.428   8.743   2.227
21637WAT     H265154   8.458   8.831   2.093
21638WAT      O65155   8.022   2.961   0.944
21638WAT     H165156   7.923   2.972   0.937
21638WAT     H265157   8.046   2.864   0.930
21639WAT      O65158   2.974   3.192   5.473
21639WAT     H165159   2.972   3.093   5.456
21639WAT     H265160   2.923   3.212   5.557
21640WAT      O65161   7.023   4.357   8.642
21640WAT     H165162   6.963   4.350   8.562
21640WAT     H265163   6.985   4.302   8.716
21641WAT      O65164   7.425   9.267   5.281
21641WAT     H165165   7.334   9.291   5.316
21641WAT     H265166   7.465   9.196   5.339
21642WAT      O65167   3.859   7.290   2.430
21642WAT     H165168   3.944   7.318   2.474
21642WAT     H265169   3.813   7.222   2.487
21643WAT      O65170   6.793   9.031   9.113
21643WAT     H165171   6.886   9.025   9.075
21643WAT     H265172   6.799   9.044   9.212
21644WAT      O65173   2.858   0.757   2.387
21644WAT     H165174   2.951   0.720   2.390
21644WAT     H265175   2.855   0.833   2.323
21645WAT      O65176   6.438   7.421   0.542
21645WAT     H165177   6.403   7.502   0.494
21645WAT     H265178   6.405   7.422   0.636
21646WAT      O65179   7.225   6.312   9.218
21646WAT     H165180   7.251   6.366   9.139
21646WAT     H265181   7.136   6.343   9.252
21647WAT      O65182   0.273   0.702   1.438
21647WAT     H165183   0.227   0.788   1.419
21647WAT     H265184   0.337   0.681   1.364
21648WAT      O65185   8.470   5.968   4.935
21648WAT     H165186   8.417   5.902   4.881
21648WAT     H265187   8.522   5.919   5.005
21649WAT      O65188   1.167   7.461   2.149
21649WAT     H165189   1.247   7.515   2.176
21649WAT     H265190   1.122   7.504   2.072
21650WAT      O65191   4.820   3.065   1.933
21650WAT     H165192   4.813   2.982   1.989
21650WAT     H265193   4.862   3.042   1.845
21651WAT      O65194   5.876   8.611   4.014
21651WAT     H165195   5.800   8.548   4.029
21651WAT     H265196   5.945   8.597   4.085
21652WAT      O65197   7.162   2.929   4.449
21652WAT     H165198   7.201   2.944   4.358
21652WAT     H265199   7.100   2.851   4.446
21653WAT      O65200   9.447   0.460   5.755
21653WAT     H165201   9.355   0.463   5.717
21653WAT     H265202   9.512   0.431   5.685
21654WAT      O65203   5.024   1.098   5.343
21654WAT     H165204   5.112   1.131   5.377
21654WAT     H265205   4.974   1.053   5.417
21655WAT      O65206   3.130   5.239   1.120
21655WAT     H165207   3.046   5.187   1.110
21655WAT     H265208   3.129   5.288   1.207
21656WAT      O65209   6.555   5.893   1.258
21656WAT     H165210   6.624   5.958   1.223
21656WAT     H265211   6.600   5.807   1.281
21657WAT      O65212   2.512   3.153   7.042
21657WAT     H165213   2.431   3.159   7.101
21657WAT     H265214   2.593   3.136   7.099
21658WAT      O65215   3.390   2.426   2.889
21658WAT     H165216   3.310   2.385   2.934
21658WAT     H265217   3.411   2.375   2.805
21659WAT      O65218   2.872   0.250   1.529
21659WAT     H165219   2.923   0.332   1.502
21659WAT     H265220   2.778   0.276   1.552
21660WAT      O65221   5.668   9.792   9.745
21660WAT     H165222   5.753   9.812   9.794
21660WAT     H265223   5.649   9.866   9.680
21661WAT      O65224   1.663   7.199   2.925
21661WAT     H165225   1.699   7.150   3.005
21661WAT     H265226   1.590   7.261   2.954
21662WAT      O65227   8.137   2.483   2.119
21662WAT     H165228   8.131   2.386   2.142
21662WAT     H265229   8.088   2.537   2.186
21663WAT      O65230   2.096   6.317   5.864
21663WAT     H165231   2.015   6.260   5.854
21663WAT     H265232   2.085   6.400   5.809
21664WAT      O65233   0.476   7.205   6.116
21664WAT     H165234   0.463   7.279   6.181
21664WAT     H265235   0.402   7.206   6.049
21665WAT      O65236   5.850   3.750   9.200
21665WAT     H165237   5.827   3.830   9.254
21665WAT     H265238   5.825   3.667   9.250
21666WAT      O65239   8.626   7.068   1.399
21666WAT     H165240   8.625   7.022   1.488
21666WAT     H265241   8.551   7.135   1.396
21667WAT      O65242   8.950   6.901   7.014
21667WAT     H165243   8.997   6.943   7.091
21667WAT     H265244   9.006   6.826   6.978
21668WAT      O65245   1.284   4.352   7.467
21668WAT     H165246   1.374   4.333   7.429
21668WAT     H265247   1.288   4.434   7.524
21669WAT      O65248   6.508   5.698   1.575
21669WAT     H165249   6.491   5.660   1.666
21669WAT     H265250   6.606   5.715   1.564
21670WAT      O65251   9.884   1.868   1.637
21670WAT     H165252   9.809   1.866   1.704
21670WAT     H265253   9.937   1.952   1.649
21671WAT      O65254   8.728   8.949   7.991
21671WAT     H165255   8.779   8.868   8.023
21671WAT     H265256   8.750   8.967   7.895
21672WAT      O65257   9.604   0.326   5.575
21672WAT     H165258   9.687   0.273   5.561
21672WAT     H265259   9.555   0.335   5.489
21673WAT      O65260   9.532   2.878   4.172
21673WAT     H165261   9.554   2.789   4.214
21673WAT     H265262   9.495   2.939   4.242
21674WAT      O65263   6.885   4.659   5.274
21674WAT     H165264   6.840   4.658   5.364
21674WAT     H265265   6.983   4.674   5.286
21675WAT      O65266   9.196   8.617   6.660
21675WAT     H165267   9.192   8.518   6.671
21675WAT     H265268   9.123   8.647   6.599
21676WAT      O65269   4.313   8.045   3.316
21676WAT     H165270   4.221   8.064   3.281
21676WAT     H265271   4.314   7.956   3.361
21677WAT      O65272   7.226   1.374   5.961
21677WAT     H165273   7.278   1.357   6.044
21677WAT     H265274   7.134   1.405   5.985
21678WAT      O65275   7.438   6.226   0.440
21678WAT     H165276   7.524   6.277   0.444
21678WAT     H265277   7.440   6.153   0.508
21679WAT      O65278   4.882   9.716   2.873
21679WAT     H165279   4.825   9.671   2.942
21679WAT     H265280   4.950   9.651   2.839
21680WAT      O65281   5.234   1.801   7.926
21680WAT     H165282   5.321   1.782   7.971
21680WAT     H265283   5.227   1.744   7.844
21681WAT      O65284   2.912   9.832   3.873
21681WAT     H165285   2.843   9.853   3.803
21681WAT     H265286   3.001   9.869   3.844
21682WAT      O65287   3.943   6.412   0.267
21682WAT     H165288   3.930   6.501   0.224
21682WAT     H265289   3.875   6.348   0.234
21683WAT      O65290   7.219   0.315   6.867
21683WAT     H165291   7.305   0.346   6.825
21683WAT     H265292   7.195   0.375   6.943
21684WAT      O65293   8.351   8.592   0.083
21684WAT     H165294   8.414   8.661   0.118
21684WAT     H265295   8.289   8.564   0.156
21685WAT      O65296   7.828   1.134   5.355
21685WAT     H165297   7.785   1.196   5.422
21685WAT     H265298   7.892   1.186   5.299
21686WAT      O65299   9.626   2.704   7.071
21686WAT     H165300   9.624   2.778   7.139
21686WAT     H265301   9.711   2.710   7.018
21687WAT      O65302   6.074   5.137   2.732
21687WAT     H165303   6.118   5.220   2.767
21687WAT     H265304   6.033   5.087   2.808
21688WAT      O65305   7.425   6.842   8.426
21688WAT     H165306   7.420   6.885   8.335
21688WAT     H265307   7.447   6.912   8.494
21689WAT      O65308   4.335   5.295   9.304
21689WAT     H165309   4.369   5.384   9.333
21689WAT     H265310   4.397   5.257   9.235
21690WAT      O65311   1.491   0.032   3.552
21690WAT     H165312   1.501   0.131   3.547
21690WAT     H265313   1.423   0.002   3.485
21691WAT      O65314   4.434   8.595   7.713
21691WAT     H165315   4.516   8.643   7.745
21691WAT     H265316   4.460   8.516   7.659
21692WAT      O65317   8.701   2.855   8.267
21692WAT     H165318   8.656   2.800   8.197
21692WAT     H265319   8.730   2.796   8.343
21693WAT      O65320   1.004   3.884   3.861
21693WAT     H165321   0.989   3.846   3.769
21693WAT     H265322   1.009   3.809   3.927
21694WAT      O65323   5.382   6.040   9.404
21694WAT     H165324   5.357   6.018   9.309
21694WAT     H265325   5.373   5.958   9.460
21695WAT      O65326   1.184   2.833   5.228
21695WAT     H165327   1.160   2.850   5.132
21695WAT     H265328   1.254   2.762   5.233
21696WAT      O65329   9.089   9.725   6.965
21696WAT     H165330   9.151   9.670   6.908
21696WAT     H265331   9.118   9.821   6.961
21697WAT      O65332   1.818   8.542   3.593
21697WAT     H165333   1.908   8.546   3.637
21697WAT     H265334   1.830   8.540   3.493
21698WAT      O65335   1.208   5.516   0.062
21698WAT     H165336   1.234   5.606   0.025
21698WAT     H265337   1.129   5.481   0.012
21699WAT      O65338   3.183   3.670   5.989
21699WAT     H165339   3.185   3.766   6.017
21699WAT     H265340   3.231   3.659   5.903
21700WAT      O65341   8.310   6.912   6.418
21700WAT     H165342   8.232   6.862   6.454
21700WAT     H265343   8.393   6.859   6.431
21701WAT      O65344   3.050   7.303   0.461
21701WAT     H165345   3.046   7.383   0.519
21701WAT     H265346   3.077   7.330   0.368
21702WAT      O65347   8.074   2.299   5.336
21702WAT     H165348   8.097   2.344   5.422
21702WAT     H265349   7.975   2.285   5.330
21703WAT      O65350   0.063   3.707   2.313
21703WAT     H165351   0.102   3.617   2.331
21703WAT     H265352  -0.005   3.700   2.240
21704WAT      O65353   3.453   5.583   7.462
21704WAT     H165354   3.392   5.504   7.465
21704WAT     H265355   3.541   5.559   7.502
21705WAT      O65356   3.984   3.897   3.970
21705WAT     H165357   4.072   3.850   3.978
21705WAT     H265358   3.914   3.845   4.018
21706WAT      O65359   7.503   1.868   8.709
21706WAT     H165360   7.469   1.784   8.667
21706WAT     H265361   7.481   1.945   8.649
21707WAT      O65362   7.610   1.118   0.801
21707WAT     H165363   7.670   1.178   0.749
21707WAT     H265364   7.569   1.050   0.740
21708WAT      O65365   8.596   9.782   2.647
21708WAT     H165366   8.632   9.688   2.647
21708WAT     H265367   8.519   9.788   2.584
21709WAT      O65368   5.584   6.274   2.315
21709WAT     H165369   5.567   6.372   2.305
21709WAT     H265370   5.499   6.227   2.338
21710WAT      O65371   6.214   0.826   9.661
21710WAT     H165372   6.239   0.838   9.565
21710WAT     H265373   6.194   0.729   9.678
21711WAT      O65374   1.515   7.776   1.825
21711WAT     H165375   1.437   7.813   1.874
21711WAT     H265376   1.597   7.785   1.882
21712WAT      O65377   3.369   8.665   3.920
21712WAT     H165378   3.449   8.653   3.979
21712WAT     H265379   3.389   8.736   3.851
21713WAT      O65380   1.850   3.106   7.210
21713WAT     H165381   1.871   3.192   7.257
21713WAT     H265382   1.928   3.081   7.152
21714WAT      O65383   8.059   5.714   8.431
21714WAT     H165384   7.987   5.781   8.453
21714WAT     H265385   8.122   5.707   8.507
21715WAT      O65386   5.267   4.031   9.522
21715WAT     H165387   5.220   3.948   9.551
21715WAT     H265388   5.347   4.007   9.468
21716WAT      O65389   3.777   0.949   4.355
21716WAT     H165390   3.849   0.924   4.420
21716WAT     H265391   3.819   0.972   4.267
21717WAT      O65392   4.902   1.252   6.680
21717WAT     H165393   4.989   1.301   6.676
21717WAT     H265394   4.835   1.298   6.622
21718WAT      O65395   7.591   8.969   5.716
21718WAT     H165396   7.655   8.907   5.763
21718WAT     H265397   7.552   9.033   5.783
21719WAT      O65398   4.043   9.551   4.348
21719WAT     H165399   4.123   9.569   4.406
21719WAT     H265400   4.044   9.455   4.319
21720WAT      O65401   9.570   1.870   3.265
21720WAT     H165402   9.535   1.784   3.304
21720WAT     H265403   9.669   1.863   3.253
21721WAT      O65404   3.576   3.798   5.505
21721WAT     H165405   3.636   3.769   5.430
21721WAT     H265406   3.554   3.895   5.494
21722WAT      O65407   3.694   7.121   2.581
21722WAT     H165408   3.712   7.033   2.536
21722WAT     H265409   3.603   7.153   2.556
21723WAT      O65410   3.803   1.277   4.994
21723WAT     H165411   3.806   1.202   4.927
21723WAT     H265412   3.868   1.258   5.068
21724WAT      O65413   2.655   9.549   0.714
21724WAT     H165414   2.564   9.559   0.754
21724WAT     H265415   2.649   9.554   0.615
21725WAT      O65416   7.938   0.968   6.763
21725WAT     H165417   7.948   1.068   6.761
21725WAT     H265418   8.019   0.925   6.725
21726WAT      O65419   2.600   7.278   3.402
21726WAT     H165420   2.616   7.308   3.496
21726WAT     H265421   2.522   7.216   3.400
21727WAT      O65422   9.372   9.266   7.426
21727WAT     H165423   9.344   9.309   7.512
21727WAT     H265424   9.432   9.328   7.376
21728WAT      O65425   6.762   7.932   1.911
21728WAT     H165426   6.786   7.902   2.004
21728WAT     H265427   6.835   7.906   1.848
21729WAT      O65428   9.038   7.716   1.186
21729WAT     H165429   9.121   7.688   1.234
21729WAT     H265430   9.044   7.688   1.090
21730WAT      O65431   2.688   7.266   9.873
21730WAT     H165432   2.678   7.347   9.814
21730WAT     H265433   2.616   7.267   9.942
21731WAT      O65434   5.360   9.488   4.000
21731WAT     H165435   5.321   9.499   3.909
21731WAT     H265436   5.324   9.404   4.041
21732WAT      O65437   0.094   1.388   4.974
21732WAT     H165438   0.091   1.446   5.056
21732WAT     H265439   0.189   1.369   4.951
21733WAT      O65440   0.893   9.380   0.448
21733WAT     H165441   0.977   9.365   0.397
21733WAT     H265442   0.915   9.394   0.545
21734WAT      O65443   8.025   6.733   5.049
21734WAT     H165444   8.086   6.672   5.099
21734WAT     H265445   8.066   6.757   4.961
21735WAT      O65446   3.650   0.024   4.477
21735WAT     H165447   3.658   0.032   4.378
21735WAT     H265448   3.582  -0.046   4.499
21736WAT      O65449   5.280   6.439   9.263
21736WAT     H165450   5.239   6.381   9.333
21736WAT     H265451   5.342   6.505   9.306
21737WAT      O65452   6.529   0.569   0.872
21737WAT     H165453   6.495   0.505   0.803
21737WAT     H265454   6.598   0.628   0.831
21738WAT      O65455   9.817   8.261   7.060
21738WAT     H165456   9.780   8.319   7.132
21738WAT     H265457   9.825   8.314   6.976
21739WAT      O65458   1.921   4.171   6.115
21739WAT     H165459   1.907   4.233   6.038
21739WAT     H265460   1.939   4.079   6.080
21740WAT      O65461   5.132   3.389   7.841
21740WAT     H165462   5.228   3.392   7.813
21740WAT     H265463   5.124   3.423   7.935
21741WAT      O65464   6.748   4.450   7.112
21741WAT     H165465   6.690   4.433   7.031
21741WAT     H265466   6.780   4.545   7.110
21742WAT      O65467   6.292   6.636   7.446
21742WAT     H165468   6.204   6.663   7.482
21742WAT     H265469   6.347   6.593   7.518
21743WAT      O65470   4.016   5.037   4.004
21743WAT     H165471   4.069   5.084   4.074
21743WAT     H265472   3.959   5.102   3.956
21744WAT      O65473   2.752   3.590   5.539
21744WAT     H165474   2.787   3.515   5.483
21744WAT     H265475   2.828   3.642   5.578
21745WAT      O65476   5.535   2.360   0.265
21745WAT     H165477   5.481   2.283   0.298
21745WAT     H265478   5.632   2.341   0.278
21746WAT      O65479   0.067   6.963   0.445
21746WAT     H165480   0.127   7.033   0.484
21746WAT     H265481   0.042   6.898   0.517
21747WAT      O65482   8.124   2.958   8.129
21747WAT     H165483   8.078   2.869   8.136
21747WAT     H265484   8.168   2.979   8.217
21748WAT      O65485   7.632   7.017   9.351
21748WAT     H165486   7.661   7.014   9.446
21748WAT     H265487   7.561   7.087   9.340
21749WAT      O65488   1.893   8.161   6.422
21749WAT     H165489   1.931   8.185   6.333
21749WAT     H265490   1.953   8.194   6.495
21750WAT      O65491   6.926   5.616   8.797
21750WAT     H165492   6.894   5.691   8.740
21750WAT     H265493   6.854   5.590   8.862
21751WAT      O65494   5.414   3.238   0.811
21751WAT     H165495   5.336   3.199   0.862
21751WAT     H265496   5.394   3.237   0.713
21752WAT      O65497   1.319   4.413   2.569
21752WAT     H165498   1.289   4.426   2.474
21752WAT     H265499   1.394   4.476   2.589
21753WAT      O65500   4.444   6.713   7.389
21753WAT     H165501   4.525   6.739   7.442
21753WAT     H265502   4.408   6.793   7.341
21754WAT      O65503   4.823   9.571   5.457
21754WAT     H165504   4.815   9.667   5.486
21754WAT     H265505   4.890   9.525   5.514
21755WAT      O65506   4.559   6.058   5.548
21755WAT     H165507   4.549   6.155   5.570
21755WAT     H265508   4.469   6.017   5.536
21756WAT      O65509   2.106   7.366   1.236
21756WAT     H165510   2.146   7.324   1.155
21756WAT     H265511   2.148   7.328   1.318
21757WAT      O65512   4.232   3.047   0.421
21757WAT     H165513   4.321   3.005   0.442
21757WAT     H265514   4.246   3.140   0.388
21758WAT      O65515   5.586   2.113   1.391
21758WAT     H165516   5.528   2.071   1.322
21758WAT     H265517   5.621   2.201   1.357
21759WAT      O65518   0.789   7.243   6.611
21759WAT     H165519   0.854   7.224   6.684
21759WAT     H265520   0.836   7.289   6.535
21760WAT      O65521   0.141   3.837   5.401
21760WAT     H165522   0.132   3.744   5.436
21760WAT     H265523   0.177   3.833   5.308
21761WAT      O65524   8.517   4.700   7.580
21761WAT     H165525   8.441   4.751   7.540
21761WAT     H265526   8.555   4.637   7.512
21762WAT      O65527   5.580   6.664   3.708
21762WAT     H165528   5.525   6.624   3.634
21762WAT     H265529   5.629   6.591   3.756
21763WAT      O65530   1.884   6.128   5.837
21763WAT     H165531   1.809   6.184   5.871
21763WAT     H265532   1.864   6.031   5.853
21764WAT      O65533   5.023   1.916   7.820
21764WAT     H165534   4.959   1.939   7.893
21764WAT     H265535   5.102   1.869   7.858
21765WAT      O65536   1.330   3.773   0.535
21765WAT     H165537   1.403   3.828   0.576
21765WAT     H265538   1.333   3.680   0.573
21766WAT      O65539   7.719   3.759   0.138
21766WAT     H165540   7.717   3.663   0.166
21766WAT     H265541   7.749   3.766   0.043
21767WAT      O65542   8.314   7.097   4.326
21767WAT     H165543   8.342   7.010   4.365
21767WAT     H265544   8.371   7.118   4.247
21768WAT      O65545   4.807   7.719   3.391
21768WAT     H165546   4.896   7.726   3.346
21768WAT     H265547   4.734   7.727   3.324
21769WAT      O65548   4.660   0.996   4.745
21769WAT     H165549   4.720   0.967   4.671
21769WAT     H265550   4.707   0.983   4.833
21770WAT      O65551   1.613   4.658   8.836
21770WAT     H165552   1.515   4.639   8.830
21770WAT     H265553   1.640   4.716   8.759
21771WAT      O65554   4.979   4.297   7.569
21771WAT     H165555   5.036   4.232   7.519
21771WAT     H265556   5.028   4.384   7.579
21772WAT      O65557   8.575   8.343   2.597
21772WAT     H165558   8.505   8.414   2.592
21772WAT     H265559   8.660   8.382   2.632
21773WAT      O65560   3.550   4.939   5.378
21773WAT     H165561   3.509   5.018   5.332
21773WAT     H265562   3.595   4.881   5.310
21774WAT      O65563   7.085   0.425   8.634
21774WAT     H165564   6.994   0.385   8.636
21774WAT     H265565   7.079   0.524   8.651
21775WAT      O65566   3.637   5.065   6.556
21775WAT     H165567   3.553   5.112   6.527
21775WAT     H265568   3.620   4.966   6.560
21776WAT      O65569   0.154   6.358   2.496
21776WAT     H165570   0.122   6.274   2.542
21776WAT     H265571   0.156   6.433   2.562
21777WAT      O65572   7.622   3.626   4.928
21777WAT     H165573   7.662   3.583   5.009
21777WAT     H265574   7.635   3.566   4.849
21778WAT      O65575   2.161   5.168   1.547
21778WAT     H165576   2.118   5.134   1.631
21778WAT     H265577   2.145   5.266   1.538
21779WAT      O65578   7.716   8.197   6.363
21779WAT     H165579   7.733   8.196   6.265
21779WAT     H265580   7.778   8.263   6.407
21780WAT      O65581   2.153   4.979   9.612
21780WAT     H165582   2.167   5.011   9.519
21780WAT     H265583   2.145   5.057   9.675
21781WAT      O65584   1.255   6.313   8.894
21781WAT     H165585   1.345   6.292   8.931
21781WAT     H265586   1.262   6.335   8.797
21782WAT      O65587   3.405   8.152   8.852
21782WAT     H165588   3.421   8.083   8.781
21782WAT     H265589   3.416   8.244   8.812
21783WAT      O65590   8.337   6.921   3.765
21783WAT     H165591   8.429   6.918   3.727
21783WAT     H265592   8.289   7.002   3.731
21784WAT      O65593   1.098   9.577   2.691
21784WAT     H165594   1.000   9.560   2.683
21784WAT     H265595   1.133   9.531   2.773
21785WAT      O65596   8.804   3.361   1.460
21785WAT     H165597   8.742   3.360   1.538
21785WAT     H265598   8.823   3.267   1.432
21786WAT      O65599   2.277   2.676   5.875
21786WAT     H165600   2.277   2.770   5.909
21786WAT     H265601   2.202   2.625   5.919
21787WAT      O65602   7.841   2.339   3.387
21787WAT     H165603   7.938   2.337   3.365
21787WAT     H265604   7.827   2.303   3.479
21788WAT      O65605   6.981   9.299   3.193
21788WAT     H165606   7.056   9.364   3.181
21788WAT     H265607   6.979   9.235   3.116
21789WAT      O65608   6.933   9.559   9.669
21789WAT     H165609   6.926   9.463   9.640
21789WAT     H265610   7.002   9.605   9.615
21790WAT      O65611   8.569   3.449   4.989
21790WAT     H165612   8.654   3.495   5.014
21790WAT     H265613   8.500   3.518   4.965
21791WAT      O65614   2.492   2.506   2.161
21791WAT     H165615   2.448   2.586   2.120
21791WAT     H265616   2.543   2.457   2.091
21792WAT      O65617   3.031   6.131   5.079
21792WAT     H165618   3.088   6.092   5.151
21792WAT     H265619   3.088   6.186   5.018
21793WAT      O65620   0.824   2.053   6.514
21793WAT     H165621   0.725   2.064   6.516
21793WAT     H265622   0.863   2.085   6.601
21794WAT      O65623   5.111   0.071   2.120
21794WAT     H165624   5.068   0.001   2.178
21794WAT     H265625   5.189   0.030   2.071
21795WAT      O65626   3.079   7.373   1.047
21795WAT     H165627   3.122   7.341   1.131
21795WAT     H265628   3.039   7.464   1.062
21796WAT      O65629   9.476   5.867   8.570
21796WAT     H165630   9.463   5.789   8.508
21796WAT     H265631   9.572   5.870   8.599
21797WAT      O65632   2.074   6.084   9.371
21797WAT     H165633   2.012   6.157   9.344
21797WAT     H265634   2.118   6.045   9.290
21798WAT      O65635   5.379   7.688   9.010
21798WAT     H165636   5.318   7.697   9.089
21798WAT     H265637   5.363   7.601   8.965
21799WAT      O65638   0.239   7.187   1.813
21799WAT     H165639   0.173   7.261   1.827
21799WAT     H265640   0.227   7.148   1.722
21800WAT      O65641   7.315   7.598   0.356
21800WAT     H165642   7.331   7.516   0.411
21800WAT     H265643   7.398   7.654   0.354
21801WAT      O65644   5.174   2.127   7.725
21801WAT     H165645   5.123   2.043   7.744
21801WAT     H265646   5.270   2.113   7.749
21802WAT      O65647   5.608   7.995   8.906
21802WAT     H165648   5.589   8.049   8.824
21802WAT     H265649   5.681   7.929   8.886
21803WAT      O65650   3.683   0.543   5.332
21803WAT     H165651   3.743   0.539   5.253
21803WAT     H265652   3.688   0.456   5.382
21804WAT      O65653   9.003   9.594   2.871
21804WAT     H165654   9.072   9.637   2.814
21804WAT     H265655   8.973   9.508   2.829
21805WAT      O65656   6.618   2.913   0.113
21805WAT     H165657   6.548   2.910   0.042
21805WAT     H265658   6.678   2.991   0.097
21806WAT      O65659   2.618   5.206   1.051
21806WAT     H165660   2.578   5.188   0.961
21806WAT     H265661   2.634   5.304   1.061
21807WAT      O65662   3.934   8.707   0.107
21807WAT     H165663   3.868   8.716   0.182
21807WAT     H265664   4.012   8.652   0.137
21808WAT      O65665   1.741   8.455   2.200
21808WAT     H165666   1.700   8.432   2.111
21808WAT     H265667   1.670   8.452   2.271
21809WAT      O65668   9.538   3.756   4.526
21809WAT     H165669   9.590   3.839   4.542
21809WAT     H265670   9.600   3.678   4.519
21810WAT      O65671   9.075   1.907   8.752
21810WAT     H165672   9.048   1.856   8.834
21810WAT     H265673   9.035   1.865   8.671
21811WAT      O65674   9.087   6.447   5.451
21811WAT     H165675   8.987   6.446   5.453
21811WAT     H265676   9.121   6.512   5.519
21812WAT      O65677   7.152   0.363   0.587
21812WAT     H165678   7.066   0.409   0.610
21812WAT     H265679   7.147   0.328   0.494
21813WAT      O65680   9.040   1.486   8.772
21813WAT     H165681   8.960   1.438   8.737
21813WAT     H265682   9.029   1.584   8.758
21814WAT      O65683   1.081   5.398   2.190
21814WAT     H165684   1.055   5.447   2.273
21814WAT     H265685   1.073   5.300   2.205
21815WAT      O65686   0.007   7.432   0.798
21815WAT     H165687   0.091   7.411   0.749
21815WAT     H265688  -0.071   7.394   0.749
21816WAT      O65689   0.378   2.033   4.973
21816WAT     H165690   0.464   2.033   5.025
21816WAT     H265691   0.350   2.127   4.957
21817WAT      O65692   9.450   2.380   0.719
21817WAT     H165693   9.431   2.460   0.775
21817WAT     H265694   9.371   2.360   0.661
21818WAT      O65695   2.951   6.803   1.174
21818WAT     H165696   2.913   6.716   1.206
21818WAT     H265697   2.963   6.865   1.252
21819WAT      O65698   5.317   0.053   4.755
21819WAT     H165699   5.368   0.136   4.777
21819WAT     H265700   5.347   0.017   4.666
21820WAT      O65701   1.509   6.249   1.033
21820WAT     H165702   1.565   6.321   1.075
21820WAT     H265703   1.467   6.193   1.104
21821WAT      O65704   0.061   9.368   8.051
21821WAT     H165705  -0.001   9.443   8.030
21821WAT     H265706   0.032   9.324   8.136
21822WAT      O65707   9.251   2.781   0.290
21822WAT     H165708   9.271   2.732   0.206
21822WAT     H265709   9.279   2.727   0.369
21823WAT      O65710   3.709   8.449   6.898
21823WAT     H165711   3.619   8.493   6.896
21823WAT     H265712   3.697   8.351   6.914
21824WAT      O65713   9.433   8.892   4.903
21824WAT     H165714   9.501   8.906   4.832
21824WAT     H265715   9.441   8.965   4.972
21825WAT      O65716   0.120   5.198   1.468
21825WAT     H165717   0.215   5.178   1.444
21825WAT     H265718   0.113   5.210   1.567
21826WAT      O65719   0.076   2.606   2.752
21826WAT     H165720   0.117   2.592   2.842
21826WAT     H265721   0.019   2.526   2.729
21827WAT      O65722   6.564   6.801   1.761
21827WAT     H165723   6.589   6.830   1.669
21827WAT     H265724   6.470   6.767   1.761
21828WAT      O65725   3.238   3.266   5.996
21828WAT     H165726   3.171   3.332   6.031
21828WAT     H265727   3.330   3.303   6.009
21829WAT      O65728   1.391   0.346   1.400
21829WAT     H165729   1.448   0.313   1.325
21829WAT     H265730   1.390   0.446   1.400
21830WAT      O65731   0.620   9.078   8.820
21830WAT     H165732   0.561   9.155   8.845
21830WAT     H265733   0.641   9.025   8.902
21831WAT      O65734   9.851   3.356   8.601
21831WAT     H165735   9.837   3.353   8.699
21831WAT     H265736   9.881   3.266   8.568
21832WAT      O65737   7.015   3.234   4.809
21832WAT     H165738   7.038   3.149   4.761
21832WAT     H265739   7.064   3.238   4.896
21833WAT      O65740   5.523   1.856   0.690
21833WAT     H165741   5.494   1.908   0.610
21833WAT     H265742   5.618   1.827   0.679
21834WAT      O65743   8.806   8.062   1.475
21834WAT     H165744   8.773   7.976   1.516
21834WAT     H265745   8.825   8.047   1.378
21835WAT      O65746   2.818   6.859   9.815
21835WAT     H165747   2.902   6.877   9.763
21835WAT     H265748   2.741   6.903   9.770
21836WAT      O65749   9.372   0.710   4.989
21836WAT     H165750   9.275   0.690   4.995
21836WAT     H265751   9.423   0.649   5.050
21837WAT      O65752   4.214   0.919   6.905
21837WAT     H165753   4.238   0.990   6.839
21837WAT     H265754   4.212   0.958   6.997
21838WAT      O65755   7.419   5.379   5.392
21838WAT     H165756   7.455   5.463   5.350
21838WAT     H265757   7.445   5.300   5.336
21839WAT      O65758   7.881   1.051   7.540
21839WAT     H165759   7.861   0.974   7.480
21839WAT     H265760   7.849   1.136   7.496
21840WAT      O65761   5.750   2.690   4.236
21840WAT     H165762   5.726   2.680   4.140
21840WAT     H265763   5.667   2.702   4.291
21841WAT      O65764   9.130   6.020   5.447
21841WAT     H165765   9.179   5.961   5.382
21841WAT     H265766   9.068   5.964   5.502
21842WAT      O65767   8.707   4.973   7.978
21842WAT     H165768   8.645   4.895   7.982
21842WAT     H265769   8.802   4.941   7.981
21843WAT      O65770   2.037   2.022   6.711
21843WAT     H165771   1.943   1.995   6.732
21843WAT     H265772   2.099   1.979   6.776
21844WAT      O65773   4.500   7.818   6.205
21844WAT     H165774   4.487   7.890   6.273
21844WAT     H265775   4.553   7.743   6.245
21845WAT      O65776   8.518   9.363   1.259
21845WAT     H165777   8.610   9.360   1.298
21845WAT     H265778   8.497   9.274   1.217
21846WAT      O65779   2.896   6.511   0.055
21846WAT     H165780   2.825   6.505  -0.016
21846WAT     H265781   2.859   6.559   0.135
21847WAT      O65782   5.711   9.228   3.232
21847WAT     H165783   5.676   9.214   3.324
21847WAT     H265784   5.768   9.311   3.230
21848WAT      O65785   7.351   9.402   4.189
21848WAT     H165786   7.357   9.476   4.256
21848WAT     H265787   7.257   9.394   4.156
21849WAT      O65788   0.080   2.675   3.194
21849WAT     H165789   0.164   2.689   3.246
21849WAT     H265790   0.002   2.707   3.248
21850WAT      O65791   7.664   0.778   4.728
21850WAT     H165792   7.637   0.756   4.634
21850WAT     H265793   7.590   0.827   4.773
21851WAT      O65794   3.308   3.822   4.330
21851WAT     H165795   3.347   3.877   4.256
21851WAT     H265796   3.212   3.848   4.344
21852WAT      O65797   7.485   7.513   6.981
21852WAT     H165798   7.533   7.441   7.031
21852WAT     H265799   7.414   7.551   7.040
21853WAT      O65800   4.946   2.300   1.633
21853WAT     H165801   4.907   2.389   1.609
21853WAT     H265802   4.918   2.232   1.564
21854WAT      O65803   8.872   5.675   9.444
21854WAT     H165804   8.875   5.725   9.357
21854WAT     H265805   8.960   5.682   9.489
21855WAT      O65806   8.157   6.320   1.335
21855WAT     H165807   8.136   6.261   1.257
21855WAT     H265808   8.256   6.330   1.343
21856WAT      O65809   6.600   2.604   2.090
21856WAT     H165810   6.614   2.701   2.070
21856WAT     H265811   6.514   2.592   2.140
21857WAT      O65812   6.438   4.021   8.586
21857WAT     H165813   6.498   4.080   8.532
21857WAT     H265814   6.461   3.925   8.567
21858WAT      O65815   2.233   5.510   6.496
21858WAT     H165816   2.226   5.413   6.515
21858WAT     H265817   2.314   5.528   6.441
21859WAT      O65818   0.693   9.550   2.916
21859WAT     H165819   0.761   9.532   2.845
21859WAT     H265820   0.602   9.557   2.874
21860WAT      O65821   8.880   2.529   2.754
21860WAT     H165822   8.930   2.616   2.750
21860WAT     H265823   8.930   2.465   2.813
21861WAT      O65824   4.653   3.841   2.440
21861WAT     H165825   4.593   3.850   2.519
21861WAT     H265826   4.703   3.926   2.426
21862WAT      O65827   1.631   3.315   3.220
21862WAT     H165828   1.607   3.324   3.317
21862WAT     H265829   1.726   3.283   3.213
21863WAT      O65830   1.144   4.295   0.127
21863WAT     H165831   1.101   4.212   0.093
21863WAT     H265832   1.222   4.318   0.070
21864WAT      O65833   3.871   7.011   6.999
21864WAT     H165834   3.948   7.074   7.008
21864WAT     H265835   3.889   6.945   6.926
21865WAT      O65836   4.036   1.007   7.838
21865WAT     H165837   3.981   1.091   7.837
21865WAT     H265838   4.025   0.962   7.927
21866WAT      O65839   6.267   6.381   4.854
21866WAT     H165840   6.215   6.369   4.770
21866WAT     H265841   6.206   6.372   4.933
21867WAT      O65842   4.316   1.436   9.366
21867WAT     H165843   4.410   1.451   9.336
21867WAT     H265844   4.257   1.421   9.286
21868WAT      O65845   7.364   9.741   3.579
21868WAT     H165846   7.379   9.661   3.636
21868WAT     H265847   7.276   9.732   3.531
21869WAT      O65848   0.691   4.009   3.908
21869WAT     H165849   0.633   4.067   3.852
21869WAT     H265850   0.724   3.932   3.854
21870WAT      O65851   6.396   1.725   1.524
21870WAT     H165852   6.375   1.644   1.469
21870WAT     H265853   6.495   1.729   1.540
21871WAT      O65854   5.532   4.016   4.063
21871WAT     H165855   5.483   3.929   4.066
21871WAT     H265856   5.468   4.088   4.036
21872WAT      O65857   3.282   3.019   0.617
21872WAT     H165858   3.194   3.009   0.664
21872WAT     H265859   3.326   2.929   0.610
21873WAT      O65860   2.053   0.521   7.049
21873WAT     H165861   2.073   0.433   7.092
21873WAT     H265862   2.111   0.532   6.968
21874WAT      O65863   7.357   3.201   7.745
21874WAT     H165864   7.372   3.150   7.830
21874WAT     H265865   7.413   3.284   7.747
21875WAT      O65866   4.894   3.809   0.344
21875WAT     H165867   4.925   3.895   0.305
21875WAT     H265868   4.805   3.785   0.305
21876WAT      O65869   6.688   9.487   7.968
21876WAT     H165870   6.737   9.443   8.044
21876WAT     H265871   6.634   9.419   7.920
21877WAT      O65872   0.694   3.077   3.097
21877WAT     H165873   0.621   3.012   3.120
21877WAT     H265874   0.767   3.028   3.050
21878WAT      O65875   3.992   4.269   4.714
21878WAT     H165876   3.915   4.242   4.656
21878WAT     H265877   4.016   4.364   4.695
21879WAT      O65878   6.886   8.907   5.154
21879WAT     H165879   6.793   8.938   5.175
21879WAT     H265880   6.946   8.932   5.229
21880WAT      O65881   2.348   2.668   7.833
21880WAT     H165882   2.369   2.583   7.784
21880WAT     H265883   2.380   2.746   7.780
21881WAT      O65884   2.307   3.111   0.769
21881WAT     H165885   2.263   3.201   0.770
21881WAT     H265886   2.256   3.048   0.827
21882WAT      O65887   1.178   5.002   3.784
21882WAT     H165888   1.235   5.035   3.709
21882WAT     H265889   1.094   4.962   3.747
21883WAT      O65890   0.092   6.409   7.225
21883WAT     H165891   0.031   6.440   7.152
21883WAT     H265892   0.184   6.444   7.208
21884WAT      O65893   6.636   7.913   0.544
21884WAT     H165894   6.657   7.987   0.608
21884WAT     H265895   6.693   7.834   0.564
21885WAT      O65896   0.516   5.081   0.413
21885WAT     H165897   0.500   5.136   0.495
21885WAT     H265898   0.493   5.134   0.332
21886WAT      O65899   4.673   2.370   8.371
21886WAT     H165900   4.618   2.286   8.373
21886WAT     H265901   4.759   2.351   8.324
21887WAT      O65902   7.330   2.520   2.270
21887WAT     H165903   7.395   2.593   2.293
21887WAT     H265904   7.296   2.478   2.354
21888WAT      O65905   0.200   1.208   2.704
21888WAT     H165906   0.168   1.161   2.621
21888WAT     H265907   0.275   1.270   2.680
21889WAT      O65908   8.074   4.400   5.339
21889WAT     H165909   8.019   4.427   5.418
21889WAT     H265910   8.168   4.383   5.369
21890WAT      O65911   3.258   1.687   3.850
21890WAT     H165912   3.209   1.601   3.839
21890WAT     H265913   3.194   1.763   3.843
21891WAT      O65914   3.749   4.230   9.340
21891WAT     H165915   3.835   4.255   9.385
21891WAT     H265916   3.766   4.160   9.271
21892WAT      O65917   0.913   4.134   9.690
21892WAT     H165918   0.871   4.080   9.617
21892WAT     H265919   0.983   4.080   9.735
21893WAT      O65920   8.990   4.875   3.883
21893WAT     H165921   8.913   4.934   3.860
21893WAT     H265922   9.043   4.917   3.956
21894WAT      O65923   8.683   5.437   3.002
21894WAT     H165924   8.601   5.465   3.052
21894WAT     H265925   8.711   5.510   2.939
21895WAT      O65926   2.669   1.286   9.017
21895WAT     H165927   2.741   1.293   9.086
21895WAT     H265928   2.581   1.310   9.058
21896WAT      O65929   8.403   6.539   3.777
21896WAT     H165930   8.340   6.593   3.833
21896WAT     H265931   8.366   6.447   3.765
21897WAT      O65932   1.258   2.877   6.847
21897WAT     H165933   1.332   2.819   6.813
21897WAT     H265934   1.282   2.973   6.831
21898WAT      O65935   8.058   2.665   7.569
21898WAT     H165936   8.033   2.569   7.554
21898WAT     H265937   7.995   2.724   7.518
21899WAT      O65938   3.313   3.368   0.631
21899WAT     H165939   3.294   3.271   0.621
21899WAT     H265940   3.377   3.382   0.707
21900WAT      O65941   9.083   3.095   5.032
21900WAT     H165942   9.117   3.005   5.004
21900WAT     H265943   8.991   3.108   4.995
21901WAT      O65944   2.284   3.012   9.565
21901WAT     H165945   2.348   3.077   9.605
21901WAT     H265946   2.198   3.059   9.545
21902WAT      O65947   9.656   6.434   5.671
21902WAT     H165948   9.708   6.368   5.616
21902WAT     H265949   9.559   6.409   5.670
21903WAT      O65950   1.112   4.226   7.298
21903WAT     H165951   1.172   4.261   7.370
21903WAT     H265952   1.149   4.250   7.209
21904WAT      O65953   4.380   2.017   5.392
21904WAT     H165954   4.378   2.100   5.337
21904WAT     H265955   4.475   1.988   5.405
21905WAT      O65956   1.301   0.246   7.299
21905WAT     H165957   1.218   0.290   7.265
21905WAT     H265958   1.369   0.316   7.319
21906WAT      O65959   0.561   6.409   4.222
21906WAT     H165960   0.626   6.485   4.218
21906WAT     H265961   0.529   6.398   4.317
21907WAT      O65962   8.093   4.046   6.190
21907WAT     H165963   8.159   3.979   6.224
21907WAT     H265964   8.003   4.027   6.228
21908WAT      O65965   5.029   8.954   4.882
21908WAT     H165966   4.991   9.037   4.923
21908WAT     H265967   4.958   8.905   4.833
21909WAT      O65968   6.565   5.068   3.039
21909WAT     H165969   6.573   5.104   2.946
21909WAT     H265970   6.544   4.970   3.035
21910WAT      O65971   2.567   9.315   1.964
21910WAT     H165972   2.487   9.282   2.014
21910WAT     H265973   2.550   9.408   1.931
21911WAT      O65974   6.013   2.358   6.052
21911WAT     H165975   6.094   2.405   6.017
21911WAT     H265976   6.036   2.262   6.070
21912WAT      O65977   2.376   5.831   4.623
21912WAT     H165978   2.471   5.799   4.619
21912WAT     H265979   2.332   5.814   4.535
21913WAT      O65980   0.256   4.339   0.866
21913WAT     H165981   0.333   4.367   0.922
21913WAT     H265982   0.260   4.240   0.850
21914WAT      O65983   7.506   2.358   4.618
21914WAT     H165984   7.496   2.260   4.603
21914WAT     H265985   7.566   2.397   4.549
21915WAT      O65986   6.518   3.652   8.256
21915WAT     H165987   6.582   3.600   8.201
21915WAT     H265988   6.450   3.695   8.196
21916WAT      O65989   0.566   6.632   4.519
21916WAT     H165990   0.579   6.533   4.527
21916WAT     H265991   0.520   6.653   4.432
21917WAT      O65992   6.859   6.358   1.760
21917WAT     H165993   6.874   6.428   1.691
21917WAT     H265994   6.797   6.288   1.724
21918WAT      O65995   7.692   3.688   6.076
21918WAT     H165996   7.702   3.593   6.107
21918WAT     H265997   7.722   3.750   6.148
21919WAT      O65998   1.394   9.676   2.481
21919WAT     H165999   1.352   9.712   2.398
21919WAT     H266000   1.331   9.687   2.558
21920WAT      O66001   4.667   0.715   4.455
21920WAT     H166002   4.733   0.755   4.519
21920WAT     H266003   4.677   0.757   4.365
21921WAT      O66004   5.659   1.156   7.503
21921WAT     H166005   5.571   1.202   7.518
21921WAT     H266006   5.690   1.114   7.589
21922WAT      O66007   3.195   8.717   5.254
21922WAT     H166008   3.109   8.761   5.281
21922WAT     H266009   3.271   8.761   5.301
21923WAT      O66010   7.244   6.252   2.661
21923WAT     H166011   7.323   6.222   2.608
21923WAT     H266012   7.160   6.225   2.614
21924WAT      O66013   6.542   4.685   8.442
21924WAT     H166014   6.456   4.635   8.433
21924WAT     H266015   6.542   4.763   8.380
21925WAT      O66016   8.394   3.589   9.737
21925WAT     H166017   8.419   3.629   9.648
21925WAT     H266018   8.440   3.639   9.810
21926WAT      O66019   6.706   2.594   6.117
21926WAT     H166020   6.765   2.583   6.197
21926WAT     H266021   6.704   2.508   6.065
21927WAT      O66022   2.853   4.490   2.157
21927WAT     H166023   2.931   4.526   2.106
21927WAT     H266024   2.781   4.559   2.159
21928WAT      O66025   8.176   8.226   5.925
21928WAT     H166026   8.125   8.259   6.004
21928WAT     H266027   8.273   8.246   5.938
21929WAT      O66028   3.223   5.707   0.207
21929WAT     H166029   3.137   5.737   0.165
21929WAT     H266030   3.217   5.717   0.306
21930WAT      O66031   1.195   8.479   5.644
21930WAT     H166032   1.199   8.410   5.715
21930WAT     H266033   1.100   8.509   5.632
21931WAT      O66034   3.127   9.689   1.348
21931WAT     H166035   3.100   9.758   1.415
21931WAT     H266036   3.049   9.665   1.291
21932WAT      O66037   3.463   5.208   1.435
21932WAT     H166038   3.497   5.296   1.469
21932WAT     H266039   3.425   5.220   1.343
21933WAT      O66040   1.503   9.456   3.619
21933WAT     H166041   1.423   9.488   3.670
21933WAT     H266042   1.572   9.422   3.683
21934WAT      O66043   9.032   8.557   7.963
21934WAT     H166044   9.023   8.527   7.868
21934WAT     H266045   8.999   8.485   8.024
21935WAT      O66046   2.610   1.982   3.729
21935WAT     H166047   2.543   2.027   3.669
21935WAT     H266048   2.608   1.884   3.713
21936WAT      O66049   8.520   4.047   1.719
21936WAT     H166050   8.590   4.043   1.791
21936WAT     H266051   8.508   3.956   1.679
21937WAT      O66052   2.671   2.956   5.277
21937WAT     H166053   2.732   2.904   5.217
21937WAT     H266054   2.587   2.978   5.227
21938WAT      O66055   5.389   6.945   6.721
21938WAT     H166056   5.431   6.891   6.648
21938WAT     H266057   5.450   7.020   6.746
21939WAT      O66058   2.944   7.495   3.970
21939WAT     H166059   2.851   7.481   4.006
21939WAT     H266060   2.991   7.564   4.026
21940WAT      O66061   6.509   5.429   4.061
21940WAT     H166062   6.414   5.428   4.094
21940WAT     H266063   6.530   5.341   4.019
21941WAT      O66064   0.284   2.168   2.866
21941WAT     H166065   0.377   2.205   2.861
21941WAT     H266066   0.234   2.213   2.940
21942WAT      O66067   1.325   4.025   3.605
21942WAT     H166068   1.311   4.050   3.509
21942WAT     H266069   1.307   4.105   3.663
21943WAT      O66070   5.853   7.463   8.424
21943WAT     H166071   5.836   7.482   8.521
21943WAT     H266072   5.859   7.364   8.410
21944WAT      O66073   5.238   7.332   0.185
21944WAT     H166074   5.266   7.284   0.101
21944WAT     H266075   5.302   7.311   0.258
21945WAT      O66076   2.866   7.464   5.866
21945WAT     H166077   2.924   7.402   5.917
21945WAT     H266078   2.789   7.493   5.923
21946WAT      O66079   1.022   7.078   4.756
21946WAT     H166080   1.026   7.015   4.679
21946WAT     H266081   0.979   7.163   4.728
21947WAT      O66082   0.668   9.112   9.723
21947WAT     H166083   0.650   9.093   9.820
21947WAT     H266084   0.656   9.028   9.670
21948WAT      O66085   7.804   8.079   3.843
21948WAT     H166086   7.805   8.001   3.781
21948WAT     H266087   7.731   8.142   3.816
21949WAT      O66088   4.774   7.793   8.422
21949WAT     H166089   4.867   7.782   8.457
21949WAT     H266090   4.778   7.824   8.327
21950WAT      O66091   1.234   1.357   6.820
21950WAT     H166092   1.260   1.355   6.724
21950WAT     H266093   1.316   1.363   6.877
21951WAT      O66094   8.498   8.505   4.323
21951WAT     H166095   8.590   8.543   4.321
21951WAT     H266096   8.471   8.477   4.231
21952WAT      O66097   7.860   6.741   9.116
21952WAT     H166098   7.782   6.698   9.070
21952WAT     H266099   7.921   6.780   9.048
21953WAT      O66100   3.400   6.886   9.387
21953WAT     H166101   3.392   6.985   9.384
21953WAT     H266102   3.467   6.855   9.319
21954WAT      O66103   6.393   7.772   7.541
21954WAT     H166104   6.422   7.844   7.605
21954WAT     H266105   6.472   7.720   7.510
21955WAT      O66106   6.575   9.501   7.126
21955WAT     H166107   6.500   9.509   7.060
21955WAT     H266108   6.583   9.586   7.178
21956WAT      O66109   6.618   8.748   3.292
21956WAT     H166110   6.571   8.694   3.362
21956WAT     H266111   6.715   8.756   3.316
21957WAT      O66112   1.370   6.728   0.354
21957WAT     H166113   1.327   6.666   0.288
21957WAT     H266114   1.308   6.741   0.432
21958WAT      O66115   6.920   3.186   4.212
21958WAT     H166116   6.982   3.157   4.140
21958WAT     H266117   6.965   3.178   4.301
21959WAT      O66118   3.629   4.397   7.123
21959WAT     H166119   3.596   4.331   7.190
21959WAT     H266120   3.729   4.401   7.127
21960WAT      O66121   9.797   6.458   7.662
21960WAT     H166122   9.758   6.525   7.725
21960WAT     H266123   9.884   6.425   7.699
21961WAT      O66124   9.489   4.668   0.458
21961WAT     H166125   9.492   4.574   0.425
21961WAT     H266126   9.396   4.691   0.485
21962WAT      O66127   3.138   6.497   1.100
21962WAT     H166128   3.223   6.469   1.144
21962WAT     H266129   3.126   6.596   1.111
21963WAT      O66130   2.998   5.876   0.928
21963WAT     H166131   3.018   5.809   1.000
21963WAT     H266132   2.981   5.965   0.970
21964WAT      O66133   6.996   9.488   5.348
21964WAT     H166134   7.065   9.455   5.414
21964WAT     H266135   7.042   9.518   5.265
21965WAT      O66136   2.819   3.676   5.887
21965WAT     H166137   2.810   3.773   5.867
21965WAT     H266138   2.903   3.640   5.844
21966WAT      O66139   4.366   7.634   8.296
21966WAT     H166140   4.386   7.716   8.350
21966WAT     H266141   4.359   7.555   8.357
21967WAT      O66142   3.334   0.956   5.676
21967WAT     H166143   3.427   0.987   5.658
21967WAT     H266144   3.269   1.027   5.648
21968WAT      O66145   2.850   4.020   9.862
21968WAT     H166146   2.822   3.933   9.823
21968WAT     H266147   2.778   4.088   9.847
21969WAT      O66148   2.006   5.009   0.359
21969WAT     H166149   2.032   5.072   0.285
21969WAT     H266150   2.036   4.917   0.336
21970WAT      O66151   1.344   7.953   0.801
21970WAT     H166152   1.269   8.020   0.809
21970WAT     H266153   1.390   7.946   0.889
21971WAT      O66154   5.432   8.437   6.864
21971WAT     H166155   5.464   8.344   6.881
21971WAT     H266156   5.510   8.498   6.855
21972WAT      O66157   2.521   1.540   5.904
21972WAT     H166158   2.606   1.494   5.876
21972WAT     H266159   2.522   1.634   5.870
21973WAT      O66160   8.703   7.407   8.010
21973WAT     H166161   8.803   7.410   8.009
21973WAT     H266162   8.671   7.416   8.104
21974WAT      O66163   2.507   6.063   8.654
21974WAT     H166164   2.467   6.150   8.682
21974WAT     H266165   2.441   5.989   8.669
21975WAT      O66166   0.366   3.495   8.285
21975WAT     H166167   0.379   3.433   8.362
21975WAT     H266168   0.293   3.459   8.226
21976WAT      O66169   0.739   1.309   8.066
21976WAT     H166170   0.753   1.388   8.006
21976WAT     H266171   0.660   1.326   8.125
21977WAT      O66172   0.264   3.112   3.541
21977WAT     H166173   0.302   3.188   3.594
21977WAT     H266174   0.332   3.080   3.475
21978WAT      O66175   3.084   8.110   9.818
21978WAT     H166176   3.172   8.123   9.772
21978WAT     H266177   3.052   8.197   9.855
21979WAT      O66178   9.634   4.767   0.677
21979WAT     H166179   9.578   4.728   0.604
21979WAT     H266180   9.638   4.703   0.753
21980WAT      O66181   7.383   9.222   7.264
21980WAT     H166182   7.317   9.298   7.259
21980WAT     H266183   7.475   9.256   7.244
21981WAT      O66184   6.427   8.178   2.722
21981WAT     H166185   6.517   8.195   2.681
21981WAT     H266186   6.362   8.155   2.649
21982WAT      O66187   6.637   8.807   9.115
21982WAT     H166188   6.681   8.894   9.138
21982WAT     H266189   6.660   8.739   9.184
21983WAT      O66190   5.968   3.821   1.968
21983WAT     H166191   6.011   3.735   1.996
21983WAT     H266192   6.008   3.896   2.020
21984WAT      O66193   4.107   5.801   6.258
21984WAT     H166194   4.150   5.869   6.200
21984WAT     H266195   4.012   5.787   6.229
21985WAT      O66196   7.004   6.838   9.167
21985WAT     H166197   6.933   6.768   9.154
21985WAT     H266198   7.093   6.799   9.145
21986WAT      O66199   7.670   6.809   1.420
21986WAT     H166200   7.577   6.822   1.454
21986WAT     H266201   7.667   6.779   1.324
21987WAT      O66202   0.144   7.123   0.692
21987WAT     H166203   0.044   7.118   0.699
21987WAT     H266204   0.169   7.211   0.651
21988WAT      O66205   9.776   3.243   3.792
21988WAT     H166206   9.755   3.196   3.707
21988WAT     H266207   9.845   3.313   3.775
21989WAT      O66208   4.057   7.526   2.775
21989WAT     H166209   4.047   7.435   2.817
21989WAT     H266210   3.982   7.584   2.805
21990WAT      O66211   5.705   5.345   5.914
21990WAT     H166212   5.679   5.273   5.979
21990WAT     H266213   5.779   5.312   5.856
21991WAT      O66214   4.202   3.289   1.302
21991WAT     H166215   4.245   3.350   1.236
21991WAT     H266216   4.148   3.343   1.367
21992WAT      O66217   0.431   8.843   8.075
21992WAT     H166218   0.512   8.886   8.113
21992WAT     H266219   0.373   8.913   8.032
21993WAT      O66220   7.296   5.406   0.003
21993WAT     H166221   7.310   5.449   0.093
21993WAT     H266222   7.254   5.316   0.016
21994WAT      O66223   2.416   8.003   4.375
21994WAT     H166224   2.473   7.931   4.334
21994WAT     H266225   2.434   8.009   4.473
21995WAT      O66226   2.120   2.995   7.945
21995WAT     H166227   2.165   3.083   7.931
21995WAT     H266228   2.022   3.004   7.924
21996WAT      O66229   7.422   4.241   1.957
21996WAT     H166230   7.394   4.151   1.991
21996WAT     H266231   7.348   4.306   1.971
21997WAT      O66232   3.171   4.710   4.435
21997WAT     H166233   3.123   4.651   4.370
21997WAT     H266234   3.261   4.733   4.398
21998WAT      O66235   3.098   2.492   6.432
21998WAT     H166236   3.039   2.413   6.416
21998WAT     H266237   3.192   2.462   6.444
21999WAT      O66238   1.380   3.018   7.154
21999WAT     H166239   1.471   3.051   7.129
21999WAT     H266240   1.375   2.919   7.138
22000WAT      O66241   6.623   5.193   8.867
22000WAT     H166242   6.637   5.255   8.945
22000WAT     H266243   6.707   5.141   8.850
22001WAT      O66244   7.785   8.260   1.613
22001WAT     H166245   7.837   8.220   1.688
22001WAT     H266246   7.795   8.360   1.614
22002WAT      O66247   6.811   7.065   8.727
22002WAT     H166248   6.857   6.989   8.680
22002WAT     H266249   6.879   7.131   8.758
22003WAT      O66250   0.492   9.496   7.942
22003WAT     H166251   0.523   9.401   7.950
22003WAT     H266252   0.569   9.558   7.958
22004WAT      O66253   3.278   8.153   2.970
22004WAT     H166254   3.265   8.110   2.881
22004WAT     H266255   3.191   8.186   3.005
22005WAT      O66256   7.725   9.737   9.697
22005WAT     H166257   7.720   9.645   9.738
22005WAT     H266258   7.703   9.731   9.600
22006WAT      O66259   2.532   6.432   5.043
22006WAT     H166260   2.550   6.521   5.003
22006WAT     H266261   2.476   6.378   4.981
22007WAT      O66262   4.030   0.593   1.311
22007WAT     H166263   4.105   0.597   1.377
22007WAT     H266264   3.948   0.559   1.357
22008WAT      O66265   5.570   2.830   0.129
22008WAT     H166266   5.585   2.731   0.138
22008WAT     H266267   5.488   2.855   0.180
22009WAT      O66268   4.215   4.551   4.479
22009WAT     H166269   4.206   4.498   4.563
22009WAT     H266270   4.308   4.586   4.471
22010WAT      O66271   5.811   7.370   5.313
22010WAT     H166272   5.816   7.351   5.411
22010WAT     H266273   5.794   7.285   5.263
22011WAT      O66274   8.012   5.582   1.096
22011WAT     H166275   8.023   5.488   1.066
22011WAT     H266276   8.014   5.586   1.196
22012WAT      O66277   0.687   5.820   1.597
22012WAT     H166278   0.650   5.816   1.504
22012WAT     H266279   0.759   5.889   1.601
22013WAT      O66280   9.571   7.718   2.171
22013WAT     H166281   9.510   7.656   2.219
22013WAT     H266282   9.517   7.791   2.128
22014WAT      O66283   6.264   7.656   3.282
22014WAT     H166284   6.199   7.699   3.345
22014WAT     H266285   6.217   7.631   3.198
22015WAT      O66286   4.997   7.047   5.580
22015WAT     H166287   5.014   7.081   5.672
22015WAT     H266288   5.030   7.114   5.513
22016WAT      O66289   4.019   0.792   5.367
22016WAT     H166290   3.930   0.769   5.408
22016WAT     H266291   4.078   0.711   5.369
22017WAT      O66292   3.083   6.359   7.138
22017WAT     H166293   3.043   6.293   7.201
22017WAT     H266294   3.063   6.452   7.169
22018WAT      O66295   2.904   9.664   9.211
22018WAT     H166296   2.923   9.591   9.277
22018WAT     H266297   2.985   9.722   9.201
22019WAT      O66298   4.657   6.529   9.528
22019WAT     H166299   4.663   6.623   9.495
22019WAT     H266300   4.747   6.486   9.522
22020WAT      O66301   1.152   5.571   9.666
22020WAT     H166302   1.233   5.519   9.694
22020WAT     H266303   1.126   5.544   9.574
22021WAT      O66304   7.799   2.310   5.372
22021WAT     H166305   7.776   2.394   5.421
22021WAT     H266306   7.722   2.283   5.313
22022WAT      O66307   0.967   1.952   9.380
22022WAT     H166308   0.924   1.880   9.325
22022WAT     H266309   0.909   2.032   9.382
22023WAT      O66310   4.773   2.410   5.753
22023WAT     H166311   4.822   2.440   5.671
22023WAT     H266312   4.832   2.421   5.833
22024WAT      O66313   3.112   3.443   9.594
22024WAT     H166314   3.190   3.383   9.612
22024WAT     H266315   3.098   3.503   9.673
22025WAT      O66316   6.984   7.905   8.115
22025WAT     H166317   6.946   7.879   8.203
22025WAT     H266318   7.081   7.929   8.126
22026WAT      O66319   6.456   2.473   6.136
22026WAT     H166320   6.534   2.533   6.119
22026WAT     H266321   6.489   2.381   6.158
22027WAT      O66322   2.196   5.848   4.831
22027WAT     H166323   2.231   5.932   4.871
22027WAT     H266324   2.251   5.824   4.751
22028WAT      O66325   6.386   9.606   0.132
22028WAT     H166326   6.377   9.530   0.068
22028WAT     H266327   6.311   9.671   0.117
22029WAT      O66328   3.911   2.036   8.075
22029WAT     H166329   3.927   2.029   8.174
22029WAT     H266330   3.956   1.960   8.029
22030WAT      O66331   8.657   6.960   7.513
22030WAT     H166332   8.629   6.877   7.562
22030WAT     H266333   8.725   6.936   7.444
22031WAT      O66334   2.244   7.760   2.399
22031WAT     H166335   2.227   7.813   2.482
22031WAT     H266336   2.157   7.738   2.355
22032WAT      O66337   8.729   2.639   1.519
22032WAT     H166338   8.822   2.673   1.524
22032WAT     H266339   8.716   2.564   1.584
22033WAT      O66340   6.124   9.129   5.428
22033WAT     H166341   6.039   9.094   5.388
22033WAT     H266342   6.202   9.093   5.377
22034WAT      O66343   1.846   3.568   4.761
22034WAT     H166344   1.874   3.623   4.839
22034WAT     H266345   1.906   3.588   4.683
22035WAT      O66346   0.147   8.129   4.166
22035WAT     H166347   0.233   8.129   4.218
22035WAT     H266348   0.149   8.203   4.098
22036WAT      O66349   4.047   9.702   9.115
22036WAT     H166350   4.105   9.725   9.037
22036WAT     H266351   4.091   9.733   9.200
22037WAT      O66352   8.781   9.369   2.283
22037WAT     H166353   8.835   9.310   2.344
22037WAT     H266354   8.843   9.417   2.221
22038WAT      O66355   6.919   4.311   8.380
22038WAT     H166356   6.898   4.409   8.374
22038WAT     H266357   6.862   4.261   8.315
22039WAT      O66358   5.622   1.895   7.782
22039WAT     H166359   5.680   1.967   7.746
22039WAT     H266360   5.660   1.861   7.869
22040WAT      O66361   4.091   5.013   2.491
22040WAT     H166362   4.164   4.972   2.437
22040WAT     H266363   4.004   4.968   2.469
22041WAT      O66364   5.461   1.466   4.800
22041WAT     H166365   5.408   1.540   4.759
22041WAT     H266366   5.558   1.484   4.786
22042WAT      O66367   1.117   3.548   8.455
22042WAT     H166368   1.182   3.561   8.530
22042WAT     H266369   1.024   3.561   8.489
22043WAT      O66370   5.047   8.085   6.205
22043WAT     H166371   4.981   8.049   6.271
22043WAT     H266372   5.044   8.185   6.206
22044WAT      O66373   1.791   1.395   4.391
22044WAT     H166374   1.761   1.355   4.478
22044WAT     H266375   1.764   1.490   4.386
22045WAT      O66376   3.303   0.010   7.533
22045WAT     H166377   3.323   0.026   7.630
22045WAT     H266378   3.339  -0.079   7.505
22046WAT      O66379   2.996   2.424   7.959
22046WAT     H166380   2.944   2.509   7.964
22046WAT     H266381   2.970   2.374   7.876
22047WAT      O66382   4.277   9.396   9.302
22047WAT     H166383   4.227   9.420   9.218
22047WAT     H266384   4.328   9.311   9.287
22048WAT      O66385   2.043   3.519   3.674
22048WAT     H166386   2.136   3.489   3.652
22048WAT     H266387   2.006   3.571   3.597
22049WAT      O66388   8.979   0.726   2.647
22049WAT     H166389   9.049   0.748   2.715
22049WAT     H266390   8.896   0.695   2.694
22050WAT      O66391   5.682   9.446   1.351
22050WAT     H166392   5.739   9.394   1.415
22050WAT     H266393   5.734   9.524   1.315
22051WAT      O66394   7.667   7.580   5.706
22051WAT     H166395   7.627   7.583   5.615
22051WAT     H266396   7.738   7.510   5.709
22052WAT      O66397   0.128   2.465   4.813
22052WAT     H166398   0.091   2.486   4.722
22052WAT     H266399   0.149   2.550   4.861
22053WAT      O66400   9.302   9.374   0.404
22053WAT     H166401   9.304   9.453   0.344
22053WAT     H266402   9.215   9.374   0.455
22054WAT      O66403   5.842   1.161   2.545
22054WAT     H166404   5.819   1.160   2.643
22054WAT     H266405   5.928   1.209   2.532
22055WAT      O66406   9.461   3.546   4.338
22055WAT     H166407   9.411   3.497   4.409
22055WAT     H266408   9.438   3.643   4.342
22056WAT      O66409   7.940   3.607   9.308
22056WAT     H166410   8.013   3.614   9.376
22056WAT     H266411   7.935   3.692   9.256
22057WAT      O66412   0.609   0.745   8.333
22057WAT     H166413   0.544   0.700   8.395
22057WAT     H266414   0.639   0.832   8.373
22058WAT      O66415   8.077   8.716   8.224
22058WAT     H166416   8.026   8.766   8.295
22058WAT     H266417   8.118   8.634   8.263
22059WAT      O66418   7.025   1.138   1.792
22059WAT     H166419   7.073   1.186   1.719
22059WAT     H266420   6.974   1.061   1.754
22060WAT      O66421   7.458   8.174   8.970
22060WAT     H166422   7.361   8.153   8.977
22060WAT     H266423   7.478   8.258   9.021
22061WAT      O66424   7.151   1.242   9.215
22061WAT     H166425   7.215   1.204   9.283
22061WAT     H266426   7.200   1.304   9.154
22062WAT      O66427   2.581   1.304   6.030
22062WAT     H166428   2.535   1.276   5.946
22062WAT     H266429   2.519   1.357   6.086
22063WAT      O66430   5.764   7.013   4.586
22063WAT     H166431   5.860   7.007   4.612
22063WAT     H266432   5.756   7.057   4.496
22064WAT      O66433   6.608   5.212   2.779
22064WAT     H166434   6.670   5.137   2.755
22064WAT     H266435   6.633   5.294   2.728
22065WAT      O66436   5.643   6.708   3.212
22065WAT     H166437   5.678   6.746   3.126
22065WAT     H266438   5.601   6.781   3.266
22066WAT      O66439   7.033   0.197   8.887
22066WAT     H166440   6.992   0.238   8.805
22066WAT     H266441   6.973   0.211   8.965
22067WAT      O66442   4.756   2.184   8.870
22067WAT     H166443   4.701   2.191   8.787
22067WAT     H266444   4.802   2.272   8.887
22068WAT      O66445   6.744   8.217   3.647
22068WAT     H166446   6.750   8.265   3.734
22068WAT     H266447   6.835   8.211   3.606
22069WAT      O66448   2.011   8.898   5.306
22069WAT     H166449   1.975   8.817   5.260
22069WAT     H266450   2.105   8.914   5.277
22070WAT      O66451   5.101   5.705   2.483
22070WAT     H166452   5.052   5.671   2.564
22070WAT     H266453   5.146   5.629   2.437
22071WAT      O66454   0.401   4.902   6.915
22071WAT     H166455   0.346   4.823   6.941
22071WAT     H266456   0.446   4.884   6.827
22072WAT      O66457   6.713   7.858   1.292
22072WAT     H166458   6.670   7.948   1.299
22072WAT     H266459   6.750   7.832   1.381
22073WAT      O66460   3.921   8.204   4.264
22073WAT     H166461   4.017   8.180   4.281
22073WAT     H266462   3.871   8.208   4.350
22074WAT      O66463   2.297   8.469   7.641
22074WAT     H166464   2.239   8.465   7.723
22074WAT     H266465   2.325   8.376   7.616
22075WAT      O66466   5.777   2.085   7.694
22075WAT     H166467   5.820   2.141   7.765
22075WAT     H266468   5.724   2.145   7.633
22076WAT      O66469   5.865   6.573   8.551
22076WAT     H166470   5.872   6.566   8.452
22076WAT     H266471   5.791   6.515   8.584
22077WAT      O66472   8.224   6.475   3.024
22077WAT     H166473   8.227   6.408   2.949
22077WAT     H266474   8.131   6.481   3.060
22078WAT      O66475   2.270   7.566   1.209
22078WAT     H166476   2.208   7.486   1.213
22078WAT     H266477   2.253   7.624   1.289
22079WAT      O66478   6.248   9.066   9.782
22079WAT     H166479   6.257   9.144   9.720
22079WAT     H266480   6.329   9.008   9.774
22080WAT      O66481   2.816   1.703   0.531
22080WAT     H166482   2.755   1.628   0.504
22080WAT     H266483   2.782   1.744   0.615
22081WAT      O66484   8.711   1.401   3.906
22081WAT     H166485   8.645   1.372   3.837
22081WAT     H266486   8.721   1.501   3.903
22082WAT      O66487   7.979   1.263   3.405
22082WAT     H166488   7.919   1.341   3.420
22082WAT     H266489   7.931   1.193   3.352
22083WAT      O66490   4.860   5.849   0.110
22083WAT     H166491   4.879   5.941   0.143
22083WAT     H266492   4.762   5.837   0.099
22084WAT      O66493   3.974   4.298   7.464
22084WAT     H166494   4.068   4.320   7.488
22084WAT     H266495   3.971   4.255   7.374
22085WAT      O66496   3.126   0.952   7.287
22085WAT     H166497   3.144   1.036   7.237
22085WAT     H266498   3.155   0.962   7.382
22086WAT      O66499   7.061   9.450   4.794
22086WAT     H166500   7.032   9.496   4.878
22086WAT     H266501   7.115   9.370   4.817
22087WAT      O66502   7.953   6.017   3.505
22087WAT     H166503   7.919   5.923   3.505
22087WAT     H266504   8.006   6.034   3.589
22088WAT      O66505   0.882   0.948   1.973
22088WAT     H166506   0.911   0.852   1.969
22088WAT     H266507   0.795   0.958   1.924
22089WAT      O66508   0.420   4.298   7.827
22089WAT     H166509   0.486   4.226   7.846
22089WAT     H266510   0.414   4.313   7.728
22090WAT      O66511   6.718   2.977   2.350
22090WAT     H166512   6.781   3.028   2.292
22090WAT     H266513   6.628   2.975   2.307
22091WAT      O66514   9.293   0.312   0.393
22091WAT     H166515   9.261   0.363   0.472
22091WAT     H266516   9.266   0.359   0.309
22092WAT      O66517   5.396   4.484   9.851
22092WAT     H166518   5.404   4.559   9.787
22092WAT     H266519   5.485   4.439   9.862
22093WAT      O66520   6.078   7.021   1.087
22093WAT     H166521   6.170   7.014   1.048
22093WAT     H266522   6.018   7.068   1.022
22094WAT      O66523   8.386   9.392   4.597
22094WAT     H166524   8.353   9.356   4.510
22094WAT     H266525   8.316   9.451   4.638
22095WAT      O66526   0.201   3.749   8.902
22095WAT     H166527   0.289   3.757   8.854
22095WAT     H266528   0.158   3.839   8.907
22096WAT      O66529   6.198   3.672   3.426
22096WAT     H166530   6.180   3.626   3.513
22096WAT     H266531   6.295   3.696   3.421
22097WAT      O66532   6.182   4.468   1.693
22097WAT     H166533   6.224   4.391   1.645
22097WAT     H266534   6.089   4.482   1.660
22098WAT      O66535   8.350   6.071   5.810
22098WAT     H166536   8.398   5.995   5.853
22098WAT     H266537   8.414   6.121   5.751
22099WAT      O66538   3.341   7.572   4.816
22099WAT     H166539   3.303   7.660   4.847
22099WAT     H266540   3.319   7.501   4.882
22100WAT      O66541   9.457   7.396   3.517
22100WAT     H166542   9.488   7.376   3.424
22100WAT     H266543   9.456   7.495   3.532
22101WAT      O66544   1.095   0.126   2.561
22101WAT     H166545   1.095   0.226   2.568
22101WAT     H266546   1.107   0.086   2.652
22102WAT      O66547   5.946   2.869   8.684
22102WAT     H166548   6.015   2.923   8.634
22102WAT     H266549   5.864   2.860   8.628
22103WAT      O66550   7.426   7.266   9.420
22103WAT     H166551   7.399   7.311   9.335
22103WAT     H266552   7.369   7.184   9.434
22104WAT      O66553   9.461   6.647   6.278
22104WAT     H166554   9.431   6.729   6.229
22104WAT     H266555   9.519   6.591   6.218
22105WAT      O66556   1.349   5.043   1.897
22105WAT     H166557   1.380   4.985   1.822
22105WAT     H266558   1.328   4.986   1.977
22106WAT      O66559   9.525   3.170   5.912
22106WAT     H166560   9.571   3.114   5.843
22106WAT     H266561   9.569   3.260   5.917
22107WAT      O66562   7.505   1.669   1.138
22107WAT     H166563   7.466   1.617   1.062
22107WAT     H266564   7.453   1.753   1.151
22108WAT      O66565   3.104   4.305   3.778
22108WAT     H166566   3.049   4.326   3.859
22108WAT     H266567   3.201   4.323   3.798
22109WAT      O66568   5.238   6.126   1.677
22109WAT     H166569   5.234   6.183   1.596
22109WAT     H266570   5.162   6.060   1.675
22110WAT      O66571   1.528   8.315   7.216
22110WAT     H166572   1.522   8.344   7.121
22110WAT     H266573   1.605   8.252   7.228
22111WAT      O66574   5.756   2.153   5.225
22111WAT     H166575   5.777   2.242   5.186
22111WAT     H266576   5.832   2.123   5.284
22112WAT      O66577   1.023   3.611   4.346
22112WAT     H166578   0.982   3.636   4.257
22112WAT     H266579   0.989   3.521   4.373
22113WAT      O66580   0.471   7.911   8.498
22113WAT     H166581   0.411   7.916   8.578
22113WAT     H266582   0.421   7.871   8.422
22114WAT      O66583   4.987   3.867   3.296
22114WAT     H166584   4.973   3.963   3.271
22114WAT     H266585   4.905   3.831   3.339
22115WAT      O66586   5.197   2.200   0.547
22115WAT     H166587   5.098   2.191   0.559
22115WAT     H266588   5.234   2.113   0.514
22116WAT      O66589   5.907   4.209   6.043
22116WAT     H166590   5.958   4.184   6.125
22116WAT     H266591   5.971   4.245   5.974
22117WAT      O66592   8.883   2.644   4.431
22117WAT     H166593   8.884   2.613   4.526
22117WAT     H266594   8.977   2.663   4.401
22118WAT      O66595   7.649   4.514   0.624
22118WAT     H166596   7.659   4.503   0.723
22118WAT     H266597   7.582   4.447   0.590
22119WAT      O66598   9.307   0.558   6.671
22119WAT     H166599   9.276   0.653   6.671
22119WAT     H266600   9.263   0.508   6.746
22120WAT      O66601   0.205   7.345   2.197
22120WAT     H166602   0.288   7.383   2.156
22120WAT     H266603   0.153   7.295   2.128
22121WAT      O66604   6.892   0.250   9.576
22121WAT     H166605   6.986   0.282   9.565
22121WAT     H266606   6.881   0.164   9.526
22122WAT      O66607   8.218   7.247   5.021
22122WAT     H166608   8.157   7.257   5.099
22122WAT     H266609   8.256   7.154   5.019
22123WAT      O66610   8.438   5.517   3.109
22123WAT     H166611   8.431   5.612   3.079
22123WAT     H266612   8.361   5.465   3.073
22124WAT      O66613   7.986   1.314   5.235
22124WAT     H166614   7.943   1.388   5.287
22124WAT     H266615   8.079   1.341   5.209
22125WAT      O66616   6.601   4.586   1.156
22125WAT     H166617   6.568   4.599   1.250
22125WAT     H266618   6.649   4.668   1.126
22126WAT      O66619   6.495   9.453   5.877
22126WAT     H166620   6.532   9.537   5.918
22126WAT     H266621   6.418   9.421   5.932
22127WAT      O66622   6.202   8.384   3.525
22127WAT     H166623   6.210   8.442   3.444
22127WAT     H266624   6.195   8.288   3.496
22128WAT      O66625   4.539   4.841   0.917
22128WAT     H166626   4.448   4.862   0.883
22128WAT     H266627   4.607   4.895   0.866
22129WAT      O66628   8.888   3.156   9.633
22129WAT     H166629   8.912   3.062   9.656
22129WAT     H266630   8.876   3.209   9.718
22130WAT      O66631   3.805   0.519   9.454
22130WAT     H166632   3.739   0.502   9.380
22130WAT     H266633   3.791   0.452   9.527
22131WAT      O66634   8.565   0.620   1.315
22131WAT     H166635   8.552   0.694   1.248
22131WAT     H266636   8.647   0.639   1.368
22132WAT      O66637   4.033   1.830   3.171
22132WAT     H166638   4.061   1.903   3.233
22132WAT     H266639   3.954   1.861   3.117
22133WAT      O66640   0.010   5.700   8.243
22133WAT     H166641  -0.064   5.664   8.186
22133WAT     H266642   0.041   5.628   8.306
22134WAT      O66643   3.000   4.722   3.730
22134WAT     H166644   3.058   4.770   3.665
22134WAT     H266645   2.921   4.778   3.752
22135WAT      O66646   6.208   5.274   0.968
22135WAT     H166647   6.233   5.178   0.982
22135WAT     H266648   6.289   5.327   0.943
22136WAT      O66649   6.264   7.352   4.544
22136WAT     H166650   6.273   7.259   4.580
22136WAT     H266651   6.353   7.397   4.544
22137WAT      O66652   9.647   8.053   4.576
22137WAT     H166653   9.614   8.016   4.662
22137WAT     H266654   9.702   8.135   4.593
22138WAT      O66655   4.514   1.019   8.182
22138WAT     H166656   4.522   1.084   8.106
22138WAT     H266657   4.429   1.037   8.232
22139WAT      O66658   1.480   9.316   4.378
22139WAT     H166659   1.410   9.254   4.343
22139WAT     H266660   1.554   9.324   4.311
22140WAT      O66661   7.874   7.265   9.020
22140WAT     H166662   7.822   7.232   9.099
22140WAT     H266663   7.820   7.251   8.937
22141WAT      O66664   7.128   4.439   6.872
22141WAT     H166665   7.052   4.472   6.816
22141WAT     H266666   7.175   4.517   6.913
22142WAT      O66667   1.030   6.659   2.623
22142WAT     H166668   1.063   6.566   2.608
22142WAT     H266669   1.060   6.718   2.547
22143WAT      O66670   6.881   8.148   4.422
22143WAT     H166671   6.909   8.090   4.345
22143WAT     H266672   6.962   8.193   4.461
22144WAT      O66673   7.538   7.901   4.295
22144WAT     H166674   7.567   7.859   4.209
22144WAT     H266675   7.469   7.843   4.339
22145WAT      O66676   1.551   5.825   2.086
22145WAT     H166677   1.625   5.891   2.080
22145WAT     H266678   1.463   5.872   2.082
22146WAT      O66679   3.776   5.600   3.008
22146WAT     H166680   3.687   5.586   2.963
22146WAT     H266681   3.826   5.672   2.960
22147WAT      O66682   5.793   6.213   0.191
22147WAT     H166683   5.700   6.189   0.162
22147WAT     H266684   5.788   6.269   0.274
22148WAT      O66685   0.882   6.081   3.390
22148WAT     H166686   0.968   6.102   3.435
22148WAT     H266687   0.838   6.004   3.436
22149WAT      O66688   4.772   8.633   6.692
22149WAT     H166689   4.865   8.640   6.656
22149WAT     H266690   4.719   8.571   6.634
22150WAT      O66691   6.758   0.883   6.264
22150WAT     H166692   6.843   0.857   6.308
22150WAT     H266693   6.743   0.982   6.275
22151WAT      O66694   6.823   0.285   8.361
22151WAT     H166695   6.764   0.308   8.439
22151WAT     H266696   6.767   0.274   8.279
22152WAT      O66697   0.146   3.914   7.238
22152WAT     H166698   0.101   3.993   7.281
22152WAT     H266699   0.146   3.837   7.301
22153WAT      O66700   7.232   4.816   4.497
22153WAT     H166701   7.180   4.869   4.563
22153WAT     H266702   7.181   4.733   4.473
22154WAT      O66703   8.979   0.199   6.361
22154WAT     H166704   9.059   0.148   6.394
22154WAT     H266705   8.990   0.296   6.382
22155WAT      O66706   7.287   7.786   4.323
22155WAT     H166707   7.214   7.851   4.302
22155WAT     H266708   7.248   7.696   4.339
22156WAT      O66709   2.447   1.710   7.570
22156WAT     H166710   2.463   1.611   7.575
22156WAT     H266711   2.483   1.753   7.653
22157WAT      O66712   8.802   8.990   9.814
22157WAT     H166713   8.774   9.028   9.903
22157WAT     H266714   8.738   8.918   9.787
22158WAT      O66715   7.188   6.524   4.248
22158WAT     H166716   7.128   6.491   4.175
22158WAT     H266717   7.227   6.447   4.297
22159WAT      O66718   8.643   5.369   2.415
22159WAT     H166719   8.674   5.274   2.420
22159WAT     H266720   8.713   5.425   2.371
22160WAT      O66721   8.315   8.311   3.180
22160WAT     H166722   8.246   8.244   3.153
22160WAT     H266723   8.406   8.275   3.163
22161WAT      O66724   7.318   6.533   8.310
22161WAT     H166725   7.229   6.503   8.276
22161WAT     H266726   7.372   6.453   8.337
22162WAT      O66727   3.966   8.104   6.581
22162WAT     H166728   3.974   8.203   6.591
22162WAT     H266729   3.879   8.081   6.538
22163WAT      O66730   1.801   0.797   3.963
22163WAT     H166731   1.878   0.858   3.945
22163WAT     H266732   1.828   0.730   4.033
22164WAT      O66733   1.829   8.462   8.645
22164WAT     H166734   1.860   8.541   8.591
22164WAT     H266735   1.744   8.485   8.691
22165WAT      O66736   6.350   7.424   0.786
22165WAT     H166737   6.259   7.386   0.798
22165WAT     H266738   6.353   7.518   0.820
22166WAT      O66739   7.917   2.608   1.512
22166WAT     H166740   7.950   2.540   1.578
22166WAT     H266741   7.962   2.695   1.530
22167WAT      O66742   5.027   3.578   0.659
22167WAT     H166743   5.109   3.559   0.604
22167WAT     H266744   5.004   3.675   0.651
22168WAT      O66745   1.572   5.532   1.585
22168WAT     H166746   1.485   5.539   1.634
22168WAT     H266747   1.595   5.621   1.546
22169WAT      O66748   3.461   3.650   0.285
22169WAT     H166749   3.368   3.631   0.253
22169WAT     H266750   3.457   3.705   0.368
22170WAT      O66751   6.447   4.706   0.818
22170WAT     H166752   6.360   4.667   0.849
22170WAT     H266753   6.480   4.772   0.886
22171WAT      O66754   0.717   4.476   5.977
22171WAT     H166755   0.800   4.423   5.962
22171WAT     H266756   0.656   4.426   6.038
22172WAT      O66757   1.196   3.988   6.388
22172WAT     H166758   1.165   3.979   6.483
22172WAT     H266759   1.160   3.913   6.334
22173WAT      O66760   6.546   6.897   7.301
22173WAT     H166761   6.447   6.912   7.301
22173WAT     H266762   6.593   6.984   7.312
22174WAT      O66763   6.005   1.391   6.508
22174WAT     H166764   6.059   1.400   6.424
22174WAT     H266765   6.056   1.338   6.575
22175WAT      O66766   8.671   4.235   5.787
22175WAT     H166767   8.753   4.279   5.824
22175WAT     H266768   8.664   4.141   5.820
22176WAT      O66769   3.045   3.078   4.393
22176WAT     H166770   3.132   3.029   4.390
22176WAT     H266771   3.051   3.155   4.456
22177WAT      O66772   2.892   1.640   8.200
22177WAT     H166773   2.897   1.643   8.300
22177WAT     H266774   2.932   1.723   8.162
22178WAT      O66775   5.615   9.091   8.882
22178WAT     H166776   5.605   9.035   8.799
22178WAT     H266777   5.620   9.188   8.857
22179WAT      O66778   7.116   1.561   0.659
22179WAT     H166779   7.031   1.605   0.690
22179WAT     H266780   7.182   1.631   0.632
22180WAT      O66781   0.892   3.664   1.300
22180WAT     H166782   0.978   3.646   1.252
22180WAT     H266783   0.853   3.578   1.332
22181WAT      O66784   3.326   4.181   4.128
22181WAT     H166785   3.370   4.098   4.096
22181WAT     H266786   3.313   4.176   4.227
22182WAT      O66787   7.161   7.350   0.435
22182WAT     H166788   7.134   7.305   0.351
22182WAT     H266789   7.083   7.356   0.497
22183WAT      O66790   3.926   4.413   3.189
22183WAT     H166791   3.936   4.383   3.095
22183WAT     H266792   3.988   4.489   3.208
22184WAT      O66793   9.233   6.592   2.242
22184WAT     H166794   9.175   6.673   2.238
22184WAT     H266795   9.317   6.614   2.292
22185WAT      O66796   8.413   1.904   0.684
22185WAT     H166797   8.457   1.864   0.604
22185WAT     H266798   8.442   1.999   0.695
22186WAT      O66799   0.217   6.028   8.658
22186WAT     H166800   0.300   6.052   8.608
22186WAT     H266801   0.163   6.110   8.674
22187WAT      O66802   4.416   2.127   3.678
22187WAT     H166803   4.508   2.119   3.640
22187WAT     H266804   4.387   2.038   3.713
22188WAT      O66805   6.605   0.308   5.618
22188WAT     H166806   6.538   0.372   5.582
22188WAT     H266807   6.595   0.301   5.717
22189WAT      O66808   4.109   6.068   5.851
22189WAT     H166809   4.160   6.153   5.835
22189WAT     H266810   4.167   5.990   5.827
22190WAT      O66811   1.339   1.436   1.903
22190WAT     H166812   1.309   1.524   1.865
22190WAT     H266813   1.330   1.437   2.002
22191WAT      O66814   0.012   1.962   3.851
22191WAT     H166815   0.062   1.879   3.830
22191WAT     H266816   0.075   2.032   3.885
22192WAT      O66817   3.299   8.581   7.360
22192WAT     H166818   3.220   8.545   7.409
22192WAT     H266819   3.383   8.551   7.405
22193WAT      O66820   6.248   8.480   7.139
22193WAT     H166821   6.248   8.401   7.077
22193WAT     H266822   6.303   8.459   7.220
22194WAT      O66823   1.220   9.124   6.149
22194WAT     H166824   1.130   9.162   6.125
22194WAT     H266825   1.227   9.030   6.113
22195WAT      O66826   0.524   6.529   7.359
22195WAT     H166827   0.612   6.515   7.314
22195WAT     H266828   0.471   6.444   7.355
22196WAT      O66829   1.371   4.811   4.610
22196WAT     H166830   1.451   4.857   4.650
22196WAT     H266831   1.292   4.822   4.670
22197WAT      O66832   2.541   3.416   4.149
22197WAT     H166833   2.525   3.386   4.243
22197WAT     H266834   2.629   3.381   4.117
22198WAT      O66835   4.088   5.044   3.187
22198WAT     H166836   4.184   5.029   3.162
22198WAT     H266837   4.031   4.974   3.144
22199WAT      O66838   6.539   7.536   9.558
22199WAT     H166839   6.549   7.511   9.655
22199WAT     H266840   6.609   7.603   9.535
22200WAT      O66841   6.482   3.042   4.845
22200WAT     H166842   6.439   3.037   4.935
22200WAT     H266843   6.564   3.099   4.850
22201WAT      O66844   3.165   9.717   9.827
22201WAT     H166845   3.155   9.782   9.752
22201WAT     H266846   3.214   9.761   9.902
22202WAT      O66847   2.512   0.989   7.932
22202WAT     H166848   2.421   1.024   7.950
22202WAT     H266849   2.511   0.934   7.848
22203WAT      O66850   9.823   7.002   4.846
22203WAT     H166851   9.745   6.999   4.784
22203WAT     H266852   9.901   7.046   4.800
22204WAT      O66853   7.785   1.868   0.279
22204WAT     H166854   7.858   1.806   0.307
22204WAT     H266855   7.698   1.818   0.275
22205WAT      O66856   2.036   8.346   8.767
22205WAT     H166857   2.102   8.417   8.741
22205WAT     H266858   1.949   8.362   8.722
22206WAT      O66859   3.825   4.650   4.209
22206WAT     H166860   3.882   4.678   4.287
22206WAT     H266861   3.873   4.673   4.124
22207WAT      O66862   4.905   9.548   7.342
22207WAT     H166863   4.935   9.580   7.431
22207WAT     H266864   4.949   9.461   7.321
22208WAT      O66865   3.574   5.757   6.824
22208WAT     H166866   3.540   5.750   6.730
22208WAT     H266867   3.572   5.666   6.866
22209WAT      O66868   7.791   2.282   2.768
22209WAT     H166869   7.834   2.342   2.835
22209WAT     H266870   7.736   2.213   2.815
22210WAT      O66871   2.112   0.193   7.984
22210WAT     H166872   2.047   0.228   7.917
22210WAT     H266873   2.165   0.118   7.944
22211WAT      O66874   1.134   4.914   5.739
22211WAT     H166875   1.076   4.834   5.753
22211WAT     H266876   1.201   4.920   5.814
22212WAT      O66877   1.049   6.288   2.364
22212WAT     H166878   1.123   6.292   2.298
22212WAT     H266879   1.012   6.195   2.367
22213WAT      O66880   7.629   5.286   9.500
22213WAT     H166881   7.592   5.379   9.497
22213WAT     H266882   7.558   5.221   9.472
22214WAT      O66883   2.050   2.573   9.434
22214WAT     H166884   2.109   2.639   9.482
22214WAT     H266885   1.972   2.551   9.491
22215WAT      O66886   0.037   4.954   2.871
22215WAT     H166887   0.011   4.958   2.967
22215WAT     H266888   0.056   5.046   2.837
22216WAT      O66889   0.299   7.942   2.775
22216WAT     H166890   0.396   7.943   2.798
22216WAT     H266891   0.269   7.847   2.764
22217WAT      O66892   8.472   7.649   6.427
22217WAT     H166893   8.500   7.569   6.374
22217WAT     H266894   8.475   7.730   6.369
22218WAT      O66895   1.740   6.422   3.669
22218WAT     H166896   1.719   6.392   3.762
22218WAT     H266897   1.792   6.351   3.621
22219WAT      O66898   5.104   1.804   0.422
22219WAT     H166899   5.092   1.812   0.323
22219WAT     H266900   5.068   1.886   0.466
22220WAT      O66901   6.063   1.105   4.438
22220WAT     H166902   6.024   1.051   4.364
22220WAT     H266903   6.122   1.046   4.494
22221WAT      O66904   2.331   3.814   1.709
22221WAT     H166905   2.315   3.738   1.772
22221WAT     H266906   2.352   3.778   1.618
22222WAT      O66907   9.189   4.270   7.791
22222WAT     H166908   9.090   4.275   7.779
22222WAT     H266909   9.211   4.189   7.846
22223WAT      O66910   4.967   3.658   4.776
22223WAT     H166911   5.035   3.730   4.758
22223WAT     H266912   4.946   3.656   4.873
22224WAT      O66913   1.715   1.868   9.191
22224WAT     H166914   1.779   1.804   9.235
22224WAT     H266915   1.658   1.912   9.260
22225WAT      O66916   5.365   6.160   2.467
22225WAT     H166917   5.315   6.227   2.412
22225WAT     H266918   5.301   6.090   2.500
22226WAT      O66919   5.723   3.643   9.633
22226WAT     H166920   5.776   3.584   9.694
22226WAT     H266921   5.656   3.587   9.583
22227WAT      O66922   8.753   3.625   4.203
22227WAT     H166923   8.782   3.597   4.294
22227WAT     H266924   8.738   3.724   4.202
22228WAT      O66925   0.825   1.591   1.574
22228WAT     H166926   0.890   1.624   1.505
22228WAT     H266927   0.875   1.550   1.649
22229WAT      O66928   1.484   8.812   1.660
22229WAT     H166929   1.392   8.848   1.644
22229WAT     H266930   1.499   8.731   1.604
22230WAT      O66931   5.775   9.186   2.102
22230WAT     H166932   5.830   9.270   2.103
22230WAT     H266933   5.830   9.110   2.137
22231WAT      O66934   0.858   6.986   9.386
22231WAT     H166935   0.844   6.958   9.481
22231WAT     H266936   0.841   7.084   9.378
22232WAT      O66937   4.148   5.014   4.881
22232WAT     H166938   4.160   4.929   4.830
22232WAT     H266939   4.229   5.031   4.937
22233WAT      O66940   4.463   6.406   2.447
22233WAT     H166941   4.374   6.381   2.407
22233WAT     H266942   4.532   6.408   2.375
22234WAT      O66943   0.365   7.490   8.184
22234WAT     H166944   0.426   7.417   8.214
22234WAT     H266945   0.336   7.474   8.090
22235WAT      O66946   3.526   7.008   8.236
22235WAT     H166947   3.626   7.004   8.243
22235WAT     H266948   3.487   7.023   8.327
22236WAT      O66949   1.601   6.606   5.549
22236WAT     H166950   1.657   6.555   5.614
22236WAT     H266951   1.523   6.550   5.520
22237WAT      O66952   7.382   1.244   1.898
22237WAT     H166953   7.348   1.207   1.812
22237WAT     H266954   7.313   1.305   1.938
22238WAT      O66955   9.679   5.258   2.615
22238WAT     H166956   9.681   5.326   2.542
22238WAT     H266957   9.729   5.177   2.586
22239WAT      O66958   2.696   5.011   4.018
22239WAT     H166959   2.638   5.020   4.098
22239WAT     H266960   2.707   4.914   3.996
22240WAT      O66961   5.072   1.380   6.373
22240WAT     H166962   5.094   1.470   6.335
22240WAT     H266963   4.993   1.388   6.434
22241WAT      O66964   1.603   9.096   9.803
22241WAT     H166965   1.635   9.179   9.849
22241WAT     H266966   1.524   9.117   9.746
22242WAT      O66967   7.672   9.848   4.991
22242WAT     H166968   7.642   9.778   5.056
22242WAT     H266969   7.767   9.833   4.966
22243WAT      O66970   6.506   2.185   9.779
22243WAT     H166971   6.457   2.238   9.709
22243WAT     H266972   6.603   2.208   9.777
22244WAT      O66973   6.678   6.225   6.323
22244WAT     H166974   6.659   6.322   6.306
22244WAT     H266975   6.684   6.176   6.236
22245WAT      O66976   3.861   0.118   4.843
22245WAT     H166977   3.833   0.208   4.810
22245WAT     H266978   3.785   0.054   4.833
22246WAT      O66979   8.831   3.900   4.050
22246WAT     H166980   8.765   3.966   4.087
22246WAT     H266981   8.886   3.944   3.980
22247WAT      O66982   1.035   9.682   3.708
22247WAT     H166983   1.028   9.736   3.792
22247WAT     H266984   1.131   9.660   3.691
22248WAT      O66985   7.578   7.773   1.234
22248WAT     H166986   7.503   7.837   1.254
22248WAT     H266987   7.664   7.814   1.262
22249WAT      O66988   6.177   5.829   1.674
22249WAT     H166989   6.260   5.806   1.724
22249WAT     H266990   6.099   5.779   1.712
22250WAT      O66991   7.293   8.161   3.700
22250WAT     H166992   7.282   8.256   3.670
22250WAT     H266993   7.271   8.155   3.798
22251WAT      O66994   4.783   6.669   5.038
22251WAT     H166995   4.715   6.685   4.966
22251WAT     H266996   4.869   6.714   5.014
22252WAT      O66997   6.154   9.766   0.936
22252WAT     H166998   6.114   9.828   1.003
22252WAT     H266999   6.209   9.818   0.870
22253WAT      O67000   9.817   8.475   5.796
22253WAT     H167001   9.755   8.531   5.742
22253WAT     H267002   9.909   8.479   5.757
22254WAT      O67003   7.819   4.476   2.625
22254WAT     H167004   7.788   4.388   2.590
22254WAT     H267005   7.868   4.526   2.554
22255WAT      O67006   9.154   7.132   4.324
22255WAT     H167007   9.070   7.182   4.301
22255WAT     H267008   9.228   7.165   4.266
22256WAT      O67009   8.207   6.351   5.691
22256WAT     H167010   8.158   6.270   5.725
22256WAT     H267011   8.160   6.434   5.723
22257WAT      O67012   5.367   5.860   0.477
22257WAT     H167013   5.450   5.809   0.497
22257WAT     H267014   5.289   5.818   0.523
22258WAT      O67015   8.539   7.248   8.871
22258WAT     H167016   8.527   7.215   8.777
22258WAT     H267017   8.636   7.243   8.895
22259WAT      O67018   5.106   1.854   0.159
22259WAT     H167019   5.023   1.867   0.104
22259WAT     H267020   5.164   1.785   0.115
22260WAT      O67021   5.217   6.929   4.479
22260WAT     H167022   5.204   7.010   4.536
22260WAT     H267023   5.143   6.924   4.412
22261WAT      O67024   2.872   3.671   3.988
22261WAT     H167025   2.826   3.718   4.064
22261WAT     H267026   2.919   3.590   4.024
22262WAT      O67027   9.475   1.286   5.274
22262WAT     H167028   9.456   1.344   5.354
22262WAT     H267029   9.489   1.343   5.194
22263WAT      O67030   8.720   8.729   8.915
22263WAT     H167031   8.747   8.795   8.846
22263WAT     H267032   8.623   8.743   8.938
22264WAT      O67033   7.152   5.930   2.775
22264WAT     H167034   7.129   6.012   2.828
22264WAT     H267035   7.101   5.931   2.688
22265WAT      O67036   5.685   1.477   9.686
22265WAT     H167037   5.749   1.459   9.612
22265WAT     H267038   5.591   1.471   9.652
22266WAT      O67039   4.804   0.445   1.942
22266WAT     H167040   4.772   0.538   1.927
22266WAT     H267041   4.880   0.425   1.881
22267WAT      O67042   7.130   7.584   7.858
22267WAT     H167043   7.041   7.542   7.844
22267WAT     H267044   7.124   7.650   7.933
22268WAT      O67045   3.742   5.946   1.388
22268WAT     H167046   3.781   6.037   1.381
22268WAT     H267047   3.642   5.952   1.383
22269WAT      O67048   1.515   9.203   7.405
22269WAT     H167049   1.609   9.227   7.430
22269WAT     H267050   1.508   9.194   7.306
22270WAT      O67051   6.064   2.863   7.742
22270WAT     H167052   6.117   2.947   7.750
22270WAT     H267053   6.025   2.839   7.831
22271WAT      O67054   4.941   2.404   7.205
22271WAT     H167055   4.928   2.491   7.253
22271WAT     H267056   4.934   2.419   7.106
22272WAT      O67057   4.343   3.453   1.841
22272WAT     H167058   4.334   3.543   1.883
22272WAT     H267059   4.389   3.462   1.752
22273WAT      O67060   1.334   9.606   5.696
22273WAT     H167061   1.293   9.607   5.788
22273WAT     H267062   1.375   9.695   5.677
22274WAT      O67063   9.673   7.726   5.299
22274WAT     H167064   9.761   7.684   5.324
22274WAT     H267065   9.601   7.690   5.358
22275WAT      O67066   7.075   3.890   1.326
22275WAT     H167067   6.982   3.855   1.317
22275WAT     H267068   7.084   3.936   1.415
22276WAT      O67069   1.983   7.667   9.364
22276WAT     H167070   2.013   7.758   9.392
22276WAT     H267071   1.884   7.660   9.375
22277WAT      O67072   1.978   8.253   8.493
22277WAT     H167073   1.903   8.296   8.542
22277WAT     H267074   1.999   8.164   8.534
22278WAT      O67075   8.114   8.949   3.402
22278WAT     H167076   8.017   8.946   3.381
22278WAT     H267077   8.140   8.867   3.453
22279WAT      O67078   2.921   6.120   2.017
22279WAT     H167079   2.861   6.070   2.080
22279WAT     H267080   2.870   6.145   1.935
22280WAT      O67081   4.498   4.527   0.196
22280WAT     H167082   4.450   4.556   0.113
22280WAT     H267083   4.470   4.434   0.219
22281WAT      O67084   5.907   9.438   3.168
22281WAT     H167085   5.864   9.516   3.216
22281WAT     H267086   5.965   9.472   3.095
22282WAT      O67087   3.469   5.264   8.216
22282WAT     H167088   3.500   5.330   8.284
22282WAT     H267089   3.501   5.172   8.241
22283WAT      O67090   6.022   3.208   3.143
22283WAT     H167091   6.087   3.282   3.130
22283WAT     H267092   6.071   3.123   3.161
22284WAT      O67093   5.698   8.045   0.623
22284WAT     H167094   5.755   8.127   0.630
22284WAT     H267095   5.706   7.992   0.707
22285WAT      O67096   5.438   8.918   4.291
22285WAT     H167097   5.475   8.992   4.235
22285WAT     H267098   5.434   8.948   4.387
22286WAT      O67099   1.321   9.069   5.544
22286WAT     H167100   1.230   9.037   5.569
22286WAT     H267101   1.348   9.144   5.605
22287WAT      O67102   6.344   3.553   2.674
22287WAT     H167103   6.274   3.588   2.612
22287WAT     H267104   6.401   3.487   2.626
22288WAT      O67105   8.352   0.563   5.123
22288WAT     H167106   8.288   0.640   5.117
22288WAT     H267107   8.445   0.597   5.135
22289WAT      O67108   1.018   5.514   5.401
22289WAT     H167109   1.073   5.460   5.337
22289WAT     H267110   0.992   5.457   5.479
22290WAT      O67111   1.335   5.388   0.981
22290WAT     H167112   1.359   5.458   1.047
22290WAT     H267113   1.412   5.324   0.971
22291WAT      O67114   7.559   0.881   5.391
22291WAT     H167115   7.492   0.855   5.461
22291WAT     H267116   7.647   0.899   5.435
22292WAT      O67117   8.251   8.559   8.646
22292WAT     H167118   8.342   8.599   8.654
22292WAT     H267119   8.242   8.483   8.710
22293WAT      O67120   4.216   6.060   4.541
22293WAT     H167121   4.231   6.115   4.459
22293WAT     H267122   4.280   5.983   4.542
22294WAT      O67123   9.265   3.494   5.912
22294WAT     H167124   9.269   3.576   5.969
22294WAT     H267125   9.326   3.504   5.834
22295WAT      O67126   6.637   9.794   0.430
22295WAT     H167127   6.626   9.779   0.332
22295WAT     H267128   6.550   9.776   0.477
22296WAT      O67129   0.782   3.533   6.314
22296WAT     H167130   0.871   3.486   6.315
22296WAT     H267131   0.709   3.466   6.304
22297WAT      O67132   7.230   7.519   4.306
22297WAT     H167133   7.155   7.485   4.250
22297WAT     H267134   7.229   7.473   4.395
22298WAT      O67135   8.385   5.805   4.541
22298WAT     H167136   8.399   5.901   4.519
22298WAT     H267137   8.357   5.795   4.636
22299WAT      O67138   7.680   1.350   8.322
22299WAT     H167139   7.717   1.291   8.394
22299WAT     H267140   7.737   1.431   8.312
22300WAT      O67141   8.126   7.949   1.630
22300WAT     H167142   8.092   8.010   1.701
22300WAT     H267143   8.053   7.888   1.600
22301WAT      O67144   0.323   5.647   5.385
22301WAT     H167145   0.237   5.677   5.427
22301WAT     H267146   0.333   5.690   5.296
22302WAT      O67147   6.376   6.699   8.236
22302WAT     H167148   6.400   6.793   8.213
22302WAT     H267149   6.430   6.636   8.181
22303WAT      O67150   4.365   6.139   0.440
22303WAT     H167151   4.318   6.225   0.421
22303WAT     H267152   4.364   6.082   0.358
22304WAT      O67153   6.497   0.503   1.428
22304WAT     H167154   6.449   0.524   1.343
22304WAT     H267155   6.589   0.470   1.407
22305WAT      O67156   9.859   3.308   6.655
22305WAT     H167157   9.918   3.307   6.575
22305WAT     H267158   9.780   3.249   6.640
22306WAT      O67159   2.792   2.979   7.673
22306WAT     H167160   2.856   3.027   7.613
22306WAT     H267161   2.739   2.913   7.619
22307WAT      O67162   1.466   3.384   6.913
22307WAT     H167163   1.383   3.438   6.927
22307WAT     H267164   1.546   3.438   6.940
22308WAT      O67165   6.854   7.473   0.919
22308WAT     H167166   6.762   7.437   0.936
22308WAT     H267167   6.870   7.551   0.979
22309WAT      O67168   8.496   0.309   5.882
22309WAT     H167169   8.412   0.262   5.910
22309WAT     H267170   8.527   0.368   5.956
22310WAT      O67171   9.083   0.795   8.722
22310WAT     H167172   9.120   0.871   8.775
22310WAT     H267173   9.152   0.763   8.657
22311WAT      O67174   3.027   3.847   5.399
22311WAT     H167175   3.055   3.785   5.472
22311WAT     H267176   3.096   3.846   5.327
22312WAT      O67177   6.955   2.017   6.213
22312WAT     H167178   7.023   1.958   6.170
22312WAT     H267179   6.863   1.990   6.182
22313WAT      O67180   4.373   9.239   3.087
22313WAT     H167181   4.380   9.143   3.113
22313WAT     H267182   4.292   9.253   3.030
22314WAT      O67183   0.077   1.661   9.155
22314WAT     H167184   0.106   1.616   9.239
22314WAT     H267185   0.032   1.594   9.095
22315WAT      O67186   0.678   9.305   0.260
22315WAT     H167187   0.666   9.219   0.210
22315WAT     H267188   0.759   9.298   0.318
22316WAT      O67189   8.397   9.610   5.768
22316WAT     H167190   8.298   9.605   5.765
22316WAT     H267191   8.434   9.605   5.675
22317WAT      O67192   9.196   9.286   5.624
22317WAT     H167193   9.278   9.266   5.569
22317WAT     H267194   9.217   9.274   5.721
22318WAT      O67195   0.221   9.351   4.133
22318WAT     H167196   0.163   9.425   4.167
22318WAT     H267197   0.303   9.345   4.190
22319WAT      O67198   1.380   0.217   0.621
22319WAT     H167199   1.325   0.263   0.552
22319WAT     H267200   1.472   0.256   0.622
22320WAT      O67201   9.356   2.622   0.521
22320WAT     H167202   9.452   2.627   0.491
22320WAT     H267203   9.306   2.559   0.461
22321WAT      O67204   2.833   0.352   9.695
22321WAT     H167205   2.809   0.336   9.790
22321WAT     H267206   2.898   0.428   9.689
22322WAT      O67207   8.545   7.376   1.609
22322WAT     H167208   8.645   7.376   1.610
22322WAT     H267209   8.512   7.292   1.567
22323WAT      O67210   2.361   4.151   0.237
22323WAT     H167211   2.458   4.172   0.250
22323WAT     H267212   2.346   4.052   0.245
22324WAT      O67213   9.821   2.047   4.889
22324WAT     H167214   9.817   2.005   4.799
22324WAT     H267215   9.769   2.133   4.888
22325WAT      O67216   3.024   8.231   8.072
22325WAT     H167217   3.013   8.154   8.135
22325WAT     H267218   2.936   8.254   8.032
22326WAT      O67219   6.178   9.231   8.088
22326WAT     H167220   6.256   9.175   8.058
22326WAT     H267221   6.150   9.203   8.179
22327WAT      O67222   9.090   2.079   3.098
22327WAT     H167223   9.121   2.015   3.027
22327WAT     H267224   8.991   2.072   3.109
22328WAT      O67225   8.686   7.229   0.770
22328WAT     H167226   8.780   7.224   0.804
22328WAT     H267227   8.647   7.318   0.792
22329WAT      O67228   3.213   7.514   8.721
22329WAT     H167229   3.249   7.467   8.801
22329WAT     H267230   3.118   7.488   8.707
22330WAT      O67231   9.363   6.918   0.986
22330WAT     H167232   9.382   6.924   1.084
22330WAT     H267233   9.274   6.958   0.967
22331WAT      O67234   1.787   3.038   4.501
22331WAT     H167235   1.750   3.115   4.448
22331WAT     H267236   1.805   2.962   4.439
22332WAT      O67237   5.377   4.010   5.583
22332WAT     H167238   5.306   4.065   5.626
22332WAT     H267239   5.405   4.054   5.497
22333WAT      O67240   4.923   0.419   5.244
22333WAT     H167241   4.958   0.512   5.258
22333WAT     H267242   4.906   0.376   5.332
22334WAT      O67243   4.229   4.928   1.910
22334WAT     H167244   4.251   5.025   1.914
22334WAT     H267245   4.301   4.880   1.859
22335WAT      O67246   8.785   1.356   0.511
22335WAT     H167247   8.783   1.350   0.611
22335WAT     H267248   8.878   1.341   0.479
22336WAT      O67249   9.685   8.731   8.884
22336WAT     H167250   9.628   8.813   8.878
22336WAT     H267251   9.691   8.688   8.794
22337WAT      O67252   5.675   5.883   4.722
22337WAT     H167253   5.643   5.961   4.668
22337WAT     H267254   5.701   5.809   4.661
22338WAT      O67255   2.730   5.025   8.100
22338WAT     H167256   2.638   5.035   8.062
22338WAT     H267257   2.796   5.070   8.040
22339WAT      O67258   9.879   4.345   2.089
22339WAT     H167259   9.910   4.433   2.052
22339WAT     H267260   9.954   4.279   2.084
22340WAT      O67261   2.515   6.425   8.129
22340WAT     H167262   2.431   6.439   8.077
22340WAT     H267263   2.501   6.353   8.197
22341WAT      O67264   7.333   7.360   9.164
22341WAT     H167265   7.246   7.393   9.202
22341WAT     H267266   7.319   7.327   9.071
22342WAT      O67267   7.490   1.356   5.617
22342WAT     H167268   7.448   1.316   5.698
22342WAT     H267269   7.452   1.447   5.601
22343WAT      O67270   0.772   4.042   2.961
22343WAT     H167271   0.814   4.057   2.872
22343WAT     H267272   0.744   4.129   3.000
22344WAT      O67273   9.842   6.795   1.782
22344WAT     H167274   9.885   6.754   1.701
22344WAT     H267275   9.864   6.741   1.862
22345WAT      O67276   3.963   3.031   9.623
22345WAT     H167277   3.903   3.102   9.660
22345WAT     H267278   4.050   3.072   9.595
22346WAT      O67279   7.898   9.033   2.490
22346WAT     H167280   7.937   8.944   2.470
22346WAT     H267281   7.948   9.075   2.566
22347WAT      O67282   1.540   4.917   2.139
22347WAT     H167283   1.593   4.877   2.065
22347WAT     H267284   1.531   4.849   2.213
22348WAT      O67285   8.272   5.879   0.283
22348WAT     H167286   8.226   5.881   0.194
22348WAT     H267287   8.303   5.785   0.302
22349WAT      O67288   1.228   2.182   3.534
22349WAT     H167289   1.309   2.227   3.499
22349WAT     H267290   1.255   2.110   3.599
22350WAT      O67291   5.786   9.820   5.101
22350WAT     H167292   5.746   9.908   5.077
22350WAT     H267293   5.886   9.827   5.102
22351WAT      O67294   8.047   4.711   2.836
22351WAT     H167295   8.062   4.688   2.740
22351WAT     H267296   8.021   4.808   2.843
22352WAT      O67297   8.076   5.952   9.269
22352WAT     H167298   7.980   5.959   9.243
22352WAT     H267299   8.088   5.982   9.364
22353WAT      O67300   7.158   7.540   3.843
22353WAT     H167301   7.208   7.624   3.821
22353WAT     H267302   7.073   7.537   3.791
22354WAT      O67303   1.952   0.497   5.827
22354WAT     H167304   1.957   0.415   5.884
22354WAT     H267305   2.010   0.569   5.866
22355WAT      O67306   4.747   0.523   1.165
22355WAT     H167307   4.683   0.532   1.089
22355WAT     H267308   4.796   0.435   1.157
22356WAT      O67309   5.819   7.720   8.260
22356WAT     H167310   5.821   7.636   8.315
22356WAT     H267311   5.909   7.764   8.264
22357WAT      O67312   4.777   2.885   9.545
22357WAT     H167313   4.781   2.951   9.620
22357WAT     H267314   4.710   2.916   9.478
22358WAT      O67315   1.815   1.378   1.500
22358WAT     H167316   1.894   1.428   1.536
22358WAT     H267317   1.733   1.406   1.550
22359WAT      O67318   3.143   0.544   8.751
22359WAT     H167319   3.099   0.627   8.786
22359WAT     H267320   3.087   0.506   8.677
22360WAT      O67321   8.213   4.637   9.870
22360WAT     H167322   8.286   4.604   9.810
22360WAT     H267323   8.163   4.710   9.825
22361WAT      O67324   0.436   6.937   2.984
22361WAT     H167325   0.414   6.981   3.071
22361WAT     H267326   0.491   6.999   2.929
22362WAT      O67327   9.598   5.117   5.328
22362WAT     H167328   9.598   5.212   5.297
22362WAT     H267329   9.614   5.115   5.427
22363WAT      O67330   6.719   8.471   3.473
22363WAT     H167331   6.805   8.514   3.446
22363WAT     H267332   6.737   8.390   3.528
22364WAT      O67333   3.572   8.299   3.115
22364WAT     H167334   3.609   8.214   3.078
22364WAT     H267335   3.515   8.344   3.046
22365WAT      O67336   7.163   7.522   5.942
22365WAT     H167337   7.149   7.526   6.041
22365WAT     H267338   7.259   7.536   5.921
22366WAT      O67339   3.201   6.640   3.433
22366WAT     H167340   3.153   6.614   3.349
22366WAT     H267341   3.134   6.651   3.507
22367WAT      O67342   9.049   9.410   8.326
22367WAT     H167343   9.083   9.324   8.364
22367WAT     H267344   9.073   9.485   8.388
22368WAT      O67345   1.590   2.862   6.054
22368WAT     H167346   1.634   2.837   5.968
22368WAT     H267347   1.652   2.919   6.108
22369WAT      O67348   4.393   7.794   0.752
22369WAT     H167349   4.307   7.757   0.717
22369WAT     H267350   4.462   7.794   0.679
22370WAT      O67351   9.438   2.100   8.292
22370WAT     H167352   9.462   2.008   8.261
22370WAT     H267353   9.406   2.096   8.387
22371WAT      O67354   7.910   7.823   1.537
22371WAT     H167355   7.880   7.868   1.453
22371WAT     H267356   7.912   7.724   1.524
22372WAT      O67357   4.001   7.670   6.845
22372WAT     H167358   3.940   7.712   6.778
22372WAT     H267359   4.025   7.737   6.915
22373WAT      O67360   2.009   2.011   7.071
22373WAT     H167361   1.941   1.962   7.016
22373WAT     H267362   2.055   1.947   7.133
22374WAT      O67363   4.028   2.852   4.478
22374WAT     H167364   4.109   2.799   4.455
22374WAT     H267365   3.946   2.800   4.452
22375WAT      O67366   9.875   3.345   5.225
22375WAT     H167367   9.808   3.413   5.253
22375WAT     H267368   9.948   3.339   5.294
22376WAT      O67369   2.324   5.008   2.921
22376WAT     H167370   2.380   5.013   2.838
22376WAT     H267371   2.384   4.999   3.001
22377WAT      O67372   4.343   8.019   0.462
22377WAT     H167373   4.436   7.983   0.465
22377WAT     H267374   4.333   8.090   0.532
22378WAT      O67375   8.666   0.768   0.549
22378WAT     H167376   8.676   0.695   0.480
22378WAT     H267377   8.704   0.853   0.513
22379WAT      O67378   5.230   8.536   9.825
22379WAT     H167379   5.285   8.454   9.837
22379WAT     H267380   5.137   8.510   9.799
22380WAT      O67381   5.244   6.662   1.024
22380WAT     H167382   5.185   6.697   1.098
22380WAT     H267383   5.339   6.667   1.053
22381WAT      O67384   1.618   7.928   9.499
22381WAT     H167385   1.539   7.962   9.551
22381WAT     H267386   1.630   7.830   9.517
22382WAT      O67387   7.680   4.750   6.719
22382WAT     H167388   7.681   4.831   6.778
22382WAT     H267389   7.613   4.684   6.754
22383WAT      O67390   7.033   9.737   2.328
22383WAT     H167391   6.942   9.740   2.288
22383WAT     H267392   7.076   9.827   2.319
22384WAT      O67393   0.800   5.829   5.201
22384WAT     H167394   0.823   5.846   5.105
22384WAT     H267395   0.883   5.809   5.252
22385WAT      O67396   0.582   5.318   7.049
22385WAT     H167397   0.588   5.418   7.049
22385WAT     H267398   0.639   5.282   7.123
22386WAT      O67399   6.925   2.147   1.303
22386WAT     H167400   7.000   2.089   1.334
22386WAT     H267401   6.910   2.134   1.205
22387WAT      O67402   5.795   4.830   9.064
22387WAT     H167403   5.878   4.823   9.121
22387WAT     H267404   5.814   4.793   8.973
22388WAT      O67405   1.298   0.132   2.338
22388WAT     H167406   1.311   0.228   2.314
22388WAT     H267407   1.247   0.125   2.423
22389WAT      O67408   9.270   0.222   5.020
22389WAT     H167409   9.289   0.217   5.118
22389WAT     H267410   9.320   0.299   4.980
22390WAT      O67411   6.916   4.668   3.659
22390WAT     H167412   6.986   4.710   3.717
22390WAT     H267413   6.886   4.582   3.701
22391WAT      O67414   3.126   9.592   7.872
22391WAT     H167415   3.090   9.608   7.964
22391WAT     H267416   3.051   9.567   7.810
22392WAT      O67417   4.601   3.652   5.118
22392WAT     H167418   4.681   3.665   5.177
22392WAT     H267419   4.559   3.563   5.139
22393WAT      O67420   5.365   0.778   3.841
22393WAT     H167421   5.359   0.706   3.910
22393WAT     H267422   5.293   0.766   3.773
22394WAT      O67423   8.318   2.065   2.351
22394WAT     H167424   8.383   2.101   2.417
22394WAT     H267425   8.284   1.976   2.383
22395WAT      O67426   7.557   7.640   4.582
22395WAT     H167427   7.545   7.700   4.503
22395WAT     H267428   7.477   7.648   4.642
22396WAT      O67429   0.301   3.906   1.051
22396WAT     H167430   0.352   3.963   1.116
22396WAT     H267431   0.241   3.845   1.101
22397WAT      O67432   0.217   9.296   7.479
22397WAT     H167433   0.232   9.209   7.527
22397WAT     H267434   0.130   9.336   7.508
22398WAT      O67435   8.914   5.781   9.205
22398WAT     H167436   8.993   5.760   9.147
22398WAT     H267437   8.901   5.880   9.208
22399WAT      O67438   8.092   2.404   6.047
22399WAT     H167439   8.068   2.309   6.026
22399WAT     H267440   8.096   2.415   6.146
22400WAT      O67441   3.861   2.442   8.641
22400WAT     H167442   3.945   2.389   8.643
22400WAT     H267443   3.788   2.390   8.686
22401WAT      O67444   2.458   3.826   7.756
22401WAT     H167445   2.550   3.790   7.742
22401WAT     H267446   2.463   3.925   7.772
22402WAT      O67447   9.794   3.865   1.201
22402WAT     H167448   9.779   3.963   1.218
22402WAT     H267449   9.767   3.843   1.107
22403WAT      O67450   8.681   3.829   5.597
22403WAT     H167451   8.728   3.819   5.685
22403WAT     H267452   8.688   3.744   5.546
22404WAT      O67453   2.809   0.336   3.871
22404WAT     H167454   2.787   0.295   3.783
22404WAT     H267455   2.769   0.428   3.876
22405WAT      O67456   7.285   0.306   8.789
22405WAT     H167457   7.292   0.210   8.762
22405WAT     H267458   7.200   0.345   8.752
22406WAT      O67459   3.431   6.365   4.310
22406WAT     H167460   3.488   6.372   4.228
22406WAT     H267461   3.488   6.382   4.391
22407WAT      O67462   6.339   8.935   7.264
22407WAT     H167463   6.246   8.958   7.294
22407WAT     H267464   6.334   8.885   7.177
22408WAT      O67465   5.443   0.750   0.293
22408WAT     H167466   5.464   0.846   0.311
22408WAT     H267467   5.509   0.692   0.340
22409WAT      O67468   6.749   9.623   0.607
22409WAT     H167469   6.719   9.694   0.543
22409WAT     H267470   6.729   9.533   0.569
22410WAT      O67471   3.082   3.806   7.293
22410WAT     H167472   3.094   3.900   7.326
22410WAT     H267473   3.154   3.785   7.227
22411WAT      O67474   3.125   9.144   1.184
22411WAT     H167475   3.225   9.135   1.181
22411WAT     H267476   3.094   9.207   1.114
22412WAT      O67477   8.693   9.419   3.170
22412WAT     H167478   8.688   9.501   3.113
22412WAT     H267479   8.660   9.440   3.262
22413WAT      O67480   8.193   2.536   3.941
22413WAT     H167481   8.280   2.517   3.896
22413WAT     H267482   8.133   2.456   3.931
22414WAT      O67483   9.076   8.901   9.839
22414WAT     H167484   9.090   8.802   9.836
22414WAT     H267485   8.979   8.922   9.829
22415WAT      O67486   0.556   1.386   9.739
22415WAT     H167487   0.463   1.379   9.701
22415WAT     H267488   0.583   1.482   9.745
22416WAT      O67489   2.057   2.677   3.738
22416WAT     H167490   2.124   2.681   3.664
22416WAT     H267491   1.976   2.729   3.712
22417WAT      O67492   3.499   6.413   6.607
22417WAT     H167493   3.435   6.447   6.676
22417WAT     H267494   3.470   6.445   6.517
22418WAT      O67495   4.731   8.342   1.469
22418WAT     H167496   4.806   8.355   1.534
22418WAT     H267497   4.686   8.255   1.488
22419WAT      O67498   6.029   7.918   1.506
22419WAT     H167499   5.942   7.949   1.469
22419WAT     H267500   6.026   7.920   1.606
22420WAT      O67501   6.810   3.708   8.605
22420WAT     H167502   6.780   3.614   8.620
22420WAT     H267503   6.909   3.709   8.591
22421WAT      O67504   8.579   7.514   0.417
22421WAT     H167505   8.639   7.589   0.443
22421WAT     H267506   8.512   7.497   0.490
22422WAT      O67507   2.360   4.591   5.687
22422WAT     H167508   2.354   4.614   5.784
22422WAT     H267509   2.408   4.504   5.676
22423WAT      O67510   0.772   3.406   3.531
22423WAT     H167511   0.845   3.440   3.471
22423WAT     H267512   0.804   3.327   3.582
22424WAT      O67513   9.500   7.452   1.106
22424WAT     H167514   9.509   7.535   1.160
22424WAT     H267515   9.464   7.379   1.164
22425WAT      O67516   2.054   9.424   3.682
22425WAT     H167517   2.090   9.431   3.775
22425WAT     H267518   2.098   9.493   3.625
22426WAT      O67519   2.631   0.691   6.340
22426WAT     H167520   2.552   0.689   6.402
22426WAT     H267521   2.610   0.752   6.263
22427WAT      O67522   0.414   3.903   4.744
22427WAT     H167523   0.394   3.985   4.797
22427WAT     H267524   0.466   3.928   4.662
22428WAT      O67525   9.367   7.642   5.719
22428WAT     H167526   9.331   7.615   5.809
22428WAT     H267527   9.344   7.738   5.702
22429WAT      O67528   4.530   4.589   2.318
22429WAT     H167529   4.589   4.511   2.296
22429WAT     H267530   4.488   4.624   2.234
22430WAT      O67531   4.409   9.472   8.470
22430WAT     H167532   4.430   9.395   8.410
22430WAT     H267533   4.446   9.456   8.561
22431WAT      O67534   9.292   4.581   8.753
22431WAT     H167535   9.369   4.643   8.739
22431WAT     H267536   9.213   4.634   8.783
22432WAT      O67537   1.217   8.641   8.947
22432WAT     H167538   1.183   8.608   8.859
22432WAT     H267539   1.292   8.706   8.931
22433WAT      O67540   9.816   4.571   1.703
22433WAT     H167541   9.721   4.544   1.715
22433WAT     H267542   9.851   4.534   1.617
22434WAT      O67543   5.513   9.099   7.165
22434WAT     H167544   5.455   9.022   7.190
22434WAT     H267545   5.489   9.179   7.221
22435WAT      O67546   4.003   3.673   7.535
22435WAT     H167547   4.042   3.591   7.578
22435WAT     H267548   4.006   3.663   7.436
22436WAT      O67549   1.968   5.426   4.753
22436WAT     H167550   1.868   5.419   4.742
22436WAT     H267551   1.990   5.422   4.850
22437WAT      O67552   2.797   2.455   5.654
22437WAT     H167553   2.801   2.365   5.699
22437WAT     H267554   2.865   2.458   5.582
22438WAT      O67555   7.716   9.609   8.777
22438WAT     H167556   7.631   9.598   8.725
22438WAT     H267557   7.793   9.618   8.713
22439WAT      O67558   5.993   1.441   7.701
22439WAT     H167559   6.015   1.478   7.791
22439WAT     H267560   5.953   1.514   7.645
22440WAT      O67561   5.600   6.725   2.005
22440WAT     H167562   5.691   6.731   1.963
22440WAT     H267563   5.536   6.778   1.950
22441WAT      O67564   5.867   0.822   0.845
22441WAT     H167565   5.817   0.800   0.928
22441WAT     H267566   5.817   0.788   0.765
22442WAT      O67567   7.370   3.080   5.768
22442WAT     H167568   7.322   3.063   5.854
22442WAT     H267569   7.469   3.070   5.783
22443WAT      O67570   8.455   9.486   2.493
22443WAT     H167571   8.454   9.458   2.588
22443WAT     H267572   8.433   9.408   2.434
22444WAT      O67573   3.682   7.096   6.596
22444WAT     H167574   3.687   7.054   6.506
22444WAT     H267575   3.639   7.033   6.660
22445WAT      O67576   7.338   7.035   1.373
22445WAT     H167577   7.367   7.012   1.280
22445WAT     H267578   7.371   6.965   1.436
22446WAT      O67579   8.455   7.539   8.921
22446WAT     H167580   8.444   7.440   8.906
22446WAT     H267581   8.533   7.555   8.980
22447WAT      O67582   4.711   6.454   9.801
22447WAT     H167583   4.651   6.378   9.824
22447WAT     H267584   4.687   6.489   9.710
22448WAT      O67585   3.157   5.307   2.873
22448WAT     H167586   3.143   5.351   2.962
22448WAT     H267587   3.221   5.231   2.883
22449WAT      O67588   7.161   1.877   4.851
22449WAT     H167589   7.237   1.838   4.903
22449WAT     H267590   7.117   1.806   4.796
22450WAT      O67591   5.373   1.597   1.444
22450WAT     H167592   5.347   1.579   1.539
22450WAT     H267593   5.416   1.515   1.405
22451WAT      O67594   0.432   2.332   4.276
22451WAT     H167595   0.433   2.397   4.352
22451WAT     H267596   0.359   2.265   4.291
22452WAT      O67597   6.684   3.713   6.638
22452WAT     H167598   6.587   3.690   6.641
22452WAT     H267599   6.731   3.670   6.715
22453WAT      O67600   6.200   5.673   9.869
22453WAT     H167601   6.257   5.650   9.947
22453WAT     H267602   6.121   5.726   9.899
22454WAT      O67603   5.794   0.451   1.104
22454WAT     H167604   5.840   0.376   1.153
22454WAT     H267605   5.702   0.463   1.141
22455WAT      O67606   9.510   4.264   0.627
22455WAT     H167607   9.494   4.175   0.584
22455WAT     H267608   9.538   4.330   0.557
22456WAT      O67609   2.685   8.241   0.195
22456WAT     H167610   2.632   8.326   0.196
22456WAT     H267611   2.713   8.219   0.289
22457WAT      O67612   2.916   6.047   8.294
22457WAT     H167613   2.937   6.114   8.223
22457WAT     H267614   2.828   6.069   8.336
22458WAT      O67615   5.686   0.205   2.729
22458WAT     H167616   5.758   0.252   2.679
22458WAT     H267617   5.639   0.140   2.668
22459WAT      O67618   1.066   4.429   8.433
22459WAT     H167619   1.160   4.430   8.466
22459WAT     H267620   1.051   4.350   8.374
22460WAT      O67621   9.468   3.442   3.253
22460WAT     H167622   9.443   3.372   3.186
22460WAT     H267623   9.475   3.531   3.208
22461WAT      O67624   0.322   0.269   1.201
22461WAT     H167625   0.365   0.333   1.137
22461WAT     H267626   0.394   0.224   1.254
22462WAT      O67627   4.989   0.631   1.106
22462WAT     H167628   5.001   0.725   1.137
22462WAT     H267629   4.909   0.591   1.150
22463WAT      O67630   2.133   0.700   8.918
22463WAT     H167631   2.162   0.607   8.894
22463WAT     H267632   2.210   0.749   8.959
22464WAT      O67633   0.829   8.113   7.860
22464WAT     H167634   0.761   8.085   7.793
22464WAT     H267635   0.795   8.093   7.952
22465WAT      O67636   4.650   8.389   4.231
22465WAT     H167637   4.641   8.380   4.330
22465WAT     H267638   4.593   8.320   4.186
22466WAT      O67639   9.237   5.730   3.749
22466WAT     H167640   9.321   5.755   3.700
22466WAT     H267641   9.167   5.703   3.683
22467WAT      O67642   6.907   2.255   3.085
22467WAT     H167643   6.996   2.282   3.049
22467WAT     H267644   6.908   2.157   3.105
22468WAT      O67645   6.468   9.252   8.579
22468WAT     H167646   6.553   9.262   8.630
22468WAT     H267647   6.444   9.156   8.570
22469WAT      O67648   3.814   3.363   7.632
22469WAT     H167649   3.780   3.440   7.687
22469WAT     H267650   3.745   3.336   7.565
22470WAT      O67651   6.486   5.761   5.501
22470WAT     H167652   6.568   5.704   5.497
22470WAT     H267653   6.487   5.826   5.424
22471WAT      O67654   4.456   9.407   5.213
22471WAT     H167655   4.552   9.432   5.201
22471WAT     H267656   4.417   9.458   5.289
22472WAT      O67657   5.825   4.457   8.456
22472WAT     H167658   5.767   4.377   8.445
22472WAT     H267659   5.871   4.478   8.370
22473WAT      O67660   0.429   4.638   4.797
22473WAT     H167661   0.415   4.617   4.894
22473WAT     H267662   0.463   4.731   4.787
22474WAT      O67663   0.211   0.890   7.796
22474WAT     H167664   0.133   0.892   7.858
22474WAT     H267665   0.283   0.949   7.832
22475WAT      O67666   0.746   0.531   6.477
22475WAT     H167667   0.819   0.597   6.494
22475WAT     H267668   0.744   0.508   6.379
22476WAT      O67669   2.059   6.687   7.411
22476WAT     H167670   1.960   6.702   7.423
22476WAT     H267671   2.095   6.755   7.347
22477WAT      O67672   0.026   2.919   2.069
22477WAT     H167673   0.040   2.903   1.971
22477WAT     H267674  -0.011   3.010   2.083
22478WAT      O67675   0.970   5.397   5.938
22478WAT     H167676   1.026   5.476   5.914
22478WAT     H267677   0.995   5.365   6.030
22479WAT      O67678   0.262   0.484   8.775
22479WAT     H167679   0.225   0.477   8.683
22479WAT     H267680   0.350   0.532   8.773
22480WAT      O67681   0.370   9.074   7.151
22480WAT     H167682   0.443   9.050   7.087
22480WAT     H267683   0.408   9.084   7.242
22481WAT      O67684   2.861   3.483   7.247
22481WAT     H167685   2.808   3.444   7.323
22481WAT     H267686   2.883   3.411   7.181
22482WAT      O67687   7.437   4.911   1.217
22482WAT     H167688   7.375   4.844   1.258
22482WAT     H267689   7.512   4.931   1.280
22483WAT      O67690   5.993   5.684   4.488
22483WAT     H167691   6.059   5.715   4.557
22483WAT     H267692   6.014   5.590   4.461
22484WAT      O67693   2.307   9.536   8.036
22484WAT     H167694   2.261   9.570   7.954
22484WAT     H267695   2.294   9.602   8.110
22485WAT      O67696   4.351   4.738   5.962
22485WAT     H167697   4.306   4.650   5.943
22485WAT     H267698   4.312   4.776   6.046
22486WAT      O67699   2.342   3.273   3.488
22486WAT     H167700   2.423   3.215   3.495
22486WAT     H267701   2.280   3.234   3.420
22487WAT      O67702   4.181   7.613   8.097
22487WAT     H167703   4.182   7.697   8.043
22487WAT     H267704   4.249   7.619   8.170
22488WAT      O67705   1.353   3.825   8.597
22488WAT     H167706   1.426   3.880   8.557
22488WAT     H267707   1.266   3.873   8.587
22489WAT      O67708   4.051   2.200   7.433
22489WAT     H167709   4.035   2.298   7.447
22489WAT     H267710   4.098   2.162   7.513
22490WAT      O67711   0.850   1.910   8.929
22490WAT     H167712   0.754   1.933   8.942
22490WAT     H267713   0.895   1.984   8.880
22491WAT      O67714   2.692   8.236   7.871
22491WAT     H167715   2.722   8.232   7.966
22491WAT     H267716   2.727   8.157   7.822
22492WAT      O67717   0.767   4.946   6.284
22492WAT     H167718   0.702   5.020   6.271
22492WAT     H267719   0.857   4.973   6.250
22493WAT      O67720   7.070   2.928   6.986
22493WAT     H167721   7.088   3.017   6.945
22493WAT     H267722   7.002   2.880   6.931
22494WAT      O67723   7.240   3.276   8.895
22494WAT     H167724   7.336   3.286   8.920
22494WAT     H267725   7.199   3.202   8.950
22495WAT      O67726   1.205   5.249   3.967
22495WAT     H167727   1.210   5.348   3.972
22495WAT     H267728   1.171   5.222   3.876
22496WAT      O67729   5.389   3.470   2.065
22496WAT     H167730   5.355   3.507   2.152
22496WAT     H267731   5.319   3.414   2.022
22497WAT      O67732   5.099   2.605   8.881
22497WAT     H167733   5.026   2.537   8.888
22497WAT     H267734   5.102   2.659   8.966
22498WAT      O67735   2.359   8.633   1.593
22498WAT     H167736   2.456   8.625   1.616
22498WAT     H267737   2.304   8.597   1.668
22499WAT      O67738   7.575   4.063   5.687
22499WAT     H167739   7.510   3.997   5.650
22499WAT     H267740   7.619   4.025   5.768
22500WAT      O67741   5.452   5.331   0.383
22500WAT     H167742   5.377   5.388   0.349
22500WAT     H267743   5.483   5.270   0.311
22501WAT      O67744   2.070   1.423   3.857
22501WAT     H167745   2.084   1.349   3.924
22501WAT     H267746   2.131   1.499   3.879
22502WAT      O67747   0.002   3.961   0.782
22502WAT     H167748  -0.053   3.927   0.859
22502WAT     H267749   0.038   3.884   0.730
22503WAT      O67750   5.060   2.345   9.108
22503WAT     H167751   5.024   2.268   9.161
22503WAT     H267752   4.994   2.371   9.038
22504WAT      O67753   8.299   1.960   9.317
22504WAT     H167754   8.330   1.934   9.408
22504WAT     H267755   8.269   2.055   9.316
22505WAT      O67756   9.094   4.130   7.129
22505WAT     H167757   9.131   4.210   7.082
22505WAT     H267758   9.156   4.104   7.204
22506WAT      O67759   0.100   6.333   5.849
22506WAT     H167760   0.104   6.414   5.908
22506WAT     H267761   0.072   6.254   5.904
22507WAT      O67762   9.062   4.837   8.643
22507WAT     H167763   9.070   4.756   8.585
22507WAT     H267764   8.972   4.839   8.685
22508WAT      O67765   5.553   2.399   4.153
22508WAT     H167766   5.596   2.482   4.116
22508WAT     H267767   5.524   2.340   4.078
22509WAT      O67768   1.319   2.471   1.577
22509WAT     H167769   1.342   2.499   1.670
22509WAT     H267770   1.331   2.372   1.569
22510WAT      O67771   9.078   7.367   7.177
22510WAT     H167772   9.011   7.440   7.167
22510WAT     H267773   9.038   7.291   7.229
22511WAT      O67774   0.911   8.068   2.925
22511WAT     H167775   0.974   8.076   2.847
22511WAT     H267776   0.816   8.073   2.892
22512WAT      O67777   1.455   0.235   5.505
22512WAT     H167778   1.469   0.304   5.576
22512WAT     H267779   1.510   0.258   5.425
22513WAT      O67780   5.089   9.538   2.311
22513WAT     H167781   5.046   9.618   2.267
22513WAT     H267782   5.039   9.456   2.285
22514WAT      O67783   0.013   8.038   6.700
22514WAT     H167784   0.097   8.027   6.753
22514WAT     H267785  -0.039   7.953   6.701
22515WAT      O67786   3.237   9.636   6.062
22515WAT     H167787   3.234   9.536   6.071
22515WAT     H267788   3.166   9.665   5.998
22516WAT      O67789   7.581   8.880   9.894
22516WAT     H167790   7.552   8.826   9.815
22516WAT     H267791   7.538   8.970   9.890
22517WAT      O67792   7.323   9.159   0.375
22517WAT     H167793   7.323   9.241   0.318
22517WAT     H267794   7.233   9.149   0.418
22518WAT      O67795   4.877   4.842   6.625
22518WAT     H167796   4.910   4.813   6.535
22518WAT     H267797   4.930   4.920   6.657
22519WAT      O67798   4.058   6.899   2.554
22519WAT     H167799   4.060   6.905   2.455
22519WAT     H267800   4.027   6.986   2.592
22520WAT      O67801   3.198   9.509   7.117
22520WAT     H167802   3.146   9.427   7.091
22520WAT     H267803   3.222   9.561   7.035
22521WAT      O67804   9.084   1.261   4.186
22521WAT     H167805   9.169   1.262   4.239
22521WAT     H267806   9.061   1.354   4.158
22522WAT      O67807   2.719   2.457   0.934
22522WAT     H167808   2.755   2.532   0.989
22522WAT     H267809   2.783   2.435   0.861
22523WAT      O67810   4.503   9.494   7.102
22523WAT     H167811   4.540   9.426   7.165
22523WAT     H267812   4.473   9.449   7.018
22524WAT      O67813   1.238   8.626   2.186
22524WAT     H167814   1.225   8.535   2.226
22524WAT     H267815   1.158   8.649   2.130
22525WAT      O67816   1.797   6.459   2.611
22525WAT     H167817   1.745   6.378   2.581
22525WAT     H267818   1.740   6.514   2.672
22526WAT      O67819   6.515   7.079   9.317
22526WAT     H167820   6.428   7.038   9.292
22526WAT     H267821   6.561   7.112   9.234
22527WAT      O67822   0.596   1.289   5.240
22527WAT     H167823   0.582   1.337   5.154
22527WAT     H267824   0.523   1.221   5.252
22528WAT      O67825   4.193   4.337   9.661
22528WAT     H167826   4.233   4.312   9.749
22528WAT     H267827   4.124   4.408   9.674
22529WAT      O67828   7.127   1.481   0.319
22529WAT     H167829   7.085   1.518   0.236
22529WAT     H267830   7.057   1.470   0.390
22530WAT      O67831   0.746   8.291   2.065
22530WAT     H167832   0.668   8.349   2.042
22530WAT     H267833   0.728   8.241   2.150
22531WAT      O67834   1.923   9.498   5.924
22531WAT     H167835   1.909   9.473   5.828
22531WAT     H267836   1.918   9.598   5.933
22532WAT      O67837   0.627   4.926   1.187
22532WAT     H167838   0.669   4.850   1.137
22532WAT     H267839   0.532   4.936   1.160
22533WAT      O67840   5.301   1.658   7.386
22533WAT     H167841   5.256   1.615   7.308
22533WAT     H267842   5.306   1.757   7.372
22534WAT      O67843   7.979   8.053   6.127
22534WAT     H167844   8.030   8.116   6.185
22534WAT     H267845   8.039   7.978   6.098
22535WAT      O67846   4.371   7.081   6.012
22535WAT     H167847   4.323   7.168   6.019
22535WAT     H267848   4.338   7.031   5.932
22536WAT      O67849   8.288   7.102   6.621
22536WAT     H167850   8.263   7.055   6.706
22536WAT     H267851   8.302   7.034   6.549
22537WAT      O67852   1.834   8.722   2.116
22537WAT     H167853   1.895   8.700   2.040
22537WAT     H267854   1.789   8.639   2.147
22538WAT      O67855   8.916   7.320   8.676
22538WAT     H167856   8.840   7.372   8.637
22538WAT     H267857   8.918   7.228   8.635
22539WAT      O67858   3.779   4.851   1.594
22539WAT     H167859   3.854   4.807   1.544
22539WAT     H267860   3.804   4.946   1.613
22540WAT      O67861   2.718   7.530   1.076
22540WAT     H167862   2.727   7.440   1.119
22540WAT     H267863   2.808   7.572   1.065
22541WAT      O67864   2.909   1.484   3.123
22541WAT     H167865   2.874   1.424   3.051
22541WAT     H267866   2.921   1.432   3.207
22542WAT      O67867   9.652   6.132   0.421
22542WAT     H167868   9.595   6.213   0.408
22542WAT     H267869   9.634   6.092   0.511
22543WAT      O67870   1.904   6.955   2.941
22543WAT     H167871   1.970   7.019   2.980
22543WAT     H267872   1.813   6.973   2.979
22544WAT      O67873   0.985   2.665   0.280
22544WAT     H167874   1.051   2.684   0.207
22544WAT     H267875   0.908   2.728   0.273
22545WAT      O67876   9.691   2.453   0.974
22545WAT     H167877   9.782   2.430   1.009
22545WAT     H267878   9.651   2.371   0.933
22546WAT      O67879   9.181   9.766   3.640
22546WAT     H167880   9.118   9.812   3.578
22546WAT     H267881   9.156   9.787   3.734
22547WAT      O67882   3.195   0.923   3.099
22547WAT     H167883   3.123   0.868   3.058
22547WAT     H267884   3.267   0.863   3.135
22548WAT      O67885   7.465   5.399   3.242
22548WAT     H167886   7.538   5.363   3.300
22548WAT     H267887   7.472   5.498   3.238
22549WAT      O67888   1.563   0.115   2.237
22549WAT     H167889   1.563   0.212   2.213
22549WAT     H267890   1.481   0.094   2.290
22550WAT      O67891   2.236   2.130   6.528
22550WAT     H167892   2.165   2.096   6.590
22550WAT     H267893   2.324   2.087   6.551
22551WAT      O67894   4.692   4.497   6.530
22551WAT     H167895   4.676   4.503   6.432
22551WAT     H267896   4.647   4.573   6.577
22552WAT      O67897   5.815   5.849   2.585
22552WAT     H167898   5.907   5.854   2.545
22552WAT     H267899   5.752   5.902   2.529
22553WAT      O67900   1.381   8.030   1.173
22553WAT     H167901   1.402   7.941   1.132
22553WAT     H267902   1.466   8.083   1.183
22554WAT      O67903   2.598   3.505   5.892
22554WAT     H167904   2.678   3.560   5.870
22554WAT     H267905   2.571   3.452   5.811
22555WAT      O67906   5.304   2.046   0.225
22555WAT     H167907   5.234   1.981   0.195
22555WAT     H267908   5.371   2.060   0.153
22556WAT      O67909   5.324   1.801   9.621
22556WAT     H167910   5.414   1.815   9.579
22556WAT     H267911   5.271   1.736   9.566
22557WAT      O67912   4.200   9.841   6.613
22557WAT     H167913   4.133   9.833   6.539
22557WAT     H267914   4.157   9.887   6.692
22558WAT      O67915   0.048   8.763   6.889
22558WAT     H167916   0.134   8.796   6.850
22558WAT     H267917   0.026   8.814   6.972
22559WAT      O67918   8.164   9.783   4.022
22559WAT     H167919   8.069   9.755   4.011
22559WAT     H267920   8.224   9.704   4.006
22560WAT      O67921   9.611   6.870   9.616
22560WAT     H167922   9.591   6.795   9.679
22560WAT     H267923   9.648   6.948   9.668
22561WAT      O67924   6.424   7.876   3.844
22561WAT     H167925   6.422   7.970   3.879
22561WAT     H267926   6.380   7.874   3.754
22562WAT      O67927   9.752   7.708   9.082
22562WAT     H167928   9.709   7.645   9.146
22562WAT     H267929   9.773   7.795   9.128
22563WAT      O67930   9.066   1.608   6.327
22563WAT     H167931   9.038   1.515   6.304
22563WAT     H267932   9.000   1.673   6.290
22564WAT      O67933   4.249   2.830   8.622
22564WAT     H167934   4.267   2.748   8.567
22564WAT     H267935   4.199   2.803   8.705
22565WAT      O67936   0.992   1.974   3.958
22565WAT     H167937   1.065   1.961   4.025
22565WAT     H267938   0.981   2.071   3.939
22566WAT      O67939   6.110   5.295   8.674
22566WAT     H167940   6.175   5.227   8.707
22566WAT     H267941   6.017   5.259   8.682
22567WAT      O67942   8.388   5.432   9.120
22567WAT     H167943   8.382   5.334   9.101
22567WAT     H267944   8.427   5.446   9.211
22568WAT      O67945   2.070   7.548   3.048
22568WAT     H167946   2.109   7.622   3.104
22568WAT     H267947   2.069   7.463   3.100
22569WAT      O67948   5.642   7.743   4.418
22569WAT     H167949   5.551   7.783   4.413
22569WAT     H267950   5.643   7.668   4.484
22570WAT      O67951   4.741   4.956   0.809
22570WAT     H167952   4.731   5.010   0.726
22570WAT     H267953   4.809   4.884   0.795
22571WAT      O67954   5.260   7.707   6.188
22571WAT     H167955   5.329   7.638   6.167
22571WAT     H267956   5.220   7.742   6.103
22572WAT      O67957   1.104   8.348   4.688
22572WAT     H167958   1.194   8.324   4.723
22572WAT     H267959   1.099   8.446   4.670
22573WAT      O67960   2.287   6.899   7.426
22573WAT     H167961   2.220   6.892   7.500
22573WAT     H267962   2.355   6.826   7.435
22574WAT      O67963   1.622   2.661   3.668
22574WAT     H167964   1.620   2.572   3.713
22574WAT     H267965   1.628   2.648   3.569
22575WAT      O67966   6.743   3.122   4.864
22575WAT     H167967   6.827   3.169   4.834
22575WAT     H267968   6.762   3.025   4.873
22576WAT      O67969   5.391   7.071   1.362
22576WAT     H167970   5.445   7.148   1.394
22576WAT     H267971   5.299   7.102   1.337
22577WAT      O67972   6.780   0.027   5.030
22577WAT     H167973   6.836   0.044   4.949
22577WAT     H267974   6.840   0.010   5.109
22578WAT      O67975   7.521   9.614   6.076
22578WAT     H167976   7.423   9.596   6.067
22578WAT     H267977   7.556   9.566   6.157
22579WAT      O67978   2.042   2.435   0.447
22579WAT     H167979   2.105   2.384   0.505
22579WAT     H267980   2.076   2.528   0.433
22580WAT      O67981   7.943   7.838   9.218
22580WAT     H167982   8.028   7.828   9.166
22580WAT     H267983   7.886   7.909   9.176
22581WAT      O67984   4.817   6.557   1.417
22581WAT     H167985   4.864   6.645   1.417
22581WAT     H267986   4.752   6.555   1.493
22582WAT      O67987   5.128   2.521   5.306
22582WAT     H167988   5.126   2.524   5.406
22582WAT     H267989   5.150   2.428   5.276
22583WAT      O67990   2.168   8.543   7.415
22583WAT     H167991   2.218   8.517   7.498
22583WAT     H267992   2.228   8.530   7.336
22584WAT      O67993   5.086   6.475   5.405
22584WAT     H167994   5.011   6.450   5.467
22584WAT     H267995   5.082   6.418   5.323
22585WAT      O67996   7.225   3.319   4.436
22585WAT     H167997   7.144   3.261   4.447
22585WAT     H267998   7.307   3.265   4.454
22586WAT      O67999   5.776   7.617   4.008
22586WAT     H168000   5.781   7.668   4.094
22586WAT     H268001   5.861   7.631   3.957
22587WAT      O68002   9.558   0.702   9.831
22587WAT     H168003   9.498   0.734   9.904
22587WAT     H268004   9.652   0.697   9.864
22588WAT      O68005   5.824   4.672   4.851
22588WAT     H168006   5.914   4.631   4.846
22588WAT     H268007   5.830   4.770   4.830
22589WAT      O68008   8.519   7.685   9.794
22589WAT     H168009   8.486   7.758   9.853
22589WAT     H268010   8.498   7.707   9.699
22590WAT      O68011   3.140   5.645   9.433
22590WAT     H168012   3.202   5.580   9.389
22590WAT     H268013   3.147   5.734   9.388
22591WAT      O68014   6.636   5.681   8.115
22591WAT     H168015   6.597   5.738   8.043
22591WAT     H268016   6.699   5.735   8.171
22592WAT      O68017   1.966   4.469   8.815
22592WAT     H168018   1.951   4.430   8.906
22592WAT     H268019   2.016   4.556   8.825
22593WAT      O68020   4.620   6.609   7.987
22593WAT     H168021   4.687   6.631   7.916
22593WAT     H268022   4.601   6.511   7.985
22594WAT      O68023   2.559   0.014   1.427
22594WAT     H168024   2.501   0.096   1.426
22594WAT     H268025   2.505  -0.066   1.401
22595WAT      O68026   0.863   2.729   3.170
22595WAT     H168027   0.916   2.674   3.235
22595WAT     H268028   0.870   2.826   3.195
22596WAT      O68029   1.216   8.962   7.774
22596WAT     H168030   1.126   8.961   7.732
22596WAT     H268031   1.279   8.904   7.722
22597WAT      O68032   9.615   1.950   3.677
22597WAT     H168033   9.543   1.882   3.692
22597WAT     H268034   9.700   1.918   3.717
22598WAT      O68035   1.720   9.743   9.608
22598WAT     H168036   1.660   9.683   9.661
22598WAT     H268037   1.743   9.699   9.521
22599WAT      O68038   7.485   8.057   0.548
22599WAT     H168039   7.471   8.154   0.531
22599WAT     H268040   7.497   8.042   0.646
22600WAT      O68041   8.954   5.689   1.924
22600WAT     H168042   8.897   5.732   1.994
22600WAT     H268043   8.941   5.737   1.837
22601WAT      O68044   8.250   4.584   5.116
22601WAT     H168045   8.258   4.601   5.214
22601WAT     H268046   8.279   4.490   5.097
22602WAT      O68047   0.356   6.416   4.651
22602WAT     H168048   0.372   6.488   4.583
22602WAT     H268049   0.318   6.457   4.734
22603WAT      O68050   6.617   6.884   6.175
22603WAT     H168051   6.625   6.904   6.077
22603WAT     H268052   6.697   6.831   6.204
22604WAT      O68053   4.254   7.217   5.760
22604WAT     H168054   4.324   7.286   5.745
22604WAT     H268055   4.288   7.128   5.731
22605WAT      O68056   3.938   0.936   6.812
22605WAT     H168057   3.932   0.914   6.715
22605WAT     H268058   4.034   0.942   6.839
22606WAT      O68059   4.494   5.264   7.592
22606WAT     H168060   4.399   5.279   7.619
22606WAT     H268061   4.555   5.318   7.650
22607WAT      O68062   8.553   8.736   2.703
22607WAT     H168063   8.567   8.831   2.676
22607WAT     H268064   8.605   8.717   2.787
22608WAT      O68065   8.046   0.607   6.613
22608WAT     H168066   8.033   0.513   6.645
22608WAT     H268067   8.143   0.625   6.598
22609WAT      O68068   8.104   5.028   8.617
22609WAT     H168069   8.050   5.055   8.697
22609WAT     H268070   8.088   5.093   8.543
22610WAT      O68071   5.279   6.602   7.672
22610WAT     H168072   5.220   6.544   7.616
22610WAT     H268073   5.254   6.593   7.768
22611WAT      O68074   1.145   9.601   0.505
22611WAT     H168075   1.181   9.676   0.561
22611WAT     H268076   1.210   9.525   0.505
22612WAT      O68077   2.356   3.279   6.506
22612WAT     H168078   2.450   3.245   6.512
22612WAT     H268079   2.332   3.295   6.410
22613WAT      O68080   5.800   1.249   7.809
22613WAT     H168081   5.818   1.164   7.759
22613WAT     H268082   5.827   1.327   7.752
22614WAT      O68083   3.364   1.199   4.837
22614WAT     H168084   3.445   1.148   4.865
22614WAT     H268085   3.337   1.263   4.910
22615WAT      O68086   5.441   2.494   8.840
22615WAT     H168087   5.531   2.452   8.831
22615WAT     H268088   5.449   2.584   8.883
22616WAT      O68089   0.345   3.753   0.830
22616WAT     H168090   0.429   3.803   0.806
22616WAT     H268091   0.294   3.804   0.899
22617WAT      O68092   4.545   5.545   1.240
22617WAT     H168093   4.524   5.464   1.185
22617WAT     H268094   4.644   5.561   1.240
22618WAT      O68095   0.918   0.393   8.323
22618WAT     H168096   1.016   0.390   8.302
22618WAT     H268097   0.882   0.484   8.301
22619WAT      O68098   0.852   9.144   7.562
22619WAT     H168099   0.782   9.102   7.620
22619WAT     H268100   0.926   9.078   7.546
22620WAT      O68101   2.797   4.843   7.621
22620WAT     H168102   2.833   4.809   7.534
22620WAT     H268103   2.820   4.940   7.631
22621WAT      O68104   2.932   6.368   2.730
22621WAT     H168105   2.989   6.290   2.703
22621WAT     H268106   2.863   6.384   2.659
22622WAT      O68107   3.112   1.882   2.761
22622WAT     H168108   3.183   1.870   2.829
22622WAT     H268109   3.047   1.806   2.767
22623WAT      O68110   7.884   1.511   3.459
22623WAT     H168111   7.816   1.487   3.528
22623WAT     H268112   7.840   1.560   3.384
22624WAT      O68113   1.748   6.264   7.681
22624WAT     H168114   1.808   6.336   7.649
22624WAT     H268115   1.691   6.231   7.606
22625WAT      O68116   6.418   8.268   0.459
22625WAT     H168117   6.425   8.185   0.404
22625WAT     H268118   6.360   8.334   0.410
22626WAT      O68119   3.125   5.729   5.762
22626WAT     H168120   3.027   5.741   5.747
22626WAT     H268121   3.143   5.724   5.861
22627WAT      O68122   7.324   8.228   7.898
22627WAT     H168123   7.239   8.271   7.870
22627WAT     H268124   7.322   8.131   7.873
22628WAT      O68125   3.666   6.770   6.517
22628WAT     H168126   3.734   6.794   6.586
22628WAT     H268127   3.580   6.744   6.562
22629WAT      O68128   9.656   8.416   2.902
22629WAT     H168129   9.686   8.399   2.808
22629WAT     H268130   9.556   8.418   2.906
22630WAT      O68131   9.134   4.043   9.707
22630WAT     H168132   9.177   4.092   9.782
22630WAT     H268133   9.103   4.108   9.638
22631WAT      O68134   1.385   4.023   6.722
22631WAT     H168135   1.409   4.118   6.744
22631WAT     H268136   1.296   4.021   6.676
22632WAT      O68137   8.941   9.492   0.745
22632WAT     H168138   8.988   9.465   0.829
22632WAT     H268139   8.845   9.465   0.750
22633WAT      O68140   7.371   7.791   5.882
22633WAT     H168141   7.393   7.694   5.898
22633WAT     H268142   7.366   7.808   5.784
22634WAT      O68143   8.034   3.803   3.398
22634WAT     H168144   8.134   3.809   3.400
22634WAT     H268145   7.997   3.880   3.346
22635WAT      O68146   7.330   5.560   2.347
22635WAT     H168147   7.322   5.543   2.445
22635WAT     H268148   7.420   5.597   2.326
22636WAT      O68149   8.434   1.430   7.841
22636WAT     H168150   8.389   1.498   7.782
22636WAT     H268151   8.372   1.354   7.857
22637WAT      O68152   8.660   1.521   1.704
22637WAT     H168153   8.599   1.510   1.783
22637WAT     H268154   8.755   1.512   1.734
22638WAT      O68155   2.794   5.316   8.759
22638WAT     H168156   2.861   5.389   8.774
22638WAT     H268157   2.799   5.286   8.664
22639WAT      O68158   1.319   6.231   9.235
22639WAT     H168159   1.380   6.308   9.221
22639WAT     H268160   1.318   6.173   9.153
22640WAT      O68161   1.466   6.059   4.353
22640WAT     H168162   1.409   6.103   4.285
22640WAT     H268163   1.562   6.078   4.334
22641WAT      O68164   8.264   1.884   8.935
22641WAT     H168165   8.297   1.815   8.999
22641WAT     H268166   8.201   1.946   8.982
22642WAT      O68167   1.749   2.820   8.401
22642WAT     H168168   1.819   2.754   8.429
22642WAT     H268169   1.739   2.890   8.472
22643WAT      O68170   7.267   7.014   2.378
22643WAT     H168171   7.345   7.073   2.359
22643WAT     H268172   7.208   7.058   2.447
22644WAT      O68173   9.325   7.067   0.480
22644WAT     H168174   9.299   7.049   0.385
22644WAT     H268175   9.257   7.026   0.541
22645WAT      O68176   4.719   0.648   2.978
22645WAT     H168177   4.757   0.643   3.071
22645WAT     H268178   4.680   0.739   2.963
22646WAT      O68179   0.234   4.333   6.656
22646WAT     H168180   0.170   4.374   6.720
22646WAT     H268181   0.279   4.255   6.699
22647WAT      O68182   2.062   0.290   7.593
22647WAT     H168183   2.036   0.383   7.620
22647WAT     H268184   2.043   0.277   7.495
22648WAT      O68185   5.349   9.462   8.384
22648WAT     H168186   5.262   9.509   8.399
22648WAT     H268187   5.351   9.423   8.292
22649WAT      O68188   6.080   0.108   2.709
22649WAT     H168189   6.153   0.098   2.641
22649WAT     H268190   6.101   0.184   2.770
22650WAT      O68191   9.746   9.098   0.757
22650WAT     H168192   9.695   9.162   0.815
22650WAT     H268193   9.683   9.033   0.715
22651WAT      O68194   8.794   2.214   3.016
22651WAT     H168195   8.702   2.248   2.996
22651WAT     H268196   8.861   2.274   2.971
22652WAT      O68197   9.201   0.399   5.651
22652WAT     H168198   9.144   0.481   5.653
22652WAT     H268199   9.155   0.324   5.699
22653WAT      O68200   7.402   1.330   9.890
22653WAT     H168201   7.484   1.358   9.840
22653WAT     H268202   7.420   1.245   9.938
22654WAT      O68203   0.946   6.964   1.808
22654WAT     H168204   0.994   6.898   1.866
22654WAT     H268205   0.917   6.919   1.724
22655WAT      O68206   7.035   5.331   2.139
22655WAT     H168207   7.035   5.386   2.055
22655WAT     H268208   7.007   5.238   2.118
22656WAT      O68209   2.811   7.966   4.623
22656WAT     H168210   2.822   7.870   4.597
22656WAT     H268211   2.901   8.009   4.629
22657WAT      O68212   9.866   2.075   2.437
22657WAT     H168213   9.783   2.074   2.493
22657WAT     H268214   9.941   2.032   2.488
22658WAT      O68215   2.827   2.240   7.830
22658WAT     H168216   2.734   2.277   7.831
22658WAT     H268217   2.835   2.169   7.901
22659WAT      O68218   3.823   1.247   2.589
22659WAT     H168219   3.736   1.243   2.639
22659WAT     H268220   3.860   1.155   2.579
22660WAT      O68221   5.291   0.620   3.023
22660WAT     H168222   5.346   0.597   3.103
22660WAT     H268223   5.206   0.569   3.025
22661WAT      O68224   4.533   1.142   6.689
22661WAT     H168225   4.441   1.102   6.680
22661WAT     H268226   4.527   1.229   6.737
22662WAT      O68227   8.395   4.522   9.016
22662WAT     H168228   8.410   4.442   8.957
22662WAT     H268229   8.320   4.577   8.979
22663WAT      O68230   6.571   5.989   4.510
22663WAT     H168231   6.543   5.990   4.414
22663WAT     H268232   6.661   6.034   4.519
22664WAT      O68233   0.375   4.129   2.629
22664WAT     H168234   0.310   4.204   2.643
22664WAT     H268235   0.418   4.106   2.717
22665WAT      O68236   8.353   2.779   4.923
22665WAT     H168237   8.348   2.698   4.866
22665WAT     H268238   8.340   2.861   4.867
22666WAT      O68239   3.725   0.144   3.329
22666WAT     H168240   3.639   0.094   3.332
22666WAT     H268241   3.795   0.096   3.382
22667WAT      O68242   3.445   0.315   6.196
22667WAT     H168243   3.352   0.308   6.234
22667WAT     H268244   3.449   0.393   6.134
22668WAT      O68245   7.590   7.794   4.072
22668WAT     H168246   7.634   7.719   4.024
22668WAT     H268247   7.537   7.849   4.007
22669WAT      O68248   2.537   5.894   2.288
22669WAT     H168249   2.513   5.920   2.381
22669WAT     H268250   2.456   5.898   2.230
22670WAT      O68251   8.857   6.233   8.379
22670WAT     H168252   8.954   6.228   8.399
22670WAT     H268253   8.842   6.223   8.280
22671WAT      O68254   3.659   9.313   0.111
22671WAT     H168255   3.714   9.255   0.172
22671WAT     H268256   3.672   9.409   0.136
22672WAT      O68257   2.183   3.132   3.823
22672WAT     H168258   2.237   3.204   3.866
22672WAT     H268259   2.093   3.168   3.797
22673WAT      O68260   1.530   8.718   7.244
22673WAT     H168261   1.501   8.807   7.280
22673WAT     H268262   1.523   8.649   7.316
22674WAT      O68263   5.430   9.362   3.713
22674WAT     H168264   5.363   9.295   3.747
22674WAT     H268265   5.386   9.451   3.703
22675WAT      O68266   9.824   1.154   0.419
22675WAT     H168267   9.882   1.228   0.453
22675WAT     H268268   9.838   1.072   0.473
22676WAT      O68269   9.755   9.681   1.312
22676WAT     H168270   9.832   9.662   1.250
22676WAT     H268271   9.787   9.736   1.389
22677WAT      O68272   2.563   4.256   2.783
22677WAT     H168273   2.546   4.269   2.881
22677WAT     H268274   2.573   4.345   2.739
22678WAT      O68275   0.552   5.337   1.457
22678WAT     H168276   0.528   5.360   1.552
22678WAT     H268277   0.627   5.396   1.427
22679WAT      O68278   8.672   6.730   4.572
22679WAT     H168279   8.650   6.792   4.497
22679WAT     H268280   8.662   6.778   4.659
22680WAT      O68281   2.469   9.595   1.903
22680WAT     H168282   2.424   9.611   1.815
22680WAT     H268283   2.481   9.683   1.949
22681WAT      O68284   0.309   1.936   4.376
22681WAT     H168285   0.334   1.841   4.359
22681WAT     H268286   0.357   1.969   4.457
22682WAT      O68287   2.570   7.042   2.294
22682WAT     H168288   2.656   7.084   2.324
22682WAT     H268289   2.576   7.022   2.196
22683WAT      O68290   7.667   9.033   1.732
22683WAT     H168291   7.622   9.122   1.739
22683WAT     H268292   7.723   9.018   1.814
22684WAT      O68293   3.252   4.501   5.701
22684WAT     H168294   3.196   4.576   5.737
22684WAT     H268295   3.240   4.495   5.602
22685WAT      O68296   6.158   0.295   1.235
22685WAT     H168297   6.064   0.321   1.252
22685WAT     H268298   6.220   0.368   1.265
22686WAT      O68299   3.358   1.216   7.169
22686WAT     H168300   3.361   1.244   7.266
22686WAT     H268301   3.394   1.290   7.112
22687WAT      O68302   8.231   3.445   5.591
22687WAT     H168303   8.178   3.528   5.574
22687WAT     H268304   8.191   3.369   5.539
22688WAT      O68305   5.863   4.946   4.764
22688WAT     H168306   5.817   4.997   4.837
22688WAT     H268307   5.947   4.993   4.738
22689WAT      O68308   9.559   4.891   4.111
22689WAT     H168309   9.652   4.914   4.140
22689WAT     H268310   9.507   4.975   4.098
22690WAT      O68311   9.622   7.210   9.012
22690WAT     H168312   9.621   7.110   9.010
22690WAT     H268313   9.694   7.244   8.951
22691WAT      O68314   3.705   1.552   3.453
22691WAT     H168315   3.610   1.520   3.454
22691WAT     H268316   3.747   1.532   3.542
22692WAT      O68317   6.600   5.762   7.627
22692WAT     H168318   6.567   5.759   7.533
22692WAT     H268319   6.595   5.857   7.661
22693WAT      O68320   1.931   9.448   5.619
22693WAT     H168321   2.027   9.455   5.645
22693WAT     H268322   1.922   9.383   5.544
22694WAT      O68323   8.866   4.721   7.971
22694WAT     H168324   8.961   4.748   7.951
22694WAT     H268325   8.815   4.715   7.886
22695WAT      O68326   7.675   6.062   0.997
22695WAT     H168327   7.749   6.014   0.950
22695WAT     H268328   7.690   6.160   0.992
22696WAT      O68329   5.741   4.689   1.173
22696WAT     H168330   5.667   4.753   1.191
22696WAT     H268331   5.709   4.595   1.184
22697WAT      O68332   3.808   8.033   7.652
22697WAT     H168333   3.733   8.076   7.703
22697WAT     H268334   3.789   8.037   7.554
22698WAT      O68335   1.335   3.225   4.052
22698WAT     H168336   1.339   3.149   3.987
22698WAT     H268337   1.240   3.255   4.063
22699WAT      O68338   8.274   1.145   4.167
22699WAT     H168339   8.338   1.204   4.118
22699WAT     H268340   8.182   1.184   4.165
22700WAT      O68341   1.405   7.570   5.062
22700WAT     H168342   1.359   7.636   5.120
22700WAT     H268343   1.504   7.580   5.071
22701WAT      O68344   3.829   0.555   2.410
22701WAT     H168345   3.762   0.553   2.336
22701WAT     H268346   3.814   0.477   2.471
22702WAT      O68347   0.479   5.705   9.231
22702WAT     H168348   0.497   5.803   9.232
22702WAT     H268349   0.413   5.682   9.303
22703WAT      O68350   7.488   7.367   2.802
22703WAT     H168351   7.397   7.330   2.783
22703WAT     H268352   7.555   7.321   2.744
22704WAT      O68353   2.184   9.010   4.175
22704WAT     H168354   2.233   8.991   4.260
22704WAT     H268355   2.088   9.029   4.195
22705WAT      O68356   1.880   5.092   7.282
22705WAT     H168357   1.905   5.085   7.379
22705WAT     H268358   1.795   5.143   7.273
22706WAT      O68359   8.471   0.764   4.584
22706WAT     H168360   8.495   0.780   4.488
22706WAT     H268361   8.372   0.761   4.593
22707WAT      O68362   0.477   5.826   9.778
22707WAT     H168363   0.546   5.895   9.758
22707WAT     H268364   0.510   5.767   9.852
22708WAT      O68365   6.809   4.605   5.521
22708WAT     H168366   6.820   4.638   5.615
22708WAT     H268367   6.711   4.594   5.501
22709WAT      O68368   7.410   6.230   6.278
22709WAT     H168369   7.320   6.198   6.306
22709WAT     H268370   7.480   6.165   6.309
22710WAT      O68371   4.836   5.260   1.829
22710WAT     H168372   4.789   5.307   1.904
22710WAT     H268373   4.855   5.325   1.755
22711WAT      O68374   4.313   6.133   2.363
22711WAT     H168375   4.377   6.142   2.287
22711WAT     H268376   4.250   6.211   2.364
22712WAT      O68377   6.820   4.440   5.114
22712WAT     H168378   6.825   4.532   5.153
22712WAT     H268379   6.827   4.372   5.187
22713WAT      O68380   6.683   5.464   7.214
22713WAT     H168381   6.644   5.391   7.158
22713WAT     H268382   6.633   5.549   7.197
22714WAT      O68383   8.443   6.026   7.038
22714WAT     H168384   8.453   6.043   6.940
22714WAT     H268385   8.494   6.096   7.089
22715WAT      O68386   0.195   8.862   3.765
22715WAT     H168387   0.145   8.800   3.825
22715WAT     H268388   0.233   8.811   3.688
22716WAT      O68389   1.709   3.706   1.916
22716WAT     H168390   1.736   3.793   1.958
22716WAT     H268391   1.759   3.693   1.831
22717WAT      O68392   0.176   2.230   1.456
22717WAT     H168393   0.182   2.180   1.370
22717WAT     H268394   0.084   2.269   1.465
22718WAT      O68395   2.870   7.407   7.458
22718WAT     H168396   2.833   7.467   7.387
22718WAT     H268397   2.941   7.456   7.509
22719WAT      O68398   4.270   9.044   0.191
22719WAT     H168399   4.356   9.095   0.189
22719WAT     H268400   4.204   9.085   0.128
22720WAT      O68401   7.328   3.868   6.472
22720WAT     H168402   7.252   3.820   6.517
22720WAT     H268403   7.410   3.812   6.477
22721WAT      O68404   0.511   9.830   3.186
22721WAT     H168405   0.490   9.861   3.278
22721WAT     H268406   0.427   9.797   3.141
22722WAT      O68407   6.051   8.449   6.047
22722WAT     H168408   6.023   8.445   5.951
22722WAT     H268409   6.146   8.477   6.053
22723WAT      O68410   6.006   2.654   8.388
22723WAT     H168411   5.939   2.587   8.356
22723WAT     H268412   6.099   2.621   8.367
22724WAT      O68413   6.405   7.208   8.350
22724WAT     H168414   6.367   7.175   8.264
22724WAT     H268415   6.500   7.178   8.360
22725WAT      O68416   3.214   7.535   5.303
22725WAT     H168417   3.141   7.601   5.319
22725WAT     H268418   3.258   7.512   5.389
22726WAT      O68419   2.124   1.415   1.802
22726WAT     H168420   2.209   1.466   1.809
22726WAT     H268421   2.056   1.454   1.865
22727WAT      O68422   4.092   7.516   4.563
22727WAT     H168423   4.082   7.428   4.611
22727WAT     H268424   4.053   7.589   4.620
22728WAT      O68425   7.483   4.953   4.935
22728WAT     H168426   7.456   5.049   4.935
22728WAT     H268427   7.564   4.941   4.992
22729WAT      O68428   1.036   8.833   9.815
22729WAT     H168429   1.106   8.765   9.792
22729WAT     H268430   0.993   8.866   9.731
22730WAT      O68431   7.920   2.969   1.231
22730WAT     H168432   7.900   3.065   1.249
22730WAT     H268433   8.018   2.953   1.237
22731WAT      O68434   2.158   4.575   6.114
22731WAT     H168435   2.100   4.655   6.125
22731WAT     H268436   2.107   4.502   6.067
22732WAT      O68437   3.161   1.035   3.338
22732WAT     H168438   3.177   1.009   3.243
22732WAT     H268439   3.081   0.987   3.373
22733WAT      O68440   1.355   1.898   1.724
22733WAT     H168441   1.282   1.850   1.773
22733WAT     H268442   1.411   1.832   1.674
22734WAT      O68443   7.276   7.596   1.640
22734WAT     H168444   7.232   7.507   1.647
22734WAT     H268445   7.322   7.619   1.726
22735WAT      O68446   0.963   1.070   7.079
22735WAT     H168447   1.058   1.087   7.050
22735WAT     H268448   0.936   0.978   7.049
22736WAT      O68449   5.442   5.091   6.645
22736WAT     H168450   5.380   5.046   6.581
22736WAT     H268451   5.421   5.060   6.738
22737WAT      O68452   5.772   2.870   7.709
22737WAT     H168453   5.792   2.869   7.807
22737WAT     H268454   5.808   2.787   7.667
22738WAT      O68455   7.385   5.677   7.217
22738WAT     H168456   7.463   5.635   7.264
22738WAT     H268457   7.393   5.662   7.119
22739WAT      O68458   6.598   3.632   2.471
22739WAT     H168459   6.658   3.640   2.392
22739WAT     H268460   6.516   3.687   2.456
22740WAT      O68461   2.641   2.149   4.461
22740WAT     H168462   2.567   2.166   4.526
22740WAT     H268463   2.636   2.215   4.386
22741WAT      O68464   9.310   8.068   1.949
22741WAT     H168465   9.338   8.153   1.995
22741WAT     H268466   9.380   7.998   1.962
22742WAT      O68467   9.088   5.058   3.565
22742WAT     H168468   9.103   4.964   3.597
22742WAT     H268469   8.990   5.076   3.560
22743WAT      O68470   4.732   9.839   1.567
22743WAT     H168471   4.728   9.931   1.607
22743WAT     H268472   4.788   9.780   1.625
22744WAT      O68473   3.453   7.528   3.138
22744WAT     H168474   3.407   7.486   3.216
22744WAT     H268475   3.394   7.599   3.099
22745WAT      O68476   1.672   8.839   4.138
22745WAT     H168477   1.612   8.883   4.205
22745WAT     H268478   1.765   8.874   4.149
22746WAT      O68479   8.445   7.407   8.456
22746WAT     H168480   8.360   7.419   8.404
22746WAT     H268481   8.451   7.476   8.528
22747WAT      O68482   7.238   1.994   7.100
22747WAT     H168483   7.177   2.038   7.034
22747WAT     H268484   7.302   1.935   7.052
22748WAT      O68485   5.312   7.177   7.303
22748WAT     H168486   5.324   7.185   7.204
22748WAT     H268487   5.255   7.252   7.336
22749WAT      O68488   7.731   7.038   9.605
22749WAT     H168489   7.797   6.966   9.580
22749WAT     H268490   7.701   7.024   9.699
22750WAT      O68491   0.399   8.787   7.230
22750WAT     H168492   0.300   8.778   7.220
22750WAT     H268493   0.440   8.805   7.141
22751WAT      O68494   1.955   6.229   3.608
22751WAT     H168495   2.035   6.169   3.615
22751WAT     H268496   1.984   6.321   3.583
22752WAT      O68497   6.376   0.173   3.200
22752WAT     H168498   6.475   0.177   3.205
22752WAT     H268499   6.348   0.096   3.142
22753WAT      O68500   7.685   4.720   7.393
22753WAT     H168501   7.618   4.775   7.443
22753WAT     H268502   7.667   4.623   7.408
22754WAT      O68503   9.832   8.417   8.013
22754WAT     H168504   9.845   8.420   8.112
22754WAT     H268505   9.735   8.406   7.992
22755WAT      O68506   2.731   2.785   9.114
22755WAT     H168507   2.694   2.813   9.203
22755WAT     H268508   2.683   2.703   9.082
22756WAT      O68509   9.839   6.174   3.982
22756WAT     H168510   9.822   6.167   3.884
22756WAT     H268511   9.834   6.270   4.010
22757WAT      O68512   7.910   2.403   3.008
22757WAT     H168513   7.905   2.322   3.066
22757WAT     H268514   8.006   2.420   2.982
22758WAT      O68515   6.409   9.222   7.291
22758WAT     H168516   6.383   9.127   7.273
22758WAT     H268517   6.508   9.231   7.286
22759WAT      O68518   1.866   2.722   0.308
22759WAT     H168519   1.842   2.678   0.221
22759WAT     H268520   1.963   2.706   0.328
22760WAT      O68521   0.844   6.369   6.795
22760WAT     H168522   0.877   6.420   6.874
22760WAT     H268523   0.786   6.429   6.739
22761WAT      O68524   6.224   2.175   6.704
22761WAT     H168525   6.207   2.147   6.798
22761WAT     H268526   6.183   2.265   6.687
22762WAT      O68527   5.726   3.180   6.658
22762WAT     H168528   5.689   3.240   6.729
22762WAT     H268529   5.771   3.235   6.588
22763WAT      O68530   1.088   5.726   6.231
22763WAT     H168531   1.147   5.800   6.263
22763WAT     H268532   1.040   5.685   6.308
22764WAT      O68533   0.545   5.525   5.570
22764WAT     H168534   0.523   5.432   5.541
22764WAT     H268535   0.518   5.589   5.497
22765WAT      O68536   3.664   7.719   4.070
22765WAT     H168537   3.756   7.682   4.058
22765WAT     H268538   3.605   7.690   3.994
22766WAT      O68539   7.792   0.837   8.152
22766WAT     H168540   7.863   0.805   8.214
22766WAT     H268541   7.702   0.819   8.192
22767WAT      O68542   9.856   0.685   9.140
22767WAT     H168543   9.835   0.753   9.211
22767WAT     H268544   9.817   0.597   9.166
22768WAT      O68545   7.937   5.069   7.744
22768WAT     H168546   7.972   5.129   7.815
22768WAT     H268547   8.013   5.034   7.689
22769WAT      O68548   2.930   6.391   6.870
22769WAT     H168549   2.994   6.462   6.840
22769WAT     H268550   2.962   6.352   6.956
22770WAT      O68551   7.796   8.379   9.128
22770WAT     H168552   7.730   8.376   9.202
22770WAT     H268553   7.838   8.469   9.124
22771WAT      O68554   7.897   4.204   5.945
22771WAT     H168555   7.987   4.246   5.941
22771WAT     H268556   7.897   4.120   5.891
22772WAT      O68557   9.013   3.430   2.320
22772WAT     H168558   8.931   3.374   2.328
22772WAT     H268559   9.032   3.473   2.409
22773WAT      O68560   1.487   0.794   4.095
22773WAT     H168561   1.397   0.789   4.138
22773WAT     H268562   1.487   0.868   4.027
22774WAT      O68563   5.356   8.583   9.374
22774WAT     H168564   5.372   8.566   9.471
22774WAT     H268565   5.346   8.496   9.326
22775WAT      O68566   1.173   7.445   2.817
22775WAT     H168567   1.215   7.466   2.906
22775WAT     H268568   1.213   7.503   2.747
22776WAT      O68569   3.990   4.589   4.702
22776WAT     H168570   3.936   4.588   4.618
22776WAT     H268571   3.930   4.569   4.780
22777WAT      O68572   4.019   0.953   8.978
22777WAT     H168573   4.037   0.968   8.881
22777WAT     H268574   3.981   0.862   8.991
22778WAT      O68575   1.555   1.688   4.923
22778WAT     H168576   1.635   1.748   4.913
22778WAT     H268577   1.585   1.599   4.957
22779WAT      O68578   2.088   1.495   0.924
22779WAT     H168579   2.066   1.502   1.021
22779WAT     H268580   2.004   1.494   0.871
22780WAT      O68581   7.163   2.412   5.816
22780WAT     H168582   7.083   2.420   5.876
22780WAT     H268583   7.210   2.500   5.810
22781WAT      O68584   7.970   1.803   4.604
22781WAT     H168585   7.904   1.876   4.587
22781WAT     H268586   8.003   1.810   4.699
22782WAT      O68587   5.140   8.185   8.111
22782WAT     H168588   5.131   8.161   8.208
22782WAT     H268589   5.235   8.173   8.083
22783WAT      O68590   5.446   1.437   7.789
22783WAT     H168591   5.400   1.398   7.868
22783WAT     H268592   5.446   1.371   7.714
22784WAT      O68593   2.622   7.254   9.562
22784WAT     H168594   2.537   7.246   9.510
22784WAT     H268595   2.635   7.172   9.618
22785WAT      O68596   4.449   7.413   4.106
22785WAT     H168597   4.365   7.462   4.130
22785WAT     H268598   4.451   7.325   4.152
22786WAT      O68599   9.856   0.849   2.287
22786WAT     H168600   9.894   0.844   2.194
22786WAT     H268601   9.930   0.862   2.353
22787WAT      O68602   1.191   7.776   7.547
22787WAT     H168603   1.223   7.681   7.555
22787WAT     H268604   1.097   7.777   7.513
22788WAT      O68605   0.663   6.888   8.969
22788WAT     H168606   0.737   6.913   8.907
22788WAT     H268607   0.575   6.914   8.928
22789WAT      O68608   1.526   0.873   1.150
22789WAT     H168609   1.449   0.927   1.184
22789WAT     H268610   1.506   0.776   1.162
22790WAT      O68611   8.007   4.770   4.256
22790WAT     H168612   7.949   4.849   4.280
22790WAT     H268613   7.967   4.687   4.295
22791WAT      O68614   5.732   3.186   6.259
22791WAT     H168615   5.659   3.219   6.199
22791WAT     H268616   5.773   3.263   6.308
22792WAT      O68617   2.045   2.199   6.012
22792WAT     H168618   1.951   2.185   6.042
22792WAT     H268619   2.107   2.152   6.074
22793WAT      O68620   7.648   6.628   6.443
22793WAT     H168621   7.563   6.680   6.434
22793WAT     H268622   7.692   6.621   6.353
22794WAT      O68623   0.991   6.905   1.148
22794WAT     H168624   0.940   6.985   1.180
22794WAT     H268625   0.927   6.840   1.106
22795WAT      O68626   4.295   2.320   1.010
22795WAT     H168627   4.210   2.268   1.017
22795WAT     H268628   4.276   2.417   1.020
22796WAT      O68629   2.047   4.205   1.842
22796WAT     H168630   2.083   4.266   1.771
22796WAT     H268631   2.109   4.128   1.854
22797WAT      O68632   9.791   0.670   0.063
22797WAT     H168633   9.822   0.586   0.017
22797WAT     H268634   9.868   0.711   0.112
22798WAT      O68635   0.048   2.275   4.370
22798WAT     H168636   0.033   2.197   4.430
22798WAT     H268637   0.112   2.249   4.297
22799WAT      O68638   2.833   3.734   7.200
22799WAT     H168639   2.844   3.635   7.199
22799WAT     H268640   2.915   3.777   7.238
22800WAT      O68641   7.737   2.898   5.956
22800WAT     H168642   7.693   2.984   5.933
22800WAT     H268643   7.815   2.915   6.016
22801WAT      O68644   2.982   9.127   9.049
22801WAT     H168645   2.992   9.030   9.073
22801WAT     H268646   3.066   9.176   9.073
22802WAT      O68647   3.774   9.060   9.476
22802WAT     H168648   3.873   9.058   9.492
22802WAT     H268649   3.754   9.015   9.389
22803WAT      O68650   5.072   3.697   2.437
22803WAT     H168651   5.026   3.737   2.358
22803WAT     H268652   5.149   3.641   2.406
22804WAT      O68653   7.862   4.047   7.299
22804WAT     H168654   7.837   3.959   7.340
22804WAT     H268655   7.956   4.042   7.266
22805WAT      O68656   6.696   0.515   0.517
22805WAT     H168657   6.676   0.423   0.485
22805WAT     H268658   6.785   0.516   0.563
22806WAT      O68659   8.802   8.953   3.792
22806WAT     H168660   8.711   8.993   3.807
22806WAT     H268661   8.809   8.919   3.698
22807WAT      O68662   2.193   9.814   2.489
22807WAT     H168663   2.121   9.778   2.547
22807WAT     H268664   2.236   9.892   2.533
22808WAT      O68665   1.413   4.194   8.703
22808WAT     H168666   1.476   4.223   8.775
22808WAT     H268667   1.333   4.150   8.744
22809WAT      O68668   8.289   7.145   9.563
22809WAT     H168669   8.318   7.079   9.632
22809WAT     H268670   8.264   7.231   9.607
22810WAT      O68671   1.545   0.660   4.596
22810WAT     H168672   1.640   0.688   4.584
22810WAT     H268673   1.490   0.697   4.521
22811WAT      O68674   8.372   0.991   0.938
22811WAT     H168675   8.416   1.063   0.884
22811WAT     H268676   8.441   0.942   0.990
22812WAT      O68677   1.919   8.935   7.154
22812WAT     H168678   1.948   8.922   7.249
22812WAT     H268679   1.857   8.861   7.128
22813WAT      O68680   5.860   4.216   1.208
22813WAT     H168681   5.834   4.131   1.162
22813WAT     H268682   5.821   4.219   1.299
22814WAT      O68683   7.918   5.989   0.638
22814WAT     H168684   8.000   6.046   0.634
22814WAT     H268685   7.847   6.029   0.580
22815WAT      O68686   5.763   6.584   0.987
22815WAT     H168687   5.753   6.564   1.084
22815WAT     H268688   5.850   6.630   0.971
22816WAT      O68689   6.248   5.512   6.578
22816WAT     H168690   6.159   5.524   6.535
22816WAT     H268691   6.257   5.418   6.611
22817WAT      O68692   3.100   2.895   7.014
22817WAT     H168693   3.106   2.828   6.940
22817WAT     H268694   3.116   2.987   6.977
22818WAT      O68695   6.772   3.274   6.505
22818WAT     H168696   6.675   3.276   6.529
22818WAT     H268697   6.782   3.247   6.409
22819WAT      O68698   8.405   5.210   2.436
22819WAT     H168699   8.483   5.270   2.454
22819WAT     H268700   8.438   5.121   2.406
22820WAT      O68701   6.927   1.395   5.025
22820WAT     H168702   6.909   1.369   4.930
22820WAT     H268703   6.854   1.361   5.084
22821WAT      O68704   2.187   3.366   0.837
22821WAT     H168705   2.188   3.405   0.929
22821WAT     H268706   2.268   3.395   0.787
22822WAT      O68707   8.637   6.637   8.539
22822WAT     H168708   8.576   6.616   8.615
22822WAT     H268709   8.671   6.553   8.499
22823WAT      O68710   8.230   2.384   5.808
22823WAT     H168711   8.196   2.358   5.899
22823WAT     H268712   8.265   2.302   5.761
22824WAT      O68713   1.634   8.462   1.950
22824WAT     H168714   1.653   8.560   1.946
22824WAT     H268715   1.536   8.446   1.940
22825WAT      O68716   3.466   0.086   3.445
22825WAT     H168717   3.431  -0.007   3.450
22825WAT     H268718   3.428   0.140   3.520
22826WAT      O68719   6.357   9.826   1.415
22826WAT     H168720   6.387   9.826   1.510
22826WAT     H268721   6.435   9.813   1.354
22827WAT      O68722   3.976   0.176   5.085
22827WAT     H168723   4.052   0.110   5.083
22827WAT     H268724   3.911   0.155   5.013
22828WAT      O68725   2.976   3.304   7.613
22828WAT     H168726   2.887   3.331   7.575
22828WAT     H268727   2.993   3.208   7.591
22829WAT      O68728   0.029   7.817   8.716
22829WAT     H168729   0.001   7.875   8.639
22829WAT     H268730  -0.046   7.755   8.739
22830WAT      O68731   7.388   9.027   4.270
22830WAT     H168732   7.431   9.107   4.228
22830WAT     H268733   7.455   8.954   4.280
22831WAT      O68734   4.563   2.433   4.087
22831WAT     H168735   4.549   2.495   4.164
22831WAT     H268736   4.491   2.448   4.019
22832WAT      O68737   0.219   5.030   5.788
22832WAT     H168738   0.262   4.977   5.861
22832WAT     H268739   0.134   4.985   5.760
22833WAT      O68740   4.071   5.615   8.490
22833WAT     H168741   4.168   5.617   8.513
22833WAT     H268742   4.059   5.642   8.394
22834WAT      O68743   0.213   7.822   5.512
22834WAT     H168744   0.123   7.858   5.537
22834WAT     H268745   0.272   7.896   5.482
22835WAT      O68746   9.876   4.610   5.821
22835WAT     H168747   9.795   4.639   5.872
22835WAT     H268748   9.879   4.510   5.818
22836WAT      O68749   2.684   5.776   9.845
22836WAT     H168750   2.758   5.729   9.798
22836WAT     H268751   2.687   5.874   9.824
22837WAT      O68752   1.531   1.862   8.592
22837WAT     H168753   1.471   1.788   8.560
22837WAT     H268754   1.620   1.854   8.548
22838WAT      O68755   0.239   2.063   5.240
22838WAT     H168756   0.262   2.076   5.143
22838WAT     H268757   0.232   1.965   5.259
22839WAT      O68758   3.083   1.263   7.367
22839WAT     H168759   3.161   1.232   7.420
22839WAT     H268760   3.078   1.363   7.369
22840WAT      O68761   2.638   3.414   0.535
22840WAT     H168762   2.647   3.317   0.515
22840WAT     H268763   2.719   3.445   0.585
22841WAT      O68764   1.552   2.048   5.106
22841WAT     H168765   1.486   1.986   5.148
22841WAT     H268766   1.645   2.019   5.131
22842WAT      O68767   3.878   1.802   0.511
22842WAT     H168768   3.930   1.810   0.426
22842WAT     H268769   3.782   1.781   0.489
22843WAT      O68770   7.384   1.278   1.116
22843WAT     H168771   7.416   1.305   1.025
22843WAT     H268772   7.463   1.258   1.175
22844WAT      O68773   7.374   9.462   6.865
22844WAT     H168774   7.297   9.525   6.875
22844WAT     H268775   7.436   9.474   6.943
22845WAT      O68776   8.362   6.452   2.177
22845WAT     H168777   8.286   6.431   2.115
22845WAT     H268778   8.342   6.416   2.268
22846WAT      O68779   0.420   4.182   5.161
22846WAT     H168780   0.342   4.147   5.213
22846WAT     H268781   0.464   4.256   5.212
22847WAT      O68782   7.288   9.404   7.512
22847WAT     H168783   7.261   9.423   7.418
22847WAT     H268784   7.375   9.449   7.533
22848WAT      O68785   1.218   2.036   9.370
22848WAT     H168786   1.242   2.132   9.355
22848WAT     H268787   1.121   2.022   9.352
22849WAT      O68788   0.844   7.168   5.256
22849WAT     H168789   0.903   7.142   5.180
22849WAT     H268790   0.851   7.099   5.328
22850WAT      O68791   5.571   8.107   0.906
22850WAT     H168792   5.649   8.067   0.954
22850WAT     H268793   5.487   8.089   0.957
22851WAT      O68794   9.609   0.974   2.306
22851WAT     H168795   9.676   0.901   2.319
22851WAT     H268796   9.648   1.061   2.336
22852WAT      O68797   6.902   3.091   7.816
22852WAT     H168798   6.878   3.065   7.910
22852WAT     H268799   6.970   3.164   7.818
22853WAT      O68800   1.726   4.019   9.255
22853WAT     H168801   1.698   3.946   9.192
22853WAT     H268802   1.826   4.022   9.259
22854WAT      O68803   2.552   5.778   8.729
22854WAT     H168804   2.460   5.814   8.746
22854WAT     H268805   2.611   5.800   8.807
22855WAT      O68806   0.222   8.171   0.879
22855WAT     H168807   0.185   8.264   0.873
22855WAT     H268808   0.308   8.167   0.829
22856WAT      O68809   6.233   1.692   9.123
22856WAT     H168810   6.231   1.773   9.064
22856WAT     H268811   6.140   1.659   9.138
22857WAT      O68812   7.802   2.455   2.308
22857WAT     H168813   7.728   2.414   2.361
22857WAT     H268814   7.889   2.439   2.355
22858WAT      O68815   5.135   3.413   9.037
22858WAT     H168816   5.087   3.481   8.983
22858WAT     H268817   5.218   3.453   9.077
22859WAT      O68818   6.202   8.273   5.097
22859WAT     H168819   6.199   8.190   5.041
22859WAT     H268820   6.109   8.298   5.124
22860WAT      O68821   6.865   3.748   2.083
22860WAT     H168822   6.781   3.801   2.066
22860WAT     H268823   6.840   3.654   2.106
22861WAT      O68824   0.699   4.010   6.996
22861WAT     H168825   0.664   3.950   6.924
22861WAT     H268826   0.717   3.958   7.078
22862WAT      O68827   0.673   9.652   7.567
22862WAT     H168828   0.693   9.718   7.495
22862WAT     H268829   0.574   9.642   7.578
22863WAT      O68830   4.984   2.332   5.574
22863WAT     H168831   4.946   2.299   5.487
22863WAT     H268832   4.996   2.431   5.569
22864WAT      O68833   0.246   0.660   6.523
22864WAT     H168834   0.224   0.727   6.593
22864WAT     H268835   0.346   0.655   6.511
22865WAT      O68836   2.071   3.792   7.334
22865WAT     H168837   2.159   3.832   7.306
22865WAT     H268838   2.018   3.771   7.252
22866WAT      O68839   7.814   6.821   2.638
22866WAT     H168840   7.804   6.725   2.612
22866WAT     H268841   7.867   6.869   2.569
22867WAT      O68842   5.133   3.179   1.612
22867WAT     H168843   5.110   3.276   1.625
22867WAT     H268844   5.111   3.151   1.519
22868WAT      O68845   6.283   4.611   5.962
22868WAT     H168846   6.223   4.665   5.904
22868WAT     H268847   6.378   4.636   5.945
22869WAT      O68848   0.123   5.522   8.405
22869WAT     H168849   0.175   5.440   8.384
22869WAT     H268850   0.101   5.524   8.502
22870WAT      O68851   0.804   7.712   6.637
22870WAT     H168852   0.752   7.775   6.695
22870WAT     H268853   0.849   7.644   6.695
22871WAT      O68854   9.544   4.305   2.516
22871WAT     H168855   9.574   4.264   2.430
22871WAT     H268856   9.548   4.405   2.508
22872WAT      O68857   6.089   0.565   8.969
22872WAT     H168858   6.171   0.616   8.996
22872WAT     H268859   6.105   0.524   8.878
22873WAT      O68860   4.318   8.287   3.959
22873WAT     H168861   4.223   8.289   3.990
22873WAT     H268862   4.379   8.283   4.038
22874WAT      O68863   5.595   9.488   8.512
22874WAT     H168864   5.623   9.396   8.486
22874WAT     H268865   5.522   9.519   8.450
22875WAT      O68866   1.177   1.420   7.172
22875WAT     H168867   1.174   1.342   7.236
22875WAT     H268868   1.187   1.505   7.223
22876WAT      O68869   6.743   6.491   1.370
22876WAT     H168870   6.708   6.571   1.321
22876WAT     H268871   6.668   6.430   1.392
22877WAT      O68872   4.306   0.395   8.836
22877WAT     H168873   4.259   0.378   8.923
22877WAT     H268874   4.268   0.476   8.793
22878WAT      O68875   7.015   6.661   3.493
22878WAT     H168876   6.932   6.608   3.512
22878WAT     H268877   6.999   6.757   3.519
22879WAT      O68878   8.702   2.331   9.065
22879WAT     H168879   8.722   2.300   9.158
22879WAT     H268880   8.690   2.251   9.006
22880WAT      O68881   8.333   6.769   9.360
22880WAT     H168882   8.278   6.686   9.354
22880WAT     H268883   8.308   6.831   9.285
22881WAT      O68884   3.515   2.328   0.077
22881WAT     H168885   3.598   2.356   0.125
22881WAT     H268886   3.504   2.228   0.085
22882WAT      O68887   1.011   5.617   6.480
22882WAT     H168888   0.913   5.638   6.482
22882WAT     H268889   1.056   5.658   6.559
22883WAT      O68890   8.929   5.025   5.285
22883WAT     H168891   8.832   5.044   5.268
22883WAT     H268892   8.947   4.928   5.272
22884WAT      O68893   0.935   9.109   8.434
22884WAT     H168894   0.906   9.128   8.341
22884WAT     H268895   0.865   9.143   8.498
22885WAT      O68896   5.699   4.624   4.566
22885WAT     H168897   5.725   4.530   4.542
22885WAT     H268898   5.730   4.644   4.659
22886WAT      O68899   6.257   9.391   5.990
22886WAT     H168900   6.211   9.398   5.901
22886WAT     H268901   6.224   9.463   6.050
22887WAT      O68902   4.454   8.333   0.132
22887WAT     H168903   4.465   8.234   0.125
22887WAT     H268904   4.537   8.379   0.098
22888WAT      O68905   2.910   8.027   0.437
22888WAT     H168906   2.936   7.973   0.357
22888WAT     H268907   2.978   8.099   0.452
22889WAT      O68908   4.603   5.905   7.251
22889WAT     H168909   4.595   5.928   7.348
22889WAT     H268910   4.512   5.906   7.209
22890WAT      O68911   9.563   6.135   7.016
22890WAT     H168912   9.622   6.062   7.051
22890WAT     H268913   9.604   6.224   7.035
22891WAT      O68914   9.586   4.305   1.410
22891WAT     H168915   9.568   4.211   1.379
22891WAT     H268916   9.647   4.302   1.489
22892WAT      O68917   8.334   0.072   6.151
22892WAT     H168918   8.236   0.061   6.133
22892WAT     H268919   8.357   0.170   6.148
22893WAT      O68920   7.306   9.721   7.769
22893WAT     H168921   7.308   9.796   7.836
22893WAT     H268922   7.254   9.644   7.806
22894WAT      O68923   0.993   2.989   7.279
22894WAT     H168924   0.913   2.930   7.266
22894WAT     H268925   1.072   2.932   7.303
22895WAT      O68926   1.249   5.937   6.299
22895WAT     H168927   1.251   6.003   6.374
22895WAT     H268928   1.197   5.975   6.222
22896WAT      O68929   7.390   8.298   8.149
22896WAT     H168930   7.451   8.229   8.186
22896WAT     H268931   7.367   8.276   8.055
22897WAT      O68932   1.404   0.179   7.700
22897WAT     H168933   1.354   0.139   7.624
22897WAT     H268934   1.502   0.162   7.689
22898WAT      O68935   9.383   4.789   0.035
22898WAT     H168936   9.460   4.741   0.076
22898WAT     H268937   9.369   4.876   0.082
22899WAT      O68938   5.215   8.340   4.463
22899WAT     H168939   5.170   8.253   4.482
22899WAT     H268940   5.146   8.412   4.457
22900WAT      O68941   3.477   6.996   6.737
22900WAT     H168942   3.415   7.023   6.811
22900WAT     H268943   3.447   6.909   6.698
22901WAT      O68944   5.715   6.682   1.660
22901WAT     H168945   5.694   6.584   1.671
22901WAT     H268946   5.792   6.706   1.719
22902WAT      O68947   1.937   3.785   5.675
22902WAT     H168948   1.960   3.753   5.767
22902WAT     H268949   1.838   3.787   5.664
22903WAT      O68950   6.150   9.380   4.242
22903WAT     H168951   6.103   9.327   4.172
22903WAT     H268952   6.234   9.332   4.269
22904WAT      O68953   5.985   5.147   7.669
22904WAT     H168954   6.066   5.112   7.717
22904WAT     H268955   5.929   5.200   7.733
22905WAT      O68956   8.539   7.262   3.614
22905WAT     H168957   8.465   7.197   3.597
22905WAT     H268958   8.513   7.352   3.579
22906WAT      O68959   8.882   4.625   5.266
22906WAT     H168960   8.941   4.683   5.210
22906WAT     H268961   8.792   4.618   5.223
22907WAT      O68962   4.374   4.757   2.993
22907WAT     H168963   4.405   4.759   3.088
22907WAT     H268964   4.403   4.841   2.947
22908WAT      O68965   4.403   7.407   8.453
22908WAT     H168966   4.496   7.404   8.491
22908WAT     H268967   4.343   7.348   8.507
22909WAT      O68968   8.731   1.182   3.014
22909WAT     H168969   8.795   1.259   3.019
22909WAT     H268970   8.649   1.209   2.964
22910WAT      O68971   7.342   5.476   6.309
22910WAT     H168972   7.287   5.499   6.389
22910WAT     H268973   7.347   5.377   6.298
22911WAT      O68974   2.200   1.001   1.011
22911WAT     H168975   2.161   1.064   1.078
22911WAT     H268976   2.142   0.998   0.930
22912WAT      O68977   0.695   5.905   6.833
22912WAT     H168978   0.715   5.925   6.737
22912WAT     H268979   0.724   5.982   6.889
22913WAT      O68980   1.965   3.245   3.749
22913WAT     H168981   1.897   3.197   3.693
22913WAT     H268982   1.978   3.338   3.714
22914WAT      O68983   3.839   7.700   8.404
22914WAT     H168984   3.925   7.654   8.427
22914WAT     H268985   3.763   7.652   8.448
22915WAT      O68986   0.596   3.329   6.258
22915WAT     H168987   0.502   3.303   6.236
22915WAT     H268988   0.658   3.301   6.185
22916WAT      O68989   0.100   2.457   8.401
22916WAT     H168990   0.059   2.450   8.492
22916WAT     H268991   0.038   2.505   8.340
22917WAT      O68992   8.288   8.178   9.446
22917WAT     H168993   8.334   8.138   9.525
22917WAT     H268994   8.249   8.106   9.390
22918WAT      O68995   5.532   2.874   1.437
22918WAT     H168996   5.581   2.920   1.364
22918WAT     H268997   5.449   2.832   1.400
22919WAT      O68998   0.510   4.216   6.410
22919WAT     H168999   0.529   4.275   6.488
22919WAT     H269000   0.595   4.173   6.379
22920WAT      O69001   4.966   4.726   6.374
22920WAT     H169002   5.012   4.799   6.324
22920WAT     H269003   4.915   4.668   6.310
22921WAT      O69004   7.274   2.089   9.852
22921WAT     H169005   7.293   2.182   9.821
22921WAT     H269006   7.219   2.093   9.936
22922WAT      O69007   1.845   2.339   2.931
22922WAT     H169008   1.908   2.291   2.992
22922WAT     H269009   1.820   2.427   2.972
22923WAT      O69010   3.476   5.351   8.644
22923WAT     H169011   3.568   5.321   8.671
22923WAT     H269012   3.425   5.273   8.608
22924WAT      O69013   9.042   1.873   6.614
22924WAT     H169014   9.014   1.822   6.696
22924WAT     H269015   9.104   1.817   6.560
22925WAT      O69016   0.780   0.159   2.841
22925WAT     H169017   0.715   0.085   2.823
22925WAT     H269018   0.770   0.189   2.936
22926WAT      O69019   6.027   5.414   4.480
22926WAT     H169020   6.075   5.407   4.567
22926WAT     H269021   5.951   5.348   4.479
22927WAT      O69022   9.756   3.551   5.374
22927WAT     H169023   9.741   3.499   5.458
22927WAT     H269024   9.727   3.646   5.388
22928WAT      O69025   2.465   2.833   3.309
22928WAT     H169026   2.532   2.783   3.255
22928WAT     H269027   2.424   2.771   3.377
22929WAT      O69028   4.102   8.801   5.756
22929WAT     H169029   4.004   8.780   5.768
22929WAT     H269030   4.136   8.850   5.836
22930WAT      O69031   9.606   2.618   4.275
22930WAT     H169032   9.622   2.535   4.328
22930WAT     H269033   9.557   2.594   4.191
22931WAT      O69034   3.925   5.720   5.950
22931WAT     H169035   3.977   5.645   5.909
22931WAT     H269036   3.937   5.803   5.895
22932WAT      O69037   9.149   2.398   3.703
22932WAT     H169038   9.182   2.453   3.626
22932WAT     H269039   9.171   2.302   3.686
22933WAT      O69040   1.593   0.923   3.868
22933WAT     H169041   1.663   0.861   3.905
22933WAT     H269042   1.589   0.914   3.769
22934WAT      O69043   7.352   6.451   4.859
22934WAT     H169044   7.327   6.369   4.911
22934WAT     H269045   7.277   6.517   4.864
22935WAT      O69046   2.715   6.736   7.097
22935WAT     H169047   2.679   6.697   7.012
22935WAT     H269048   2.743   6.661   7.158
22936WAT      O69049   2.856   0.853   0.485
22936WAT     H169050   2.930   0.829   0.423
22936WAT     H269051   2.888   0.844   0.580
22937WAT      O69052   9.397   7.437   4.777
22937WAT     H169053   9.400   7.491   4.862
22937WAT     H269054   9.453   7.354   4.789
22938WAT      O69055   8.113   7.007   9.391
22938WAT     H169056   8.169   7.066   9.449
22938WAT     H269057   8.063   6.941   9.447
22939WAT      O69058   8.673   0.400   2.141
22939WAT     H169059   8.598   0.356   2.092
22939WAT     H269060   8.755   0.401   2.083
22940WAT      O69061   7.286   7.032   0.496
22940WAT     H169062   7.340   7.112   0.470
22940WAT     H269063   7.190   7.047   0.472
22941WAT      O69064   5.595   7.538   4.644
22941WAT     H169065   5.532   7.501   4.711
22941WAT     H269066   5.684   7.556   4.687
22942WAT      O69067   8.763   9.835   0.573
22942WAT     H169068   8.849   9.882   0.593
22942WAT     H269069   8.733   9.784   0.653
22943WAT      O69070   7.697   7.472   5.204
22943WAT     H169071   7.633   7.541   5.170
22943WAT     H269072   7.779   7.517   5.239
22944WAT      O69073   2.401   7.616   9.135
22944WAT     H169074   2.415   7.698   9.190
22944WAT     H269075   2.356   7.641   9.049
22945WAT      O69076   2.142   5.554   3.554
22945WAT     H169077   2.105   5.461   3.548
22945WAT     H269078   2.067   5.619   3.568
22946WAT      O69079   6.434   9.279   4.233
22946WAT     H169080   6.463   9.374   4.229
22946WAT     H269081   6.416   9.246   4.140
22947WAT      O69082   7.652   4.802   4.030
22947WAT     H169083   7.595   4.734   3.984
22947WAT     H269084   7.706   4.757   4.101
22948WAT      O69085   0.620   4.207   9.733
22948WAT     H169086   0.719   4.203   9.749
22948WAT     H269087   0.591   4.128   9.679
22949WAT      O69088   2.392   8.946   8.291
22949WAT     H169089   2.480   8.943   8.338
22949WAT     H269090   2.405   8.984   8.199
22950WAT      O69091   9.703   3.936   0.140
22950WAT     H169092   9.776   3.869   0.157
22950WAT     H269093   9.744   4.024   0.113
22951WAT      O69094   4.283   0.241   3.729
22951WAT     H169095   4.192   0.201   3.720
22951WAT     H269096   4.326   0.248   3.639
22952WAT      O69097   3.728   8.101   2.078
22952WAT     H169098   3.678   8.184   2.051
22952WAT     H269099   3.722   8.034   2.004
22953WAT      O69100   0.165   7.781   5.916
22953WAT     H169101   0.125   7.698   5.878
22953WAT     H269102   0.150   7.857   5.853
22954WAT      O69103   0.214   3.943   0.421
22954WAT     H169104   0.209   3.846   0.399
22954WAT     H269105   0.237   3.995   0.338
22955WAT      O69106   6.510   3.769   8.504
22955WAT     H169107   6.516   3.750   8.406
22955WAT     H269108   6.596   3.746   8.548
22956WAT      O69109   9.768   0.520   6.270
22956WAT     H169110   9.722   0.608   6.276
22956WAT     H269111   9.826   0.518   6.189
22957WAT      O69112   8.017   4.669   6.468
22957WAT     H169113   7.945   4.634   6.408
22957WAT     H269114   8.086   4.598   6.483
22958WAT      O69115   1.472   1.763   9.104
22958WAT     H169116   1.561   1.797   9.134
22958WAT     H269117   1.407   1.768   9.180
22959WAT      O69118   0.321   0.747   5.501
22959WAT     H169119   0.287   0.656   5.528
22959WAT     H269120   0.271   0.777   5.420
22960WAT      O69121   9.556   6.701   2.740
22960WAT     H169122   9.546   6.800   2.749
22960WAT     H269123   9.466   6.660   2.726
22961WAT      O69124   8.069   4.369   9.024
22961WAT     H169125   8.005   4.304   8.981
22961WAT     H269126   8.132   4.319   9.084
22962WAT      O69127   1.855   1.348   4.878
22962WAT     H169128   1.900   1.279   4.935
22962WAT     H269129   1.925   1.406   4.836
22963WAT      O69130   3.809   5.664   3.797
22963WAT     H169131   3.840   5.613   3.878
22963WAT     H269132   3.876   5.653   3.724
22964WAT      O69133   0.114   8.749   7.665
22964WAT     H169134   0.107   8.710   7.757
22964WAT     H269135   0.063   8.834   7.660
22965WAT      O69136   7.165   1.004   0.168
22965WAT     H169137   7.112   1.073   0.119
22965WAT     H269138   7.234   0.965   0.108
22966WAT      O69139   1.913   4.116   0.764
22966WAT     H169140   1.976   4.038   0.758
22966WAT     H269141   1.958   4.192   0.810
22967WAT      O69142   0.316   1.802   1.367
22967WAT     H169143   0.225   1.831   1.339
22967WAT     H269144   0.366   1.767   1.288
22968WAT      O69145   2.318   5.912   0.263
22968WAT     H169146   2.335   6.007   0.235
22968WAT     H269147   2.328   5.852   0.184
22969WAT      O69148   4.818   0.968   7.379
22969WAT     H169149   4.747   0.967   7.449
22969WAT     H269150   4.896   0.914   7.410
22970WAT      O69151   7.494   6.618   8.604
22970WAT     H169152   7.492   6.674   8.522
22970WAT     H269153   7.414   6.558   8.606
22971WAT      O69154   1.313   6.669   9.181
22971WAT     H169155   1.282   6.652   9.275
22971WAT     H269156   1.252   6.737   9.138
22972WAT      O69157   6.678   2.072   2.472
22972WAT     H169158   6.766   2.115   2.450
22972WAT     H269159   6.687   1.973   2.470
22973WAT      O69160   8.740   8.629   7.038
22973WAT     H169161   8.695   8.589   7.118
22973WAT     H269162   8.733   8.728   7.042
22974WAT      O69163   7.031   4.688   0.837
22974WAT     H169164   6.962   4.634   0.885
22974WAT     H269165   7.118   4.638   0.838
22975WAT      O69166   8.770   1.264   6.679
22975WAT     H169167   8.835   1.340   6.678
22975WAT     H269168   8.686   1.292   6.633
22976WAT      O69169   6.685   7.172   9.086
22976WAT     H169170   6.784   7.158   9.089
22976WAT     H269171   6.650   7.141   8.998
22977WAT      O69172   6.163   9.015   4.146
22977WAT     H169173   6.064   9.001   4.146
22977WAT     H269174   6.191   9.055   4.233
22978WAT      O69175   6.215   5.023   1.106
22978WAT     H169176   6.115   5.014   1.104
22978WAT     H269177   6.258   4.933   1.097
22979WAT      O69178   4.400   8.362   5.267
22979WAT     H169179   4.410   8.263   5.279
22979WAT     H269180   4.461   8.409   5.331
22980WAT      O69181   8.953   3.490   4.718
22980WAT     H169182   8.998   3.550   4.783
22980WAT     H269183   9.014   3.415   4.694
22981WAT      O69184   4.050   6.115   7.516
22981WAT     H169185   4.024   6.078   7.605
22981WAT     H269186   4.060   6.214   7.523
22982WAT      O69187   9.515   8.930   6.863
22982WAT     H169188   9.449   8.902   6.792
22982WAT     H269189   9.607   8.932   6.823
22983WAT      O69190   2.047   1.366   0.014
22983WAT     H169191   1.985   1.420  -0.044
22983WAT     H269192   2.141   1.377  -0.018
22984WAT      O69193   5.677   4.714   1.871
22984WAT     H169194   5.591   4.745   1.913
22984WAT     H269195   5.676   4.614   1.863
22985WAT      O69196   1.507   0.034   0.816
22985WAT     H169197   1.439   0.034   0.890
22985WAT     H269198   1.470   0.081   0.736
22986WAT      O69199   9.687   0.561   7.868
22986WAT     H169200   9.747   0.572   7.788
22986WAT     H269201   9.619   0.490   7.849
22987WAT      O69202   1.707   2.418   6.811
22987WAT     H169203   1.722   2.497   6.870
22987WAT     H269204   1.612   2.386   6.823
22988WAT      O69205   0.886   7.696   8.898
22988WAT     H169206   0.862   7.606   8.935
22988WAT     H269207   0.803   7.745   8.874
22989WAT      O69208   8.103   1.871   7.967
22989WAT     H169209   8.107   1.836   8.060
22989WAT     H269210   8.196   1.893   7.936
22990WAT      O69211   3.994   9.710   1.982
22990WAT     H169212   4.061   9.666   1.923
22990WAT     H269213   4.012   9.686   2.078
22991WAT      O69214   3.984   4.318   9.419
22991WAT     H169215   4.050   4.352   9.353
22991WAT     H269216   3.979   4.380   9.497
22992WAT      O69217   0.225   0.265   3.334
22992WAT     H169218   0.194   0.359   3.325
22992WAT     H269219   0.195   0.227   3.422
22993WAT      O69220   2.225   4.548   6.407
22993WAT     H169221   2.238   4.554   6.308
22993WAT     H269222   2.313   4.566   6.453
22994WAT      O69223   8.376   2.885   6.042
22994WAT     H169224   8.455   2.887   5.981
22994WAT     H269225   8.313   2.959   6.017
22995WAT      O69226   1.133   8.855   9.418
22995WAT     H169227   1.166   8.760   9.420
22995WAT     H269228   1.064   8.868   9.489
22996WAT      O69229   2.876   7.160   7.209
22996WAT     H169230   2.897   7.076   7.158
22996WAT     H269231   2.777   7.167   7.221
22997WAT      O69232   4.190   2.945   4.892
22997WAT     H169233   4.157   3.035   4.919
22997WAT     H269234   4.120   2.898   4.837
22998WAT      O69235   8.157   5.224   9.012
22998WAT     H169236   8.230   5.156   9.008
22998WAT     H269237   8.095   5.201   9.087
22999WAT      O69238   0.127   6.036   8.014
22999WAT     H169239   0.165   6.112   7.961
22999WAT     H269240   0.200   5.971   8.037
23000WAT      O69241   3.798   2.421   7.204
23000WAT     H169242   3.743   2.402   7.285
23000WAT     H269243   3.811   2.338   7.151
23001WAT      O69244   0.028   7.657   1.300
23001WAT     H169245   0.104   7.595   1.321
23001WAT     H269246  -0.003   7.640   1.206
23002WAT      O69247   9.720   4.197   8.167
23002WAT     H169248   9.719   4.226   8.263
23002WAT     H269249   9.632   4.157   8.143
23003WAT      O69250   4.515   3.183   8.998
23003WAT     H169251   4.492   3.086   8.991
23003WAT     H269252   4.614   3.194   8.990
23004WAT      O69253   9.552   9.195   9.691
23004WAT     H169254   9.554   9.178   9.790
23004WAT     H269255   9.466   9.159   9.653
23005WAT      O69256   7.891   6.960   1.382
23005WAT     H169257   7.893   7.054   1.415
23005WAT     H269258   7.802   6.920   1.401
23006WAT      O69259   2.489   8.570   5.498
23006WAT     H169260   2.409   8.535   5.547
23006WAT     H269261   2.510   8.512   5.420
23007WAT      O69262   7.661   8.549   9.465
23007WAT     H169263   7.638   8.545   9.562
23007WAT     H269264   7.744   8.604   9.453
23008WAT      O69265   9.351   7.767   0.509
23008WAT     H169266   9.355   7.750   0.411
23008WAT     H269267   9.443   7.786   0.543
23009WAT      O69268   5.488   6.432   5.302
23009WAT     H169269   5.420   6.437   5.376
23009WAT     H269270   5.472   6.349   5.248
23010WAT      O69271   3.407   9.713   5.677
23010WAT     H169272   3.399   9.798   5.730
23010WAT     H269273   3.410   9.635   5.740
23011WAT      O69274   2.702   1.260   1.808
23011WAT     H169275   2.690   1.266   1.709
23011WAT     H269276   2.790   1.299   1.834
23012WAT      O69277   5.372   6.478   0.401
23012WAT     H169278   5.365   6.400   0.338
23012WAT     H269279   5.439   6.543   0.365
23013WAT      O69280   8.800   2.065   8.598
23013WAT     H169281   8.855   2.148   8.605
23013WAT     H269282   8.727   2.079   8.532
23014WAT      O69283   7.882   5.860   6.471
23014WAT     H169284   7.924   5.950   6.481
23014WAT     H269285   7.932   5.793   6.526
23015WAT      O69286   7.640   0.288   1.435
23015WAT     H169287   7.542   0.287   1.417
23015WAT     H269288   7.657   0.310   1.531
23016WAT      O69289   6.186   2.332   4.015
23016WAT     H169290   6.140   2.257   4.063
23016WAT     H269291   6.140   2.348   3.927
23017WAT      O69292   3.555   1.667   1.131
23017WAT     H169293   3.607   1.689   1.048
23017WAT     H269294   3.616   1.671   1.210
23018WAT      O69295   4.778   8.189   9.683
23018WAT     H169296   4.756   8.148   9.771
23018WAT     H269297   4.877   8.194   9.671
23019WAT      O69298   7.027   9.118   1.649
23019WAT     H169299   7.118   9.085   1.625
23019WAT     H269300   6.969   9.040   1.673
23020WAT      O69301   2.755   1.643   5.563
23020WAT     H169302   2.834   1.633   5.503
23020WAT     H269303   2.743   1.740   5.585
23021WAT      O69304   4.870   7.860   5.315
23021WAT     H169305   4.900   7.926   5.384
23021WAT     H269306   4.868   7.904   5.225
23022WAT      O69307   7.209   2.052   8.511
23022WAT     H169308   7.130   2.112   8.498
23022WAT     H269309   7.181   1.974   8.568
23023WAT      O69310   6.189   5.113   8.427
23023WAT     H169311   6.229   5.138   8.339
23023WAT     H269312   6.203   5.187   8.493
23024WAT      O69313   0.264   5.844   2.311
23024WAT     H169314   0.168   5.831   2.284
23024WAT     H269315   0.293   5.937   2.287
23025WAT      O69316   6.774   8.230   8.927
23025WAT     H169317   6.865   8.200   8.956
23025WAT     H269318   6.727   8.154   8.882
23026WAT      O69319   8.113   2.474   1.003
23026WAT     H169320   8.130   2.487   1.101
23026WAT     H269321   8.057   2.391   0.990
23027WAT      O69322   4.453   1.906   7.782
23027WAT     H169323   4.471   1.995   7.823
23027WAT     H269324   4.525   1.884   7.716
23028WAT      O69325   9.192   9.127   3.124
23028WAT     H169326   9.102   9.083   3.118
23028WAT     H269327   9.190   9.197   3.195
23029WAT      O69328   3.093   8.721   3.374
23029WAT     H169329   3.148   8.799   3.345
23029WAT     H269330   2.996   8.746   3.373
23030WAT      O69331   1.839   5.777   0.712
23030WAT     H169332   1.841   5.692   0.660
23030WAT     H269333   1.897   5.846   0.668
23031WAT      O69334   4.479   7.831   8.481
23031WAT     H169335   4.573   7.808   8.459
23031WAT     H269336   4.468   7.834   8.580
23032WAT      O69337   6.023   8.902   2.960
23032WAT     H169338   5.996   8.821   3.011
23032WAT     H269339   6.006   8.984   3.015
23033WAT      O69340   1.637   3.153   6.815
23033WAT     H169341   1.653   3.133   6.911
23033WAT     H269342   1.555   3.210   6.806
23034WAT      O69343   0.014   6.765   7.136
23034WAT     H169344   0.046   6.855   7.107
23034WAT     H269345   0.085   6.697   7.117
23035WAT      O69346   6.559   7.116   5.228
23035WAT     H169347   6.549   7.174   5.308
23035WAT     H269348   6.656   7.104   5.207
23036WAT      O69349   3.746   8.711   9.338
23036WAT     H169350   3.731   8.804   9.305
23036WAT     H269351   3.835   8.678   9.307
23037WAT      O69352   3.987   6.355   7.233
23037WAT     H169353   3.913   6.421   7.218
23037WAT     H269354   4.020   6.362   7.327
23038WAT      O69355   0.803   3.798   9.737
23038WAT     H169356   0.900   3.779   9.722
23038WAT     H269357   0.792   3.864   9.811
23039WAT      O69358   2.053   5.554   0.085
23039WAT     H169359   2.016   5.582  -0.004
23039WAT     H269360   2.122   5.483   0.072
23040WAT      O69361   1.913   4.209   3.074
23040WAT     H169362   1.840   4.191   3.009
23040WAT     H269363   1.950   4.301   3.058
23041WAT      O69364   1.215   6.227   6.988
23041WAT     H169365   1.191   6.203   6.895
23041WAT     H269366   1.147   6.190   7.051
23042WAT      O69367   7.665   7.546   3.982
23042WAT     H169368   7.695   7.463   3.935
23042WAT     H269369   7.605   7.522   4.057
23043WAT      O69370   7.341   4.131   6.575
23043WAT     H169371   7.341   4.036   6.544
23043WAT     H269372   7.411   4.183   6.526
23044WAT      O69373   4.706   3.941   1.307
23044WAT     H169374   4.709   3.934   1.406
23044WAT     H269375   4.715   3.850   1.266
23045WAT      O69376   1.582   1.235   8.114
23045WAT     H169377   1.508   1.234   8.047
23045WAT     H269378   1.655   1.295   8.082
23046WAT      O69379   8.843   8.126   0.622
23046WAT     H169380   8.785   8.052   0.653
23046WAT     H269381   8.872   8.109   0.528
23047WAT      O69382   5.155   4.707   4.017
23047WAT     H169383   5.126   4.799   4.043
23047WAT     H269384   5.254   4.706   4.004
23048WAT      O69385   5.194   8.998   2.512
23048WAT     H169386   5.213   9.043   2.600
23048WAT     H269387   5.243   9.045   2.439
23049WAT      O69388   7.320   6.593   7.761
23049WAT     H169389   7.414   6.627   7.760
23049WAT     H269390   7.320   6.493   7.752
23050WAT      O69391   8.395   9.013   0.105
23050WAT     H169392   8.339   8.968   0.174
23050WAT     H269393   8.346   9.015   0.018
23051WAT      O69394   7.980   0.352   0.718
23051WAT     H169395   7.940   0.429   0.668
23051WAT     H269396   8.079   0.362   0.722
23052WAT      O69397   9.533   8.215   1.773
23052WAT     H169398   9.534   8.253   1.681
23052WAT     H269399   9.458   8.150   1.781
23053WAT      O69400   6.726   2.636   9.506
23053WAT     H169401   6.759   2.553   9.551
23053WAT     H269402   6.760   2.638   9.412
23054WAT      O69403   6.417   4.012   8.066
23054WAT     H169404   6.358   3.933   8.080
23054WAT     H269405   6.513   3.985   8.075
23055WAT      O69406   4.932   6.073   5.098
23055WAT     H169407   4.924   6.140   5.024
23055WAT     H269408   4.863   6.092   5.167
23056WAT      O69409   7.456   5.061   9.422
23056WAT     H169410   7.419   5.002   9.494
23056WAT     H269411   7.533   5.016   9.378
23057WAT      O69412   4.419   8.311   5.796
23057WAT     H169413   4.340   8.254   5.822
23057WAT     H269414   4.501   8.254   5.792
23058WAT      O69415   7.802   3.774   9.500
23058WAT     H169416   7.868   3.711   9.459
23058WAT     H269417   7.816   3.866   9.463
23059WAT      O69418   1.920   7.884   1.229
23059WAT     H169419   1.855   7.809   1.214
23059WAT     H269420   1.911   7.917   1.323
23060WAT      O69421   4.480   9.129   5.235
23060WAT     H169422   4.463   9.228   5.242
23060WAT     H269423   4.422   9.090   5.164
23061WAT      O69424   2.048   7.038   7.608
23061WAT     H169425   2.018   7.087   7.526
23061WAT     H269426   1.979   6.971   7.634
23062WAT      O69427   0.863   0.153   3.853
23062WAT     H169428   0.814   0.213   3.791
23062WAT     H269429   0.823   0.061   3.849
23063WAT      O69430   4.075   0.422   2.982
23063WAT     H169431   4.069   0.477   3.065
23063WAT     H269432   4.067   0.325   3.007
23064WAT      O69433   3.102   0.722   7.107
23064WAT     H169434   3.129   0.797   7.168
23064WAT     H269435   3.050   0.654   7.159
23065WAT      O69436   5.918   9.642   8.879
23065WAT     H169437   5.839   9.601   8.925
23065WAT     H269438   5.892   9.730   8.839
23066WAT      O69439   2.052   1.734   5.011
23066WAT     H169440   2.063   1.662   4.943
23066WAT     H269441   2.132   1.795   5.009
23067WAT      O69442   8.250   9.587   3.691
23067WAT     H169443   8.336   9.612   3.645
23067WAT     H269444   8.262   9.592   3.790
23068WAT      O69445   7.515   8.278   1.566
23068WAT     H169446   7.517   8.322   1.476
23068WAT     H269447   7.608   8.258   1.596
23069WAT      O69448   4.182   4.654   9.511
23069WAT     H169449   4.186   4.593   9.432
23069WAT     H269450   4.087   4.680   9.527
23070WAT      O69451   1.168   0.268   8.815
23070WAT     H169452   1.083   0.305   8.853
23070WAT     H269453   1.192   0.184   8.863
23071WAT      O69454   7.709   1.594   6.318
23071WAT     H169455   7.746   1.555   6.402
23071WAT     H269456   7.744   1.544   6.239
23072WAT      O69457   4.962   7.557   3.832
23072WAT     H169458   5.041   7.559   3.771
23072WAT     H269459   4.981   7.613   3.912
23073WAT      O69460   1.601   3.160   0.648
23073WAT     H169461   1.537   3.127   0.578
23073WAT     H269462   1.677   3.095   0.656
23074WAT      O69463   5.252   1.951   8.816
23074WAT     H169464   5.262   1.890   8.738
23074WAT     H269465   5.296   2.039   8.797
23075WAT      O69466   5.066   2.895   4.100
23075WAT     H169467   5.028   2.808   4.067
23075WAT     H269468   4.992   2.961   4.113
23076WAT      O69469   2.823   3.535   0.682
23076WAT     H169470   2.922   3.522   0.669
23076WAT     H269471   2.808   3.620   0.734
23077WAT      O69472   3.723   5.190   6.821
23077WAT     H169473   3.798   5.256   6.824
23077WAT     H269474   3.703   5.165   6.726
23078WAT      O69475   3.817   8.832   0.727
23078WAT     H169476   3.758   8.858   0.651
23078WAT     H269477   3.762   8.811   0.807
23079WAT      O69478   7.337   4.854   4.109
23079WAT     H169479   7.322   4.911   4.028
23079WAT     H269480   7.339   4.912   4.190
23080WAT      O69481   9.069   5.721   0.138
23080WAT     H169482   9.055   5.698   0.235
23080WAT     H269483   9.009   5.665   0.082
23081WAT      O69484   9.193   5.751   9.121
23081WAT     H169485   9.225   5.818   9.189
23081WAT     H269486   9.230   5.661   9.143
23082WAT      O69487   6.355   4.774   6.564
23082WAT     H169488   6.406   4.717   6.629
23082WAT     H269489   6.289   4.831   6.614
23083WAT      O69490   0.509   3.990   6.037
23083WAT     H169491   0.415   3.973   6.069
23083WAT     H269492   0.513   3.976   5.938
23084WAT      O69493   4.551   4.583   4.964
23084WAT     H169494   4.639   4.538   4.948
23084WAT     H269495   4.552   4.624   5.055
23085WAT      O69496   8.068   2.418   5.586
23085WAT     H169497   8.041   2.511   5.564
23085WAT     H269498   8.095   2.413   5.683
23086WAT      O69499   5.954   8.672   3.103
23086WAT     H169500   5.993   8.580   3.097
23086WAT     H269501   5.871   8.670   3.157
23087WAT      O69502   4.451   3.163   6.211
23087WAT     H169503   4.385   3.145   6.284
23087WAT     H269504   4.543   3.137   6.242
23088WAT      O69505   2.441   4.981   2.667
23088WAT     H169506   2.540   4.963   2.668
23088WAT     H269507   2.420   5.046   2.594
23089WAT      O69508   5.227   8.727   2.738
23089WAT     H169509   5.280   8.643   2.746
23089WAT     H269510   5.130   8.706   2.738
23090WAT      O69511   7.228   7.188   8.519
23090WAT     H169512   7.311   7.168   8.469
23090WAT     H269513   7.155   7.212   8.455
23091WAT      O69514   4.232   1.984   0.199
23091WAT     H169515   4.274   2.071   0.227
23091WAT     H269516   4.226   1.982   0.099
23092WAT      O69517   2.157   5.364   1.971
23092WAT     H169518   2.172   5.447   1.918
23092WAT     H269519   2.065   5.364   2.009
23093WAT      O69520   5.411   9.158   1.353
23093WAT     H169521   5.483   9.191   1.292
23093WAT     H269522   5.449   9.144   1.444
23094WAT      O69523   3.952   8.112   3.034
23094WAT     H169524   3.864   8.125   2.989
23094WAT     H269525   3.973   8.015   3.040
23095WAT      O69526   0.277   1.507   6.825
23095WAT     H169527   0.222   1.463   6.754
23095WAT     H269528   0.285   1.605   6.806
23096WAT      O69529   9.177   5.359   8.515
23096WAT     H169530   9.111   5.286   8.529
23096WAT     H269531   9.143   5.443   8.558
23097WAT      O69532   5.812   8.088   1.053
23097WAT     H169533   5.748   8.082   1.130
23097WAT     H269534   5.850   7.998   1.034
23098WAT      O69535   0.646   8.398   5.192
23098WAT     H169536   0.743   8.374   5.193
23098WAT     H269537   0.610   8.394   5.286
23099WAT      O69538   5.895   5.855   2.981
23099WAT     H169539   5.831   5.913   2.930
23099WAT     H269540   5.986   5.897   2.979
23100WAT      O69541   3.024   8.070   4.843
23100WAT     H169542   2.986   8.004   4.909
23100WAT     H269543   3.050   8.154   4.891
23101WAT      O69544   2.658   4.774   0.593
23101WAT     H169545   2.635   4.682   0.564
23101WAT     H269546   2.757   4.780   0.610
23102WAT      O69547   7.352   0.908   6.674
23102WAT     H169548   7.398   0.826   6.640
23102WAT     H269549   7.303   0.885   6.759
23103WAT      O69550   1.651   4.324   7.983
23103WAT     H169551   1.749   4.335   7.996
23103WAT     H269552   1.634   4.284   7.893
23104WAT      O69553   4.917   8.681   9.359
23104WAT     H169554   4.884   8.739   9.433
23104WAT     H269555   5.009   8.710   9.332
23105WAT      O69556   0.174   0.550   8.515
23105WAT     H169557   0.189   0.558   8.416
23105WAT     H269558   0.133   0.634   8.549
23106WAT      O69559   7.926   2.872   7.387
23106WAT     H169560   7.950   2.839   7.296
23106WAT     H269561   7.831   2.847   7.407
23107WAT      O69562   1.086   6.373   2.622
23107WAT     H169563   1.051   6.353   2.530
23107WAT     H269564   1.048   6.307   2.687
23108WAT      O69565   0.107   0.206   0.874
23108WAT     H169566   0.133   0.110   0.867
23108WAT     H269567   0.099   0.232   0.970
23109WAT      O69568   4.794   0.602   7.366
23109WAT     H169569   4.712   0.545   7.359
23109WAT     H269570   4.850   0.589   7.284
23110WAT      O69571   7.013   2.679   2.816
23110WAT     H169572   7.086   2.679   2.747
23110WAT     H269573   6.961   2.765   2.809
23111WAT      O69574   0.977   3.361   0.207
23111WAT     H169575   0.895   3.304   0.201
23111WAT     H269576   1.057   3.303   0.221
23112WAT      O69577   3.987   4.432   0.194
23112WAT     H169578   4.075   4.403   0.158
23112WAT     H269579   3.978   4.403   0.289
23113WAT      O69580   4.252   7.720   7.334
23113WAT     H169581   4.164   7.751   7.297
23113WAT     H269582   4.258   7.620   7.325
23114WAT      O69583   0.633   9.392   8.344
23114WAT     H169584   0.616   9.399   8.442
23114WAT     H269585   0.731   9.379   8.329
23115WAT      O69586   4.668   3.221   2.083
23115WAT     H169587   4.690   3.173   2.169
23115WAT     H269588   4.725   3.184   2.010
23116WAT      O69589   0.988   5.023   3.427
23116WAT     H169590   0.917   5.047   3.361
23116WAT     H269591   1.016   5.104   3.477
23117WAT      O69592   7.835   0.612   7.469
23117WAT     H169593   7.915   0.560   7.441
23117WAT     H269594   7.815   0.683   7.401
23118WAT      O69595   4.683   9.245   0.968
23118WAT     H169596   4.689   9.154   1.008
23118WAT     H269597   4.644   9.239   0.876
23119WAT      O69598   7.812   1.675   2.976
23119WAT     H169599   7.754   1.627   2.910
23119WAT     H269600   7.905   1.638   2.972
23120WAT      O69601   2.627   4.165   9.824
23120WAT     H169602   2.637   4.242   9.888
23120WAT     H269603   2.569   4.095   9.865
23121WAT      O69604   0.974   0.800   9.826
23121WAT     H169605   0.957   0.888   9.871
23121WAT     H269606   1.073   0.785   9.817
23122WAT      O69607   8.223   2.221   9.274
23122WAT     H169608   8.158   2.297   9.282
23122WAT     H269609   8.315   2.253   9.296
23123WAT      O69610   0.716   8.932   4.788
23123WAT     H169611   0.702   8.881   4.873
23123WAT     H269612   0.688   8.876   4.710
23124WAT      O69613   0.010   1.763   0.142
23124WAT     H169614   0.017   1.666   0.166
23124WAT     H269615   0.062   1.817   0.208
23125WAT      O69616   2.256   6.054   2.454
23125WAT     H169617   2.327   6.002   2.502
23125WAT     H269618   2.293   6.142   2.423
23126WAT      O69619   5.419   2.196   9.607
23126WAT     H169620   5.410   2.279   9.661
23126WAT     H269621   5.354   2.199   9.531
23127WAT      O69622   1.772   9.108   3.549
23127WAT     H169623   1.850   9.103   3.487
23127WAT     H269624   1.771   9.027   3.608
23128WAT      O69625   7.226   2.984   4.202
23128WAT     H169626   7.197   3.013   4.111
23128WAT     H269627   7.317   2.943   4.196
23129WAT      O69628   5.260   5.618   0.117
23129WAT     H169629   5.182   5.593   0.059
23129WAT     H269630   5.247   5.711   0.152
23130WAT      O69631   9.214   4.202   6.350
23130WAT     H169632   9.168   4.194   6.439
23130WAT     H269633   9.272   4.284   6.351
23131WAT      O69634   1.074   8.092   2.709
23131WAT     H169635   1.046   7.998   2.687
23131WAT     H269636   1.019   8.156   2.655
23132WAT      O69637   7.410   2.807   2.483
23132WAT     H169638   7.475   2.837   2.553
23132WAT     H269639   7.444   2.833   2.392
23133WAT      O69640   3.970   9.772   7.153
23133WAT     H169641   3.915   9.826   7.089
23133WAT     H269642   3.953   9.805   7.247
23134WAT      O69643   8.701   5.481   0.242
23134WAT     H169644   8.695   5.533   0.327
23134WAT     H269645   8.702   5.544   0.164
23135WAT      O69646   3.679   2.912   8.250
23135WAT     H169647   3.686   3.012   8.245
23135WAT     H269648   3.618   2.879   8.178
23136WAT      O69649   6.052   4.855   7.712
23136WAT     H169650   6.097   4.844   7.624
23136WAT     H269651   5.953   4.852   7.700
23137WAT      O69652   4.915   7.805   9.147
23137WAT     H169653   4.919   7.711   9.114
23137WAT     H269654   4.966   7.813   9.232
23138WAT      O69655   8.066   8.524   2.131
23138WAT     H169656   7.996   8.469   2.085
23138WAT     H269657   8.048   8.524   2.230
23139WAT      O69658   0.627   6.384   5.648
23139WAT     H169659   0.712   6.336   5.672
23139WAT     H269660   0.573   6.327   5.586
23140WAT      O69661   2.045   3.481   8.200
23140WAT     H169662   2.116   3.551   8.192
23140WAT     H269663   2.086   3.396   8.231
23141WAT      O69664   8.124   9.158   8.634
23141WAT     H169665   8.024   9.166   8.637
23141WAT     H269666   8.151   9.068   8.669
23142WAT      O69667   4.904   9.650   1.689
23142WAT     H169668   4.876   9.554   1.680
23142WAT     H269669   4.961   9.675   1.610
23143WAT      O69670   1.515   5.256   3.108
23143WAT     H169671   1.542   5.310   3.188
23143WAT     H269672   1.417   5.269   3.092
23144WAT      O69673   6.269   8.756   7.021
23144WAT     H169674   6.175   8.775   6.991
23144WAT     H269675   6.272   8.666   7.065
23145WAT      O69676   1.752   8.866   3.688
23145WAT     H169677   1.680   8.895   3.750
23145WAT     H269678   1.735   8.773   3.656
23146WAT      O69679   7.140   7.261   0.176
23146WAT     H169680   7.190   7.174   0.176
23146WAT     H269681   7.200   7.333   0.140
23147WAT      O69682   1.666   9.760   0.628
23147WAT     H169683   1.637   9.825   0.698
23147WAT     H269684   1.764   9.744   0.636
23148WAT      O69685   6.629   7.629   7.506
23148WAT     H169686   6.703   7.692   7.485
23148WAT     H269687   6.661   7.535   7.492
23149WAT      O69688   6.464   2.239   4.352
23149WAT     H169689   6.557   2.272   4.336
23149WAT     H269690   6.418   2.300   4.417
23150WAT      O69691   3.768   6.500   3.766
23150WAT     H169692   3.839   6.430   3.775
23150WAT     H269693   3.801   6.586   3.805
23151WAT      O69694   2.274   5.780   4.386
23151WAT     H169695   2.204   5.847   4.362
23151WAT     H269696   2.344   5.778   4.315
23152WAT      O69697   3.638   4.208   2.026
23152WAT     H169698   3.694   4.286   2.054
23152WAT     H269699   3.565   4.239   1.965
23153WAT      O69700   5.859   8.260   3.870
23153WAT     H169701   5.944   8.216   3.899
23153WAT     H269702   5.849   8.348   3.916
23154WAT      O69703   7.321   8.448   1.564
23154WAT     H169704   7.384   8.378   1.597
23154WAT     H269705   7.233   8.437   1.609
23155WAT      O69706   5.721   0.326   0.867
23155WAT     H169707   5.631   0.281   0.869
23155WAT     H269708   5.727   0.390   0.944
23156WAT      O69709   2.359   2.199   7.019
23156WAT     H169710   2.314   2.275   6.973
23156WAT     H269711   2.350   2.209   7.118
23157WAT      O69712   7.032   3.146   0.240
23157WAT     H169713   7.117   3.170   0.287
23157WAT     H269714   7.017   3.208   0.164
23158WAT      O69715   6.708   0.408   8.998
23158WAT     H169716   6.668   0.317   8.990
23158WAT     H269717   6.803   0.401   9.026
23159WAT      O69718   6.039   5.834   6.585
23159WAT     H169719   6.009   5.753   6.533
23159WAT     H269720   5.959   5.884   6.617
23160WAT      O69721   4.813   2.683   6.302
23160WAT     H169722   4.880   2.658   6.232
23160WAT     H269723   4.856   2.678   6.393
23161WAT      O69724   0.820   8.527   6.786
23161WAT     H169725   0.872   8.548   6.702
23161WAT     H269726   0.726   8.504   6.762
23162WAT      O69727   4.455   0.147   6.915
23162WAT     H169728   4.369   0.141   6.966
23162WAT     H269729   4.517   0.075   6.947
23163WAT      O69730   6.479   7.504   3.747
23163WAT     H169731   6.511   7.482   3.654
23163WAT     H269732   6.477   7.421   3.802
23164WAT      O69733   5.938   1.731   8.655
23164WAT     H169734   5.948   1.676   8.737
23164WAT     H269735   5.840   1.749   8.639
23165WAT      O69736   5.140   2.117   1.986
23165WAT     H169737   5.191   2.090   1.904
23165WAT     H269738   5.044   2.131   1.962
23166WAT      O69739   2.974   7.882   9.882
23166WAT     H169740   2.999   7.853   9.975
23166WAT     H269741   3.006   7.976   9.867
23167WAT      O69742   6.107   1.265   3.821
23167WAT     H169743   6.107   1.165   3.808
23167WAT     H269744   6.030   1.291   3.879
23168WAT      O69745   3.168   3.478   5.580
23168WAT     H169746   3.234   3.491   5.506
23168WAT     H269747   3.163   3.382   5.604
23169WAT      O69748   2.740   4.394   6.998
23169WAT     H169749   2.710   4.485   6.971
23169WAT     H269750   2.663   4.343   7.036
23170WAT      O69751   2.250   2.834   5.514
23170WAT     H169752   2.247   2.911   5.579
23170WAT     H269753   2.322   2.770   5.542
23171WAT      O69754   2.215   0.809   6.711
23171WAT     H169755   2.268   0.794   6.795
23171WAT     H269756   2.119   0.790   6.728
23172WAT      O69757   7.443   5.412   8.900
23172WAT     H169758   7.351   5.443   8.877
23172WAT     H269759   7.493   5.391   8.816
23173WAT      O69760   7.257   5.923   7.772
23173WAT     H169761   7.335   5.975   7.736
23173WAT     H269762   7.230   5.853   7.706
23174WAT      O69763   8.177   1.196   7.386
23174WAT     H169764   8.246   1.256   7.346
23174WAT     H269765   8.151   1.127   7.319
23175WAT      O69766   9.468   7.675   2.853
23175WAT     H169767   9.552   7.729   2.845
23175WAT     H269768   9.439   7.645   2.762
23176WAT      O69769   3.687   6.818   1.793
23176WAT     H169770   3.641   6.902   1.823
23176WAT     H269771   3.783   6.821   1.819
23177WAT      O69772   8.643   4.330   4.487
23177WAT     H169773   8.643   4.396   4.412
23177WAT     H269774   8.732   4.286   4.492
23178WAT      O69775   4.268   4.052   2.732
23178WAT     H169776   4.273   4.152   2.722
23178WAT     H269777   4.203   4.015   2.665
23179WAT      O69778   5.848   5.068   2.130
23179WAT     H169779   5.842   4.982   2.181
23179WAT     H269780   5.756   5.102   2.110
23180WAT      O69781   6.570   2.628   5.767
23180WAT     H169782   6.523   2.594   5.685
23180WAT     H269783   6.595   2.551   5.825
23181WAT      O69784   4.101   8.993   1.444
23181WAT     H169785   4.190   8.951   1.459
23181WAT     H269786   4.074   9.046   1.525
23182WAT      O69787   9.708   1.271   5.000
23182WAT     H169788   9.793   1.315   4.972
23182WAT     H269789   9.727   1.180   5.037
23183WAT      O69790   3.000   7.133   8.261
23183WAT     H169791   2.962   7.196   8.329
23183WAT     H269792   3.092   7.163   8.235
23184WAT      O69793   2.545   9.405   5.581
23184WAT     H169794   2.598   9.329   5.619
23184WAT     H269795   2.457   9.371   5.548
23185WAT      O69796   7.457   2.763   5.738
23185WAT     H169797   7.471   2.804   5.648
23185WAT     H269798   7.537   2.710   5.764
23186WAT      O69799   9.885   0.490   6.830
23186WAT     H169800   9.883   0.508   6.731
23186WAT     H269801   9.805   0.531   6.873
23187WAT      O69802   4.025   9.372   2.095
23187WAT     H169803   4.054   9.459   2.135
23187WAT     H269804   3.978   9.317   2.164
23188WAT      O69805   0.338   9.521   2.612
23188WAT     H169806   0.366   9.563   2.526
23188WAT     H269807   0.254   9.469   2.597
23189WAT      O69808   4.168   0.167   3.067
23189WAT     H169809   4.253   0.205   3.103
23189WAT     H269810   4.169   0.171   2.967
23190WAT      O69811   1.642   3.085   7.596
23190WAT     H169812   1.740   3.100   7.587
23190WAT     H269813   1.594   3.130   7.520
23191WAT      O69814   3.505   4.411   7.681
23191WAT     H169815   3.574   4.415   7.610
23191WAT     H269816   3.542   4.364   7.762
23192WAT      O69817   3.969   8.514   7.369
23192WAT     H169818   3.956   8.479   7.276
23192WAT     H269819   3.966   8.439   7.434
23193WAT      O69820   2.359   3.821   5.217
23193WAT     H169821   2.419   3.794   5.292
23193WAT     H269822   2.400   3.794   5.130
23194WAT      O69823   6.720   4.038   2.175
23194WAT     H169824   6.655   3.986   2.120
23194WAT     H269825   6.713   4.010   2.271
23195WAT      O69826   9.050   2.566   5.217
23195WAT     H169827   9.130   2.526   5.262
23195WAT     H269828   9.021   2.506   5.143
23196WAT      O69829   4.575   7.709   0.581
23196WAT     H169830   4.509   7.667   0.518
23196WAT     H269831   4.642   7.641   0.608
23197WAT      O69832   7.545   1.553   0.399
23197WAT     H169833   7.543   1.620   0.325
23197WAT     H269834   7.476   1.483   0.383
23198WAT      O69835   0.150   6.987   6.040
23198WAT     H169836   0.080   6.916   6.035
23198WAT     H269837   0.193   6.985   6.130
23199WAT      O69838   0.171   7.778   5.164
23199WAT     H169839   0.177   7.716   5.243
23199WAT     H269840   0.229   7.858   5.180
23200WAT      O69841   2.828   7.984   4.302
23200WAT     H169842   2.779   8.051   4.357
23200WAT     H269843   2.923   8.014   4.289
23201WAT      O69844   5.918   1.648   4.901
23201WAT     H169845   5.822   1.668   4.917
23201WAT     H269846   5.938   1.554   4.927
23202WAT      O69847   1.421   2.579   0.740
23202WAT     H169848   1.374   2.667   0.748
23202WAT     H269849   1.500   2.589   0.679
23203WAT      O69850   0.049   3.818   2.548
23203WAT     H169851  -0.047   3.806   2.573
23203WAT     H269852   0.066   3.778   2.458
23204WAT      O69853   8.989   1.796   6.877
23204WAT     H169854   9.013   1.714   6.928
23204WAT     H269855   8.958   1.867   6.940
23205WAT      O69856   0.261   6.426   3.522
23205WAT     H169857   0.165   6.410   3.499
23205WAT     H269858   0.274   6.522   3.544
23206WAT      O69859   5.513   0.474   3.850
23206WAT     H169860   5.474   0.513   3.933
23206WAT     H269861   5.541   0.379   3.867
23207WAT      O69862   5.157   9.562   3.324
23207WAT     H169863   5.069   9.610   3.329
23207WAT     H269864   5.181   9.546   3.228
23208WAT      O69865   8.820   2.474   2.324
23208WAT     H169866   8.885   2.536   2.280
23208WAT     H269867   8.850   2.454   2.417
23209WAT      O69868   6.156   7.233   6.650
23209WAT     H169869   6.220   7.254   6.724
23209WAT     H269870   6.201   7.177   6.581
23210WAT      O69871   1.133   3.848   2.413
23210WAT     H169872   1.121   3.821   2.317
23210WAT     H269873   1.214   3.905   2.422
23211WAT      O69874   8.223   2.301   2.782
23211WAT     H169875   8.310   2.336   2.746
23211WAT     H269876   8.241   2.239   2.858
23212WAT      O69877   1.083   9.455   0.103
23212WAT     H169878   1.075   9.390   0.179
23212WAT     H269879   1.126   9.409   0.025
23213WAT      O69880   9.290   2.639   4.466
23213WAT     H169881   9.299   2.545   4.435
23213WAT     H269882   9.241   2.693   4.397
23214WAT      O69883   5.002   3.620   1.209
23214WAT     H169884   5.036   3.712   1.228
23214WAT     H269885   5.041   3.587   1.123
23215WAT      O69886   9.067   8.036   5.204
23215WAT     H169887   9.134   7.964   5.190
23215WAT     H269888   8.975   8.000   5.187
23216WAT      O69889   4.098   1.313   1.684
23216WAT     H169890   4.151   1.348   1.761
23216WAT     H269891   4.014   1.271   1.718
23217WAT      O69892   7.827   0.881   5.467
23217WAT     H169893   7.922   0.849   5.476
23217WAT     H269894   7.825   0.961   5.407
23218WAT      O69895   6.429   4.207   8.246
23218WAT     H169896   6.420   4.136   8.177
23218WAT     H269897   6.526   4.218   8.269
23219WAT      O69898   2.210   8.899   2.971
23219WAT     H169899   2.181   8.834   2.900
23219WAT     H269900   2.176   8.867   3.060
23220WAT      O69901   0.267   2.843   4.486
23220WAT     H169902   0.261   2.836   4.386
23220WAT     H269903   0.177   2.866   4.523
23221WAT      O69904   6.259   1.675   6.631
23221WAT     H169905   6.269   1.601   6.697
23221WAT     H269906   6.211   1.641   6.550
23222WAT      O69907   9.498   1.510   1.438
23222WAT     H169908   9.458   1.598   1.415
23222WAT     H269909   9.449   1.437   1.389
23223WAT      O69910   3.293   2.628   5.205
23223WAT     H169911   3.362   2.686   5.162
23223WAT     H269912   3.276   2.549   5.146
23224WAT      O69913   7.493   9.277   1.315
23224WAT     H169914   7.566   9.336   1.349
23224WAT     H269915   7.524   9.229   1.233
23225WAT      O69916   9.392   7.132   4.482
23225WAT     H169917   9.302   7.161   4.448
23225WAT     H269918   9.448   7.101   4.405
23226WAT      O69919   0.997   5.764   6.822
23226WAT     H169920   1.091   5.754   6.789
23226WAT     H269921   0.944   5.684   6.795
23227WAT      O69922   6.204   2.153   6.974
23227WAT     H169923   6.212   2.063   7.015
23227WAT     H269924   6.252   2.220   7.031
23228WAT      O69925   1.490   2.302   6.512
23228WAT     H169926   1.419   2.293   6.443
23228WAT     H269927   1.529   2.394   6.508
23229WAT      O69928   2.549   5.942   8.322
23229WAT     H169929   2.558   5.912   8.227
23229WAT     H269930   2.562   5.863   8.383
23230WAT      O69931   4.478   8.020   0.885
23230WAT     H169932   4.428   8.094   0.931
23230WAT     H269933   4.415   7.943   0.868
23231WAT      O69934   8.504   0.476   3.001
23231WAT     H169935   8.486   0.467   2.903
23231WAT     H269936   8.554   0.561   3.018
23232WAT      O69937   8.162   2.855   5.182
23232WAT     H169938   8.243   2.908   5.208
23232WAT     H269939   8.184   2.757   5.185
23233WAT      O69940   2.314   6.506   8.573
23233WAT     H169941   2.395   6.565   8.585
23233WAT     H269942   2.244   6.557   8.523
23234WAT      O69943   8.699   6.377   0.514
23234WAT     H169944   8.661   6.467   0.534
23234WAT     H269945   8.788   6.368   0.559
23235WAT      O69946   1.911   5.406   2.770
23235WAT     H169947   1.912   5.338   2.697
23235WAT     H269948   1.828   5.395   2.825
23236WAT      O69949   5.330   5.636   4.752
23236WAT     H169950   5.309   5.563   4.686
23236WAT     H269951   5.351   5.595   4.840
23237WAT      O69952   2.735   6.933   3.513
23237WAT     H169953   2.755   6.995   3.437
23237WAT     H269954   2.739   6.983   3.599
23238WAT      O69955   8.278   5.425   0.697
23238WAT     H169956   8.288   5.330   0.669
23238WAT     H269957   8.196   5.464   0.655
23239WAT      O69958   6.376   5.833   8.511
23239WAT     H169959   6.424   5.814   8.596
23239WAT     H269960   6.401   5.763   8.443
23240WAT      O69961   1.293   5.135   5.829
23240WAT     H169962   1.193   5.129   5.824
23240WAT     H269963   1.321   5.160   5.922
23241WAT      O69964   0.713   7.818   3.456
23241WAT     H169965   0.799   7.852   3.419
23241WAT     H269966   0.695   7.859   3.545
23242WAT      O69967   2.521   6.984   5.374
23242WAT     H169968   2.486   7.072   5.340
23242WAT     H269969   2.519   6.917   5.300
23243WAT      O69970   7.535   8.601   2.754
23243WAT     H169971   7.614   8.662   2.764
23243WAT     H269972   7.499   8.578   2.844
23244WAT      O69973   0.318   6.436   9.020
23244WAT     H169974   0.315   6.362   9.087
23244WAT     H269975   0.362   6.516   9.060
23245WAT      O69976   1.178   8.354   6.991
23245WAT     H169977   1.115   8.338   6.915
23245WAT     H269978   1.236   8.273   7.002
23246WAT      O69979   0.499   6.200   8.915
23246WAT     H169980   0.430   6.263   8.877
23246WAT     H269981   0.456   6.136   8.978
23247WAT      O69982   4.419   8.584   0.219
23247WAT     H169983   4.499   8.618   0.268
23247WAT     H269984   4.429   8.486   0.203
23248WAT      O69985   9.690   1.245   9.497
23248WAT     H169986   9.708   1.337   9.532
23248WAT     H269987   9.666   1.251   9.400
23249WAT      O69988   9.582   0.960   3.591
23249WAT     H169989   9.597   0.925   3.684
23249WAT     H269990   9.532   0.892   3.538
23250WAT      O69991   2.648   1.074   8.444
23250WAT     H169992   2.700   1.132   8.381
23250WAT     H269993   2.562   1.120   8.467
23251WAT      O69994   1.297   3.527   1.880
23251WAT     H169995   1.287   3.431   1.907
23251WAT     H269996   1.235   3.546   1.804
23252WAT      O69997   7.000   8.871   7.706
23252WAT     H169998   7.087   8.840   7.669
23252WAT     H269999   6.979   8.820   7.789
23253WAT      O70000   3.833   7.617   7.322
23253WAT     H170001   3.776   7.538   7.303
23253WAT     H270002   3.921   7.587   7.360
23254WAT      O70003   5.759   4.196   5.705
23254WAT     H170004   5.801   4.245   5.629
23254WAT     H270005   5.662   4.220   5.710
23255WAT      O70006   3.067   3.205   3.575
23255WAT     H170007   3.049   3.138   3.503
23255WAT     H270008   3.135   3.270   3.543
23256WAT      O70009   8.041   1.824   4.880
23256WAT     H170010   8.101   1.745   4.890
23256WAT     H270011   7.970   1.822   4.951
23257WAT      O70012   7.272   7.884   4.998
23257WAT     H170013   7.287   7.983   5.007
23257WAT     H270014   7.356   7.841   4.966
23258WAT      O70015   1.904   3.241   3.270
23258WAT     H170016   1.923   3.259   3.173
23258WAT     H270017   1.970   3.175   3.306
23259WAT      O70018   3.340   0.286   8.384
23259WAT     H170019   3.381   0.227   8.314
23259WAT     H270020   3.265   0.237   8.428
23260WAT      O70021   2.270   6.855   2.020
23260WAT     H170022   2.300   6.759   2.022
23260WAT     H270023   2.184   6.862   1.968
23261WAT      O70024   3.119   9.613   4.123
23261WAT     H170025   3.113   9.580   4.028
23261WAT     H270026   3.180   9.693   4.126
23262WAT      O70027   6.878   3.668   9.097
23262WAT     H170028   6.932   3.595   9.138
23262WAT     H270029   6.788   3.633   9.069
23263WAT      O70030   0.588   9.327   5.246
23263WAT     H170031   0.535   9.335   5.161
23263WAT     H270032   0.535   9.274   5.313
23264WAT      O70033   3.040   5.797   5.199
23264WAT     H170034   3.085   5.809   5.111
23264WAT     H270035   2.973   5.724   5.192
23265WAT      O70036   0.181   7.781   7.021
23265WAT     H170037   0.228   7.699   7.052
23265WAT     H270038   0.244   7.837   6.968
23266WAT      O70039   6.623   5.500   9.694
23266WAT     H170040   6.686   5.487   9.770
23266WAT     H270041   6.632   5.593   9.659
23267WAT      O70042   2.074   2.132   3.876
23267WAT     H170043   2.114   2.097   3.792
23267WAT     H270044   2.129   2.208   3.910
23268WAT      O70045   3.549   6.462   2.959
23268WAT     H170046   3.574   6.535   3.023
23268WAT     H270047   3.453   6.438   2.971
23269WAT      O70048   5.740   6.863   3.550
23269WAT     H170049   5.776   6.805   3.622
23269WAT     H270050   5.640   6.863   3.554
23270WAT      O70051   6.630   8.311   9.166
23270WAT     H170052   6.683   8.278   9.088
23270WAT     H270053   6.660   8.266   9.250
23271WAT      O70054   6.070   2.481   1.826
23271WAT     H170055   6.066   2.565   1.773
23271WAT     H270056   6.018   2.492   1.911
23272WAT      O70057   4.118   1.913   7.651
23272WAT     H170058   4.169   1.999   7.648
23272WAT     H270059   4.180   1.836   7.637
23273WAT      O70060   5.392   1.341   5.064
23273WAT     H170061   5.434   1.349   4.974
23273WAT     H270062   5.293   1.358   5.057
23274WAT      O70063   5.465   1.070   3.943
23274WAT     H170064   5.441   0.973   3.934
23274WAT     H270065   5.558   1.084   3.909
23275WAT      O70066   5.159   5.353   9.646
23275WAT     H170067   5.142   5.370   9.743
23275WAT     H270068   5.077   5.372   9.594
23276WAT      O70069   9.486   6.729   5.949
23276WAT     H170070   9.554   6.656   5.935
23276WAT     H270071   9.491   6.794   5.874
23277WAT      O70072   5.593   2.924   6.747
23277WAT     H170073   5.637   3.011   6.726
23277WAT     H270074   5.494   2.937   6.755
23278WAT      O70075   6.029   9.092   5.022
23278WAT     H170076   6.009   8.994   5.021
23278WAT     H270077   6.087   9.114   5.101
23279WAT      O70078   3.928   8.402   1.630
23279WAT     H170079   3.914   8.317   1.680
23279WAT     H270080   4.003   8.391   1.566
23280WAT      O70081   1.440   5.140   5.353
23280WAT     H170082   1.432   5.147   5.452
23280WAT     H270083   1.454   5.044   5.327
23281WAT      O70084   3.990   9.019   6.584
23281WAT     H170085   3.930   8.966   6.643
23281WAT     H270086   4.015   8.965   6.504
23282WAT      O70087   8.201   3.316   1.109
23282WAT     H170088   8.162   3.397   1.153
23282WAT     H270089   8.233   3.253   1.179
23283WAT      O70090   0.200   1.867   9.731
23283WAT     H170091   0.269   1.928   9.693
23283WAT     H270092   0.245   1.797   9.787
23284WAT      O70093   0.831   2.696   9.102
23284WAT     H170094   0.735   2.697   9.072
23284WAT     H270095   0.835   2.691   9.202
23285WAT      O70096   0.521   1.645   8.551
23285WAT     H170097   0.494   1.718   8.614
23285WAT     H270098   0.500   1.556   8.592
23286WAT      O70099   4.506   0.818   5.658
23286WAT     H170100   4.426   0.782   5.609
23286WAT     H270101   4.544   0.895   5.606
23287WAT      O70102   9.770   8.359   3.171
23287WAT     H170103   9.822   8.428   3.222
23287WAT     H270104   9.705   8.404   3.111
23288WAT      O70105   1.462   4.399   4.292
23288WAT     H170106   1.536   4.363   4.235
23288WAT     H270107   1.498   4.471   4.351
23289WAT      O70108   0.579   1.205   2.519
23289WAT     H170109   0.659   1.251   2.479
23289WAT     H270110   0.606   1.114   2.552
23290WAT      O70111   4.863   3.024   4.236
23290WAT     H170112   4.813   2.938   4.232
23290WAT     H270113   4.812   3.090   4.292
23291WAT      O70114   1.934   1.021   9.711
23291WAT     H170115   2.032   1.039   9.708
23291WAT     H270116   1.917   0.933   9.756
23292WAT      O70117   2.188   2.838   8.405
23292WAT     H170118   2.186   2.825   8.306
23292WAT     H270119   2.113   2.786   8.447
23293WAT      O70120   2.164   6.864   5.393
23293WAT     H170121   2.221   6.909   5.462
23293WAT     H270122   2.070   6.897   5.403
23294WAT      O70123   7.539   7.019   5.188
23294WAT     H170124   7.590   7.096   5.228
23294WAT     H270125   7.472   6.986   5.253
23295WAT      O70126   5.950   2.888   4.240
23295WAT     H170127   5.884   2.815   4.255
23295WAT     H270128   5.970   2.895   4.142
23296WAT      O70129   6.966   5.026   6.398
23296WAT     H170130   7.006   4.946   6.441
23296WAT     H270131   6.882   5.052   6.446
23297WAT      O70132   6.026   1.906   8.304
23297WAT     H170133   6.125   1.908   8.290
23297WAT     H270134   5.980   1.939   8.222
23298WAT      O70135   2.066   1.739   0.173
23298WAT     H170136   2.062   1.807   0.246
23298WAT     H270137   2.122   1.774   0.098
23299WAT      O70138   6.787   1.398   4.778
23299WAT     H170139   6.758   1.486   4.815
23299WAT     H270140   6.721   1.367   4.709
23300WAT      O70141   8.208   3.211   2.672
23300WAT     H170142   8.177   3.124   2.634
23300WAT     H270143   8.241   3.270   2.598
23301WAT      O70144   6.770   0.808   1.474
23301WAT     H170145   6.675   0.799   1.504
23301WAT     H270146   6.795   0.731   1.415
23302WAT      O70147   4.230   2.286   9.873
23302WAT     H170148   4.312   2.304   9.927
23302WAT     H270149   4.190   2.373   9.845
23303WAT      O70150   8.677   2.420   0.554
23303WAT     H170151   8.724   2.340   0.591
23303WAT     H270152   8.660   2.486   0.627
23304WAT      O70153   4.758   5.503   9.150
23304WAT     H170154   4.806   5.432   9.202
23304WAT     H270155   4.686   5.543   9.208
23305WAT      O70156   5.331   5.657   5.122
23305WAT     H170157   5.404   5.688   5.061
23305WAT     H270158   5.243   5.668   5.077
23306WAT      O70159   1.221   5.316   7.393
23306WAT     H170160   1.165   5.396   7.413
23306WAT     H270161   1.171   5.233   7.417
23307WAT      O70162   9.283   8.716   6.021
23307WAT     H170163   9.204   8.689   6.076
23307WAT     H270164   9.344   8.773   6.076
23308WAT      O70165   4.274   8.003   8.372
23308WAT     H170166   4.344   7.944   8.411
23308WAT     H270167   4.290   8.097   8.399
23309WAT      O70168   9.376   6.361   7.298
23309WAT     H170169   9.360   6.350   7.200
23309WAT     H270170   9.474   6.371   7.315
23310WAT      O70171   0.106   3.415   7.149
23310WAT     H170172   0.007   3.423   7.147
23310WAT     H270173   0.137   3.368   7.066
23311WAT      O70174   6.639   2.742   3.386
23311WAT     H170175   6.732   2.714   3.411
23311WAT     H270176   6.610   2.818   3.444
23312WAT      O70177   0.457   1.495   4.530
23312WAT     H170178   0.420   1.495   4.623
23312WAT     H270179   0.392   1.450   4.468
23313WAT      O70180   2.844   0.701   4.384
23313WAT     H170181   2.836   0.604   4.362
23313WAT     H270182   2.866   0.712   4.481
23314WAT      O70183   5.419   7.945   0.184
23314WAT     H170184   5.428   8.044   0.171
23314WAT     H270185   5.509   7.902   0.176
23315WAT      O70186   6.396   5.013   3.889
23315WAT     H170187   6.369   4.930   3.937
23315WAT     H270188   6.315   5.069   3.871
23316WAT      O70189   2.428   7.898   3.369
23316WAT     H170190   2.506   7.947   3.408
23316WAT     H270191   2.350   7.905   3.431
23317WAT      O70192   1.488   2.010   7.738
23317WAT     H170193   1.441   1.933   7.696
23317WAT     H270194   1.503   1.992   7.835
23318WAT      O70195   4.989   7.383   7.674
23318WAT     H170196   4.997   7.447   7.750
23318WAT     H270197   5.076   7.377   7.625
23319WAT      O70198   5.422   9.596   9.663
23319WAT     H170199   5.498   9.561   9.717
23319WAT     H270200   5.337   9.551   9.691
23320WAT      O70201   1.608   3.560   1.491
23320WAT     H170202   1.612   3.465   1.523
23320WAT     H270203   1.689   3.609   1.524
23321WAT      O70204   2.791   5.765   3.211
23321WAT     H170205   2.836   5.715   3.285
23321WAT     H270206   2.704   5.802   3.244
23322WAT      O70207   3.979   9.000   2.497
23322WAT     H170208   3.911   8.931   2.470
23322WAT     H270209   4.071   8.966   2.475
23323WAT      O70210   4.228   2.358   1.619
23323WAT     H170211   4.208   2.283   1.556
23323WAT     H270212   4.256   2.321   1.707
23324WAT      O70213   2.834   4.188   8.561
23324WAT     H170214   2.933   4.175   8.554
23324WAT     H270215   2.787   4.108   8.525
23325WAT      O70216   8.322   0.972   6.920
23325WAT     H170217   8.380   1.025   6.982
23325WAT     H270218   8.259   1.033   6.873
23326WAT      O70219   7.761   5.323   1.559
23326WAT     H170220   7.775   5.335   1.658
23326WAT     H270221   7.663   5.322   1.539
23327WAT      O70222   7.477   0.608   6.950
23327WAT     H170223   7.460   0.512   6.926
23327WAT     H270224   7.449   0.667   6.875
23328WAT      O70225   4.928   1.888   9.854
23328WAT     H170226   4.843   1.941   9.857
23328WAT     H270227   4.989   1.926   9.784
23329WAT      O70228   9.040   7.615   4.611
23329WAT     H170229   9.065   7.551   4.683
23329WAT     H270230   9.060   7.575   4.521
23330WAT      O70231   5.814   0.499   6.081
23330WAT     H170232   5.820   0.507   5.981
23330WAT     H270233   5.796   0.589   6.120
23331WAT      O70234   6.297   6.803   6.378
23331WAT     H170235   6.319   6.880   6.439
23331WAT     H270236   6.339   6.719   6.413
23332WAT      O70237   7.286   6.384   5.358
23332WAT     H170238   7.297   6.481   5.339
23332WAT     H270239   7.206   6.371   5.418
23333WAT      O70240   8.130   5.651   7.788
23333WAT     H170241   8.201   5.598   7.833
23333WAT     H270242   8.040   5.623   7.823
23334WAT      O70243   8.230   4.991   0.172
23334WAT     H170244   8.291   4.913   0.162
23334WAT     H270245   8.136   4.959   0.184
23335WAT      O70246   0.612   6.616   5.781
23335WAT     H170247   0.519   6.623   5.818
23335WAT     H270248   0.625   6.526   5.740
23336WAT      O70249   4.740   7.530   1.807
23336WAT     H170250   4.677   7.551   1.882
23336WAT     H270251   4.757   7.613   1.754
23337WAT      O70252   7.371   0.703   3.740
23337WAT     H170253   7.405   0.770   3.673
23337WAT     H270254   7.376   0.611   3.700
23338WAT      O70255   6.086   0.721   6.251
23338WAT     H170256   6.015   0.761   6.309
23338WAT     H270257   6.048   0.700   6.161
23339WAT      O70258   1.702   8.142   2.538
23339WAT     H170259   1.736   8.220   2.591
23339WAT     H270260   1.604   8.152   2.522
23340WAT      O70261   2.675   7.487   9.688
23340WAT     H170262   2.627   7.424   9.626
23340WAT     H270263   2.768   7.502   9.654
23341WAT      O70264   9.679   7.020   6.243
23341WAT     H170265   9.720   6.946   6.191
23341WAT     H270266   9.580   7.007   6.249
23342WAT      O70267   5.061   3.156   4.629
23342WAT     H170268   5.031   3.249   4.650
23342WAT     H270269   5.150   3.159   4.584
23343WAT      O70270   3.354   1.965   6.834
23343WAT     H170271   3.281   2.030   6.857
23343WAT     H270272   3.402   1.996   6.752
23344WAT      O70273   2.449   8.731   2.353
23344WAT     H170274   2.531   8.768   2.397
23344WAT     H270275   2.404   8.668   2.416
23345WAT      O70276   9.006   8.571   7.001
23345WAT     H170277   8.911   8.604   6.994
23345WAT     H270278   9.060   8.613   6.928
23346WAT      O70279   1.934   8.566   7.782
23346WAT     H170280   1.935   8.469   7.807
23346WAT     H270281   1.840   8.594   7.761
23347WAT      O70282   1.130   1.009   8.253
23347WAT     H170283   1.072   1.040   8.328
23347WAT     H270284   1.128   1.077   8.180
23348WAT      O70285   5.443   1.223   0.892
23348WAT     H170286   5.387   1.147   0.926
23348WAT     H270287   5.522   1.235   0.953
23349WAT      O70288   9.493   6.963   9.369
23349WAT     H170289   9.527   7.057   9.370
23349WAT     H270290   9.506   6.922   9.460
23350WAT      O70291   5.298   6.244   7.531
23350WAT     H170292   5.266   6.211   7.620
23350WAT     H270293   5.227   6.301   7.489
23351WAT      O70294   9.683   7.117   2.808
23351WAT     H170295   9.612   7.173   2.850
23351WAT     H270296   9.768   7.169   2.803
23352WAT      O70297   1.675   6.287   3.272
23352WAT     H170298   1.691   6.191   3.252
23352WAT     H270299   1.580   6.300   3.299
23353WAT      O70300   9.294   1.515   3.629
23353WAT     H170301   9.310   1.420   3.603
23353WAT     H270302   9.243   1.562   3.556
23354WAT      O70303   0.668   6.301   1.750
23354WAT     H170304   0.764   6.327   1.747
23354WAT     H270305   0.655   6.229   1.818
23355WAT      O70306   3.603   6.083   1.608
23355WAT     H170307   3.513   6.043   1.592
23355WAT     H270308   3.665   6.056   1.534
23356WAT      O70309   2.216   8.050   1.366
23356WAT     H170310   2.171   8.005   1.443
23356WAT     H270311   2.158   8.125   1.332
23357WAT      O70312   0.363   0.470   0.052
23357WAT     H170313   0.446   0.453   0.104
23357WAT     H270314   0.298   0.523   0.107
23358WAT      O70315   1.975   3.547   9.650
23358WAT     H170316   2.010   3.470   9.702
23358WAT     H270317   1.877   3.537   9.637
23359WAT      O70318   3.279   8.616   2.951
23359WAT     H170319   3.310   8.711   2.954
23359WAT     H270320   3.284   8.576   3.043
23360WAT      O70321   9.619   2.285   9.300
23360WAT     H170322   9.717   2.293   9.314
23360WAT     H270323   9.602   2.230   9.218
23361WAT      O70324   5.514   9.673   0.904
23361WAT     H170325   5.456   9.653   0.983
23361WAT     H270326   5.476   9.751   0.853
23362WAT      O70327   1.513   9.112   6.133
23362WAT     H170328   1.587   9.048   6.155
23362WAT     H270329   1.476   9.150   6.218
23363WAT      O70330   1.668   7.280   1.458
23363WAT     H170331   1.734   7.332   1.403
23363WAT     H270332   1.705   7.189   1.476
23364WAT      O70333   0.902   2.234   7.747
23364WAT     H170334   0.991   2.218   7.704
23364WAT     H270335   0.910   2.309   7.814
23365WAT      O70336   4.867   0.877   9.553
23365WAT     H170337   4.884   0.941   9.629
23365WAT     H270338   4.889   0.784   9.583
23366WAT      O70339   6.659   8.761   5.416
23366WAT     H170340   6.621   8.844   5.375
23366WAT     H270341   6.596   8.685   5.402
23367WAT      O70342   4.973   1.624   9.866
23367WAT     H170343   4.954   1.719   9.841
23367WAT     H270344   4.975   1.617   9.966
23368WAT      O70345   0.974   7.422   4.051
23368WAT     H170346   0.947   7.478   4.129
23368WAT     H270347   0.950   7.469   3.966
23369WAT      O70348   4.766   5.776   3.038
23369WAT     H170349   4.857   5.750   3.068
23369WAT     H270350   4.740   5.863   3.079
23370WAT      O70351   6.600   7.323   4.185
23370WAT     H170352   6.640   7.302   4.274
23370WAT     H270353   6.665   7.377   4.131
23371WAT      O70354   2.083   5.114   4.466
23371WAT     H170355   2.063   5.212   4.466
23371WAT     H270356   2.015   5.066   4.522
23372WAT      O70357   5.252   1.224   0.591
23372WAT     H170358   5.155   1.217   0.566
23372WAT     H270359   5.267   1.307   0.644
23373WAT      O70360   6.492   6.065   5.032
23373WAT     H170361   6.471   6.020   4.945
23373WAT     H270362   6.586   6.100   5.028
23374WAT      O70363   7.532   9.223   4.152
23374WAT     H170364   7.566   9.217   4.058
23374WAT     H270365   7.467   9.299   4.159
23375WAT      O70366   4.631   1.620   1.174
23375WAT     H170367   4.712   1.678   1.184
23375WAT     H270368   4.554   1.677   1.145
23376WAT      O70369   8.776   6.636   6.710
23376WAT     H170370   8.775   6.677   6.802
23376WAT     H270371   8.695   6.665   6.659
23377WAT      O70372   5.587   7.372   4.422
23377WAT     H170373   5.665   7.311   4.406
23377WAT     H270374   5.598   7.416   4.512
23378WAT      O70375   2.444   4.735   2.468
23378WAT     H170376   2.344   4.726   2.461
23378WAT     H270377   2.467   4.777   2.556
23379WAT      O70378   7.822   9.573   7.495
23379WAT     H170379   7.884   9.638   7.451
23379WAT     H270380   7.846   9.480   7.466
23380WAT      O70381   3.281   9.083   1.772
23380WAT     H170382   3.293   9.141   1.692
23380WAT     H270383   3.269   9.141   1.853
23381WAT      O70384   8.332   4.337   5.368
23381WAT     H170385   8.383   4.303   5.447
23381WAT     H270386   8.396   4.364   5.296
23382WAT      O70387   6.173   7.672   1.797
23382WAT     H170388   6.199   7.687   1.701
23382WAT     H270389   6.186   7.757   1.848
23383WAT      O70390   5.731   1.605   2.713
23383WAT     H170391   5.663   1.539   2.683
23383WAT     H270392   5.744   1.675   2.642
23384WAT      O70393   7.617   0.110   5.462
23384WAT     H170394   7.588   0.169   5.386
23384WAT     H270395   7.713   0.130   5.485
23385WAT      O70396   3.409   9.252   6.597
23385WAT     H170397   3.487   9.251   6.659
23385WAT     H270398   3.335   9.306   6.638
23386WAT      O70399   0.803   5.541   5.693
23386WAT     H170400   0.863   5.461   5.683
23386WAT     H270401   0.723   5.531   5.634
23387WAT      O70402   0.004   4.587   4.267
23387WAT     H170403   0.029   4.659   4.203
23387WAT     H270404  -0.095   4.588   4.282
23388WAT      O70405   2.447   1.684   2.403
23388WAT     H170406   2.359   1.668   2.449
23388WAT     H270407   2.433   1.689   2.304
23389WAT      O70408   1.912   6.217   0.680
23389WAT     H170409   1.875   6.226   0.773
23389WAT     H270410   2.002   6.259   0.676
23390WAT      O70411   7.364   2.806   8.042
23390WAT     H170412   7.386   2.724   7.989
23390WAT     H270413   7.299   2.862   7.990
23391WAT      O70414   2.836   6.017   2.886
23391WAT     H170415   2.806   6.074   2.809
23391WAT     H270416   2.794   6.051   2.970
23392WAT      O70417   1.870   8.371   0.525
23392WAT     H170418   1.956   8.337   0.563
23392WAT     H270419   1.871   8.470   0.524
23393WAT      O70420   7.718   6.018   1.707
23393WAT     H170421   7.633   6.058   1.741
23393WAT     H270422   7.782   6.092   1.686
23394WAT      O70423   9.152   6.242   5.598
23394WAT     H170424   9.163   6.156   5.549
23394WAT     H270425   9.112   6.311   5.537
23395WAT      O70426   2.310   5.855   5.787
23395WAT     H170427   2.267   5.918   5.722
23395WAT     H270428   2.378   5.904   5.842
23396WAT      O70429   7.829   7.782   5.791
23396WAT     H170430   7.814   7.827   5.879
23396WAT     H270431   7.756   7.714   5.775
23397WAT      O70432   1.228   6.239   1.764
23397WAT     H170433   1.279   6.296   1.828
23397WAT     H270434   1.189   6.297   1.692
23398WAT      O70435   5.578   2.140   2.268
23398WAT     H170436   5.606   2.235   2.282
23398WAT     H270437   5.536   2.132   2.177
23399WAT      O70438   6.582   3.775   8.845
23399WAT     H170439   6.573   3.677   8.824
23399WAT     H270440   6.501   3.806   8.895
23400WAT      O70441   7.279   7.520   1.367
23400WAT     H170442   7.321   7.432   1.348
23400WAT     H270443   7.295   7.544   1.463
23401WAT      O70444   5.807   7.580   4.841
23401WAT     H170445   5.886   7.519   4.855
23401WAT     H270446   5.839   7.670   4.812
23402WAT      O70447   4.705   4.399   4.642
23402WAT     H170448   4.773   4.364   4.578
23402WAT     H270449   4.735   4.487   4.679
23403WAT      O70450   3.201   0.343   2.126
23403WAT     H170451   3.251   0.430   2.125
23403WAT     H270452   3.113   0.355   2.171
23404WAT      O70453   2.431   7.453   5.112
23404WAT     H170454   2.386   7.412   5.032
23404WAT     H270455   2.424   7.390   5.189
23405WAT      O70456   7.094   2.332   4.611
23405WAT     H170457   7.111   2.431   4.620
23405WAT     H270458   7.041   2.300   4.689
23406WAT      O70459   4.916   5.985   8.275
23406WAT     H170460   4.907   5.983   8.374
23406WAT     H270461   4.868   5.907   8.236
23407WAT      O70462   0.401   2.070   3.336
23407WAT     H170463   0.401   1.974   3.309
23407WAT     H270464   0.450   2.124   3.267
23408WAT      O70465   7.322   1.065   1.374
23408WAT     H170466   7.343   0.973   1.340
23408WAT     H270467   7.305   1.126   1.297
23409WAT      O70468   1.528   0.530   8.078
23409WAT     H170469   1.452   0.560   8.020
23409WAT     H270470   1.614   0.547   8.031
23410WAT      O70471   3.751   5.281   8.685
23410WAT     H170472   3.779   5.319   8.773
23410WAT     H270473   3.826   5.290   8.619
23411WAT      O70474   3.471   5.592   3.022
23411WAT     H170475   3.511   5.506   3.056
23411WAT     H270476   3.405   5.571   2.950
23412WAT      O70477   6.990   3.693   8.838
23412WAT     H170478   6.902   3.706   8.791
23412WAT     H270479   6.973   3.681   8.936
23413WAT      O70480   8.148   4.449   6.552
23413WAT     H170481   8.121   4.356   6.526
23413WAT     H270482   8.147   4.456   6.652
23414WAT      O70483   2.298   0.165   2.646
23414WAT     H170484   2.229   0.171   2.718
23414WAT     H270485   2.389   0.164   2.687
23415WAT      O70486   4.076   8.668   4.476
23415WAT     H170487   4.144   8.602   4.444
23415WAT     H270488   4.015   8.692   4.400
23416WAT      O70489   9.661   4.947   7.566
23416WAT     H170490   9.720   4.885   7.617
23416WAT     H270491   9.691   5.041   7.579
23417WAT      O70492   8.105   2.214   2.238
23417WAT     H170493   8.041   2.218   2.315
23417WAT     H270494   8.188   2.166   2.266
23418WAT      O70495   2.556   5.835   0.407
23418WAT     H170496   2.632   5.855   0.345
23418WAT     H270497   2.470   5.866   0.365
23419WAT      O70498   8.271   6.977   5.053
23419WAT     H170499   8.307   6.918   5.126
23419WAT     H270500   8.215   6.921   4.991
23420WAT      O70501   5.608   4.107   4.318
23420WAT     H170502   5.549   4.071   4.247
23420WAT     H270503   5.566   4.092   4.408
23421WAT      O70504   8.620   4.965   4.377
23421WAT     H170505   8.627   4.905   4.298
23421WAT     H270506   8.596   5.057   4.347
23422WAT      O70507   5.127   8.516   7.846
23422WAT     H170508   5.167   8.489   7.934
23422WAT     H270509   5.175   8.469   7.772
23423WAT      O70510   7.708   2.686   5.311
23423WAT     H170511   7.770   2.760   5.337
23423WAT     H270512   7.697   2.624   5.389
23424WAT      O70513   8.211   4.038   0.088
23424WAT     H170514   8.306   4.040   0.058
23424WAT     H270515   8.155   3.993   0.019
23425WAT      O70516   0.869   2.282   1.354
23425WAT     H170517   0.857   2.297   1.256
23425WAT     H270518   0.822   2.198   1.381
23426WAT      O70519   3.991   5.959   7.789
23426WAT     H170520   4.054   6.017   7.841
23426WAT     H270521   4.023   5.864   7.792
23427WAT      O70522   7.338   6.651   1.252
23427WAT     H170523   7.276   6.658   1.173
23427WAT     H270524   7.428   6.618   1.221
23428WAT      O70525   4.420   4.331   5.058
23428WAT     H170526   4.475   4.393   5.003
23428WAT     H270527   4.386   4.257   5.000
23429WAT      O70528   5.600   2.773   1.004
23429WAT     H170529   5.591   2.848   1.070
23429WAT     H270530   5.538   2.699   1.029
23430WAT      O70531   3.224   6.702   2.462
23430WAT     H170532   3.286   6.639   2.507
23430WAT     H270533   3.193   6.663   2.375
23431WAT      O70534   9.034   2.347   1.422
23431WAT     H170535   8.944   2.313   1.397
23431WAT     H270536   9.046   2.439   1.386
23432WAT      O70537   5.140   4.820   7.576
23432WAT     H170538   5.160   4.789   7.483
23432WAT     H270539   5.091   4.907   7.572
23433WAT      O70540   7.197   4.387   1.976
23433WAT     H170541   7.176   4.450   2.051
23433WAT     H270542   7.130   4.312   1.976
23434WAT      O70543   6.542   8.562   5.116
23434WAT     H170544   6.539   8.474   5.163
23434WAT     H270545   6.637   8.589   5.101
23435WAT      O70546   9.379   3.899   1.615
23435WAT     H170547   9.401   3.975   1.554
23435WAT     H270548   9.430   3.909   1.701
23436WAT      O70549   8.080   1.843   3.052
23436WAT     H170550   8.099   1.753   3.013
23436WAT     H270551   8.028   1.897   2.987
23437WAT      O70552   2.180   2.378   1.743
23437WAT     H170553   2.269   2.352   1.707
23437WAT     H270554   2.157   2.320   1.821
23438WAT      O70555   1.022   5.227   7.016
23438WAT     H170556   1.114   5.187   7.024
23438WAT     H270557   1.029   5.322   6.987
23439WAT      O70558   7.826   9.656   1.154
23439WAT     H170559   7.869   9.570   1.125
23439WAT     H270560   7.891   9.709   1.208
23440WAT      O70561   5.273   3.827   1.621
23440WAT     H170562   5.347   3.873   1.572
23440WAT     H270563   5.186   3.844   1.574
23441WAT      O70564   0.527   8.114   8.205
23441WAT     H170565   0.551   8.141   8.299
23441WAT     H270566   0.453   8.046   8.208
23442WAT      O70567   1.902   9.186   2.885
23442WAT     H170568   1.963   9.166   2.808
23442WAT     H270569   1.946   9.252   2.946
23443WAT      O70570   6.027   6.195   8.522
23443WAT     H170571   5.997   6.104   8.548
23443WAT     H270572   5.958   6.239   8.465
23444WAT      O70573   9.181   1.871   0.885
23444WAT     H170574   9.106   1.848   0.823
23444WAT     H270575   9.266   1.878   0.834
23445WAT      O70576   3.744   1.490   4.849
23445WAT     H170577   3.765   1.403   4.894
23445WAT     H270578   3.673   1.475   4.780
23446WAT      O70579   7.260   4.747   2.348
23446WAT     H170580   7.360   4.759   2.343
23446WAT     H270581   7.232   4.742   2.443
23447WAT      O70582   1.566   1.233   8.643
23447WAT     H170583   1.571   1.213   8.545
23447WAT     H270584   1.612   1.161   8.695
23448WAT      O70585   9.362   0.017   2.333
23448WAT     H170586   9.331  -0.077   2.317
23448WAT     H270587   9.286   0.080   2.319
23449WAT      O70588   8.283   8.251   5.322
23449WAT     H170589   8.249   8.189   5.251
23449WAT     H270590   8.241   8.341   5.311
23450WAT      O70591   1.593   5.671   8.788
23450WAT     H170592   1.620   5.583   8.828
23450WAT     H270593   1.546   5.655   8.702
23451WAT      O70594   7.083   4.602   3.167
23451WAT     H170595   7.180   4.594   3.142
23451WAT     H270596   7.034   4.522   3.133
23452WAT      O70597   0.839   3.059   9.860
23452WAT     H170598   0.851   3.127   9.933
23452WAT     H270599   0.751   3.075   9.815
23453WAT      O70600   1.704   0.569   5.490
23453WAT     H170601   1.617   0.618   5.502
23453WAT     H270602   1.758   0.614   5.420
23454WAT      O70603   5.242   6.343   6.020
23454WAT     H170604   5.309   6.334   6.094
23454WAT     H270605   5.227   6.253   5.978
23455WAT      O70606   0.761   1.080   8.233
23455WAT     H170607   0.779   1.160   8.175
23455WAT     H270608   0.809   1.092   8.320
23456WAT      O70609   7.223   6.670   7.053
23456WAT     H170610   7.125   6.690   7.048
23456WAT     H270611   7.240   6.601   7.123
23457WAT      O70612   3.820   0.226   7.902
23457WAT     H170613   3.858   0.316   7.879
23457WAT     H270614   3.874   0.155   7.857
23458WAT      O70615   0.265   9.464   0.914
23458WAT     H170616   0.200   9.516   0.860
23458WAT     H270617   0.216   9.404   0.978
23459WAT      O70618   0.769   7.841   1.339
23459WAT     H170619   0.806   7.916   1.284
23459WAT     H270620   0.842   7.776   1.359
23460WAT      O70621   6.915   6.879   2.448
23460WAT     H170622   6.875   6.795   2.409
23460WAT     H270623   6.958   6.932   2.374
23461WAT      O70624   2.272   6.575   0.293
23461WAT     H170625   2.203   6.626   0.241
23461WAT     H270626   2.237   6.483   0.313
23462WAT      O70627   6.749   4.440   1.641
23462WAT     H170628   6.758   4.368   1.572
23462WAT     H270629   6.759   4.401   1.732
23463WAT      O70630   8.056   6.755   1.504
23463WAT     H170631   7.985   6.807   1.456
23463WAT     H270632   8.039   6.657   1.493
23464WAT      O70633   1.445   1.613   7.946
23464WAT     H170634   1.346   1.618   7.960
23464WAT     H270635   1.490   1.581   8.030
23465WAT      O70636   9.464   8.079   3.622
23465WAT     H170637   9.537   8.146   3.623
23465WAT     H270638   9.476   8.014   3.697
23466WAT      O70639   8.482   8.591   9.232
23466WAT     H170640   8.435   8.669   9.273
23466WAT     H270641   8.436   8.507   9.257
23467WAT      O70642   3.212   3.545   4.296
23467WAT     H170643   3.125   3.593   4.284
23467WAT     H270644   3.280   3.607   4.332
23468WAT      O70645   8.455   4.347   1.823
23468WAT     H170646   8.397   4.350   1.905
23468WAT     H270647   8.477   4.251   1.802
23469WAT      O70648   0.975   1.998   1.909
23469WAT     H170649   1.020   1.927   1.854
23469WAT     H270650   0.986   1.976   2.006
23470WAT      O70651   3.866   7.324   0.850
23470WAT     H170652   3.800   7.274   0.793
23470WAT     H270653   3.827   7.338   0.941
23471WAT      O70654   6.173   4.619   0.940
23471WAT     H170655   6.084   4.664   0.928
23471WAT     H270656   6.177   4.536   0.885
23472WAT      O70657   7.843   6.245   2.770
23472WAT     H170658   7.796   6.233   2.682
23472WAT     H270659   7.873   6.156   2.804
23473WAT      O70660   6.740   5.188   0.906
23473WAT     H170661   6.760   5.103   0.856
23473WAT     H270662   6.680   5.168   0.983
23474WAT      O70663   2.632   2.520   6.673
23474WAT     H170664   2.615   2.508   6.771
23474WAT     H270665   2.668   2.435   6.635
23475WAT      O70666   9.768   2.430   6.897
23475WAT     H170667   9.777   2.520   6.855
23475WAT     H270668   9.738   2.440   6.992
23476WAT      O70669   5.770   1.224   3.054
23476WAT     H170670   5.701   1.295   3.072
23476WAT     H270671   5.856   1.249   3.100
23477WAT      O70672   7.144   4.685   5.584
23477WAT     H170673   7.199   4.639   5.654
23477WAT     H270674   7.172   4.653   5.493
23478WAT      O70675   3.319   4.582   7.755
23478WAT     H170676   3.341   4.673   7.790
23478WAT     H270677   3.404   4.533   7.735
23479WAT      O70678   1.595   5.328   9.188
23479WAT     H170679   1.622   5.423   9.169
23479WAT     H270680   1.595   5.276   9.102
23480WAT      O70681   1.157   0.160   3.577
23480WAT     H170682   1.151   0.094   3.502
23480WAT     H270683   1.087   0.231   3.565
23481WAT      O70684   9.128   4.543   3.928
23481WAT     H170685   9.156   4.522   3.834
23481WAT     H270686   9.032   4.573   3.928
23482WAT      O70687   5.336   0.444   6.652
23482WAT     H170688   5.299   0.502   6.725
23482WAT     H270689   5.432   0.466   6.637
23483WAT      O70690   0.654   3.180   1.438
23483WAT     H170691   0.677   3.178   1.535
23483WAT     H270692   0.555   3.190   1.427
23484WAT      O70693   2.532   4.483   2.633
23484WAT     H170694   2.472   4.561   2.649
23484WAT     H270695   2.496   4.427   2.558
23485WAT      O70696   2.365   7.094   6.307
23485WAT     H170697   2.395   7.055   6.220
23485WAT     H270698   2.384   7.030   6.381
23486WAT      O70699   4.928   6.753   3.059
23486WAT     H170700   4.839   6.764   3.103
23486WAT     H270701   4.923   6.783   2.964
23487WAT      O70702   1.655   5.936   1.746
23487WAT     H170703   1.563   5.945   1.708
23487WAT     H270704   1.673   5.840   1.768
23488WAT      O70705   0.225   9.105   5.808
23488WAT     H170706   0.213   9.110   5.907
23488WAT     H270707   0.227   9.009   5.780
23489WAT      O70708   5.307   5.808   9.529
23489WAT     H170709   5.323   5.710   9.521
23489WAT     H270710   5.254   5.826   9.612
23490WAT      O70711   7.587   5.893   7.033
23490WAT     H170712   7.532   5.809   7.036
23490WAT     H270713   7.679   5.872   7.001
23491WAT      O70714   1.062   9.811   7.199
23491WAT     H170715   1.144   9.757   7.183
23491WAT     H270716   0.988   9.753   7.232
23492WAT      O70717   1.119   1.975   7.865
23492WAT     H170718   1.101   1.877   7.851
23492WAT     H270719   1.083   2.026   7.787
23493WAT      O70720   6.709   4.326   1.138
23493WAT     H170721   6.804   4.316   1.168
23493WAT     H270722   6.678   4.419   1.157
23494WAT      O70723   2.304   1.376   5.869
23494WAT     H170724   2.258   1.412   5.788
23494WAT     H270725   2.383   1.434   5.891
23495WAT      O70726   7.441   2.408   8.549
23495WAT     H170727   7.512   2.475   8.527
23495WAT     H270728   7.399   2.375   8.465
23496WAT      O70729   7.593   5.663   1.594
23496WAT     H170730   7.575   5.761   1.602
23496WAT     H270731   7.507   5.613   1.603
23497WAT      O70732   0.027   5.308   5.467
23497WAT     H170733   0.112   5.332   5.422
23497WAT     H270734  -0.042   5.379   5.450
23498WAT      O70735   1.236   2.304   9.463
23498WAT     H170736   1.299   2.337   9.533
23498WAT     H270737   1.147   2.286   9.504
23499WAT      O70738   2.141   6.096   4.354
23499WAT     H170739   2.116   6.185   4.315
23499WAT     H270740   2.118   6.024   4.289
23500WAT      O70741   3.939   5.890   9.685
23500WAT     H170742   3.883   5.831   9.626
23500WAT     H270743   3.885   5.969   9.714
23501WAT      O70744   5.723   0.358   1.901
23501WAT     H170745   5.761   0.408   1.823
23501WAT     H270746   5.797   0.323   1.958
23502WAT      O70747   4.678   9.083   4.725
23502WAT     H170748   4.735   9.165   4.724
23502WAT     H270749   4.624   9.079   4.641
23503WAT      O70750   5.539   6.937   3.288
23503WAT     H170751   5.509   6.937   3.384
23503WAT     H270752   5.624   6.989   3.280
23504WAT      O70753   1.920   3.818   1.389
23504WAT     H170754   1.983   3.895   1.376
23504WAT     H270755   1.856   3.815   1.312
23505WAT      O70756   4.555   6.659   2.854
23505WAT     H170757   4.553   6.673   2.755
23505WAT     H270758   4.597   6.571   2.874
23506WAT      O70759   1.248   7.445   0.238
23506WAT     H170760   1.192   7.517   0.197
23506WAT     H270761   1.343   7.476   0.245
23507WAT      O70762   9.481   7.828   3.320
23507WAT     H170763   9.416   7.900   3.343
23507WAT     H270764   9.480   7.812   3.221
23508WAT      O70765   8.434   3.516   6.913
23508WAT     H170766   8.423   3.614   6.897
23508WAT     H270767   8.478   3.501   7.001
23509WAT      O70768   5.759   5.551   6.996
23509WAT     H170769   5.718   5.605   7.069
23509WAT     H270770   5.689   5.496   6.952
23510WAT      O70771   4.733   3.689   9.627
23510WAT     H170772   4.815   3.715   9.677
23510WAT     H270773   4.716   3.591   9.636
23511WAT      O70774   0.945   6.042   1.373
23511WAT     H170775   0.929   5.971   1.305
23511WAT     H270776   0.956   6.001   1.463
23512WAT      O70777   3.236   9.785   6.319
23512WAT     H170778   3.262   9.732   6.238
23512WAT     H270779   3.196   9.724   6.388
23513WAT      O70780   5.523   8.192   3.190
23513WAT     H170781   5.532   8.124   3.117
23513WAT     H270782   5.580   8.271   3.168
23514WAT      O70783   5.778   0.915   2.198
23514WAT     H170784   5.765   1.013   2.217
23514WAT     H270785   5.845   0.903   2.125
23515WAT      O70786   1.614   3.878   4.761
23515WAT     H170787   1.578   3.818   4.690
23515WAT     H270788   1.622   3.826   4.847
23516WAT      O70789   4.075   6.270   4.144
23516WAT     H170790   3.985   6.291   4.183
23516WAT     H270791   4.128   6.217   4.211
23517WAT      O70792   2.776   7.550   7.248
23517WAT     H170793   2.767   7.646   7.277
23517WAT     H270794   2.731   7.538   7.160
23518WAT      O70795   2.685   7.983   5.932
23518WAT     H170796   2.606   7.979   5.870
23518WAT     H270797   2.743   8.060   5.906
23519WAT      O70798   2.788   8.197   3.190
23519WAT     H170799   2.752   8.257   3.261
23519WAT     H270800   2.735   8.210   3.105
23520WAT      O70801   5.916   2.260   7.847
23520WAT     H170802   5.943   2.241   7.941
23520WAT     H270803   5.966   2.340   7.814
23521WAT      O70804   2.085   2.480   5.932
23521WAT     H170805   2.072   2.409   6.000
23521WAT     H270806   2.087   2.440   5.840
23522WAT      O70807   5.567   0.452   4.593
23522WAT     H170808   5.583   0.523   4.661
23522WAT     H270809   5.525   0.493   4.512
23523WAT      O70810   2.097   4.475   3.084
23523WAT     H170811   2.122   4.511   3.174
23523WAT     H270812   2.022   4.530   3.046
23524WAT      O70813   2.884   3.264   7.051
23524WAT     H170814   2.981   3.248   7.067
23524WAT     H270815   2.869   3.285   6.954
23525WAT      O70816   4.025   1.958   3.769
23525WAT     H170817   4.024   2.026   3.696
23525WAT     H270818   4.068   1.874   3.735
23526WAT      O70819   3.299   6.566   4.011
23526WAT     H170820   3.239   6.492   3.981
23526WAT     H270821   3.394   6.534   4.010
23527WAT      O70822   4.365   5.779   0.749
23527WAT     H170823   4.304   5.771   0.828
23527WAT     H270824   4.341   5.708   0.682
23528WAT      O70825   0.671   6.774   2.888
23528WAT     H170826   0.585   6.797   2.934
23528WAT     H270827   0.661   6.684   2.844
23529WAT      O70828   7.282   6.626   0.150
23529WAT     H170829   7.336   6.550   0.187
23529WAT     H270830   7.335   6.674   0.080
23530WAT      O70831   4.517   1.306   5.804
23530WAT     H170832   4.452   1.237   5.772
23530WAT     H270833   4.470   1.393   5.814
23531WAT      O70834   7.351   1.592   5.587
23531WAT     H170835   7.349   1.637   5.497
23531WAT     H270836   7.383   1.657   5.656
23532WAT      O70837   7.504   4.072   4.893
23532WAT     H170838   7.406   4.084   4.877
23532WAT     H270839   7.535   3.988   4.848
23533WAT      O70840   4.039   0.130   3.728
23533WAT     H170841   3.998   0.112   3.639
23533WAT     H270842   4.064   0.044   3.772
23534WAT      O70843   6.274   9.259   9.535
23534WAT     H170844   6.328   9.277   9.453
23534WAT     H270845   6.250   9.345   9.579
23535WAT      O70846   9.481   8.955   3.465
23535WAT     H170847   9.405   8.941   3.529
23535WAT     H270848   9.511   9.050   3.468
23536WAT      O70849   8.125   3.969   7.215
23536WAT     H170850   8.093   3.883   7.176
23536WAT     H270851   8.210   3.952   7.266
23537WAT      O70852   1.539   4.512   8.381
23537WAT     H170853   1.525   4.475   8.289
23537WAT     H270854   1.619   4.469   8.423
23538WAT      O70855   9.155   0.541   4.913
23538WAT     H170856   9.248   0.511   4.895
23538WAT     H270857   9.091   0.482   4.863
23539WAT      O70858   6.770   2.605   7.005
23539WAT     H170859   6.833   2.587   7.080
23539WAT     H270860   6.787   2.540   6.931
23540WAT      O70861   0.015   8.881   4.060
23540WAT     H170862  -0.047   8.881   4.139
23540WAT     H270863   0.088   8.948   4.075
23541WAT      O70864   5.152   1.164   9.636
23541WAT     H170865   5.068   1.131   9.679
23541WAT     H270866   5.228   1.103   9.658
23542WAT      O70867   2.875   9.618   7.633
23542WAT     H170868   2.784   9.637   7.669
23542WAT     H270869   2.910   9.699   7.586
23543WAT      O70870   9.849   4.859   5.393
23543WAT     H170871   9.921   4.869   5.324
23543WAT     H270872   9.760   4.862   5.349
23544WAT      O70873   5.063   1.225   3.356
23544WAT     H170874   5.028   1.156   3.419
23544WAT     H270875   5.065   1.314   3.403
23545WAT      O70876   8.497   8.077   5.240
23545WAT     H170877   8.509   8.020   5.320
23545WAT     H270878   8.446   8.160   5.265
23546WAT      O70879   2.673   1.909   7.471
23546WAT     H170880   2.574   1.924   7.463
23546WAT     H270881   2.715   1.910   7.380
23547WAT      O70882   8.086   3.687   1.492
23547WAT     H170883   7.988   3.696   1.475
23547WAT     H270884   8.127   3.778   1.497
23548WAT      O70885   4.249   9.528   2.506
23548WAT     H170886   4.322   9.547   2.571
23548WAT     H270887   4.162   9.559   2.544
23549WAT      O70888   8.976   6.826   8.865
23549WAT     H170889   8.890   6.841   8.816
23549WAT     H270890   8.965   6.747   8.926
23550WAT      O70891   0.303   6.888   7.986
23550WAT     H170892   0.399   6.869   7.970
23550WAT     H270893   0.272   6.960   7.923
23551WAT      O70894   2.275   4.808   6.652
23551WAT     H170895   2.316   4.734   6.598
23551WAT     H270896   2.176   4.810   6.636
23552WAT      O70897   8.961   9.519   5.750
23552WAT     H170898   8.867   9.554   5.750
23552WAT     H270899   8.994   9.510   5.844
23553WAT      O70900   2.187   3.997   1.080
23553WAT     H170901   2.174   3.899   1.069
23553WAT     H270902   2.285   4.018   1.077
23554WAT      O70903   7.754   9.786   7.922
23554WAT     H170904   7.789   9.693   7.926
23554WAT     H270905   7.821   9.849   7.963
23555WAT      O70906   6.727   4.820   1.376
23555WAT     H170907   6.631   4.820   1.404
23555WAT     H270908   6.749   4.904   1.327
23556WAT      O70909   6.271   3.412   1.616
23556WAT     H170910   6.227   3.453   1.535
23556WAT     H270911   6.360   3.374   1.590
23557WAT      O70912   0.676   1.835   7.950
23557WAT     H170913   0.662   1.794   7.860
23557WAT     H270914   0.696   1.763   8.016
23558WAT      O70915   8.996   0.975   7.671
23558WAT     H170916   9.057   0.952   7.595
23558WAT     H270917   8.916   1.023   7.636
23559WAT      O70918   0.390   8.052   1.318
23559WAT     H170919   0.292   8.036   1.333
23559WAT     H270920   0.440   7.968   1.339
23560WAT      O70921   3.215   3.172   4.861
23560WAT     H170922   3.195   3.081   4.826
23560WAT     H270923   3.138   3.205   4.916
23561WAT      O70924   0.480   1.185   1.938
23561WAT     H170925   0.494   1.109   1.874
23561WAT     H270926   0.464   1.269   1.887
23562WAT      O70927   5.993   6.024   3.621
23562WAT     H170928   5.958   5.990   3.534
23562WAT     H270929   5.982   5.954   3.692
23563WAT      O70930   6.982   9.462   8.454
23563WAT     H170931   6.883   9.446   8.460
23563WAT     H270932   7.025   9.437   8.541
23564WAT      O70933   9.352   6.881   7.939
23564WAT     H170934   9.315   6.921   8.023
23564WAT     H270935   9.278   6.859   7.876
23565WAT      O70936   0.763   0.307   9.614
23565WAT     H170937   0.792   0.300   9.519
23565WAT     H270938   0.841   0.292   9.674
23566WAT      O70939   8.543   9.674   4.793
23566WAT     H170940   8.448   9.706   4.789
23566WAT     H270941   8.590   9.719   4.869
23567WAT      O70942   8.640   1.097   0.526
23567WAT     H170943   8.679   1.189   0.530
23567WAT     H270944   8.607   1.071   0.616
23568WAT      O70945   0.173   2.162   8.015
23568WAT     H170946   0.082   2.201   8.027
23568WAT     H270947   0.239   2.214   8.069
23569WAT      O70948   2.643   3.257   6.328
23569WAT     H170949   2.605   3.345   6.354
23569WAT     H270950   2.646   3.197   6.408
23570WAT      O70951   0.909   3.754   8.223
23570WAT     H170952   1.007   3.769   8.213
23570WAT     H270953   0.861   3.842   8.219
23571WAT      O70954   9.293   0.794   9.010
23571WAT     H170955   9.344   0.730   9.068
23571WAT     H270956   9.303   0.887   9.045
23572WAT      O70957   4.204   3.286   2.503
23572WAT     H170958   4.123   3.337   2.531
23572WAT     H270959   4.177   3.195   2.471
23573WAT      O70960   4.457   5.450   8.392
23573WAT     H170961   4.409   5.497   8.466
23573WAT     H270962   4.509   5.374   8.429
23574WAT      O70963   6.527   1.769   2.839
23574WAT     H170964   6.491   1.838   2.901
23574WAT     H270965   6.510   1.797   2.745
23575WAT      O70966   3.600   9.636   8.765
23575WAT     H170967   3.694   9.603   8.772
23575WAT     H270968   3.598   9.717   8.707
23576WAT      O70969   5.710   5.646   9.547
23576WAT     H170970   5.764   5.717   9.501
23576WAT     H270971   5.662   5.686   9.624
23577WAT      O70972   2.687   8.606   1.786
23577WAT     H170973   2.762   8.570   1.842
23577WAT     H270974   2.690   8.563   1.696
23578WAT      O70975   8.475   8.686   3.211
23578WAT     H170976   8.494   8.592   3.185
23578WAT     H270977   8.528   8.710   3.292
23579WAT      O70978   1.511   8.289   4.963
23579WAT     H170979   1.557   8.364   4.916
23579WAT     H270980   1.569   8.255   5.037
23580WAT      O70981   1.833   3.380   7.858
23580WAT     H170982   1.759   3.314   7.848
23580WAT     H270983   1.815   3.440   7.936
23581WAT      O70984   6.732   4.952   0.196
23581WAT     H170985   6.740   4.924   0.291
23581WAT     H270986   6.745   5.051   0.189
23582WAT      O70987   7.936   1.853   9.082
23582WAT     H170988   7.848   1.808   9.098
23582WAT     H270989   7.988   1.800   9.015
23583WAT      O70990   9.144   7.068   1.651
23583WAT     H170991   9.064   7.007   1.643
23583WAT     H270992   9.173   7.073   1.746
23584WAT      O70993   8.369   5.635   0.560
23584WAT     H170994   8.348   5.573   0.635
23584WAT     H270995   8.434   5.704   0.591
23585WAT      O70996   9.604   8.313   2.280
23585WAT     H170997   9.695   8.290   2.245
23585WAT     H270998   9.568   8.236   2.334
23586WAT      O70999   1.404   6.138   3.586
23586WAT     H171000   1.413   6.211   3.654
23586WAT     H271001   1.384   6.178   3.496
23587WAT      O71002   7.822   3.158   6.725
23587WAT     H171003   7.869   3.143   6.812
23587WAT     H271004   7.889   3.158   6.651
23588WAT      O71005   8.864   7.524   7.130
23588WAT     H171006   8.772   7.524   7.090
23588WAT     H271007   8.911   7.608   7.105
23589WAT      O71008   6.403   3.703   2.902
23589WAT     H171009   6.484   3.669   2.949
23589WAT     H271010   6.387   3.650   2.819
23590WAT      O71011   9.178   9.439   0.114
23590WAT     H171012   9.192   9.343   0.138
23590WAT     H271013   9.266   9.487   0.115
23591WAT      O71014   9.663   9.220   8.544
23591WAT     H171015   9.622   9.215   8.634
23591WAT     H271016   9.763   9.228   8.553
23592WAT      O71017   3.546   0.148   1.537
23592WAT     H171018   3.563   0.243   1.564
23592WAT     H271019   3.496   0.147   1.450
23593WAT      O71020   5.365   8.704   0.302
23593WAT     H171021   5.277   8.751   0.308
23593WAT     H271022   5.365   8.625   0.362
23594WAT      O71023   2.100   8.538   0.278
23594WAT     H171024   2.190   8.502   0.301
23594WAT     H271025   2.052   8.472   0.220
23595WAT      O71026   3.732   7.580   2.507
23595WAT     H171027   3.807   7.537   2.458
23595WAT     H271028   3.655   7.594   2.444
23596WAT      O71029   8.013   8.849   2.780
23596WAT     H171030   7.997   8.922   2.714
23596WAT     H271031   8.077   8.881   2.850
23597WAT      O71032   2.649   9.696   5.012
23597WAT     H171033   2.738   9.669   5.049
23597WAT     H271034   2.645   9.670   4.915
23598WAT      O71035   5.136   3.368   3.561
23598WAT     H171036   5.160   3.299   3.630
23598WAT     H271037   5.073   3.434   3.600
23599WAT      O71038   2.197   1.839   2.719
23599WAT     H171039   2.108   1.883   2.729
23599WAT     H271040   2.195   1.777   2.640
23600WAT      O71041   1.907   3.781   8.958
23600WAT     H171042   1.957   3.751   9.039
23600WAT     H271043   1.915   3.711   8.887
23601WAT      O71044   6.343   3.175   9.647
23601WAT     H171045   6.339   3.274   9.654
23601WAT     H271046   6.292   3.144   9.567
23602WAT      O71047   3.318   5.903   1.093
23602WAT     H171048   3.274   5.983   1.054
23602WAT     H271049   3.250   5.845   1.138
23603WAT      O71050   1.536   9.182   1.572
23603WAT     H171051   1.452   9.141   1.537
23603WAT     H271052   1.569   9.129   1.650
23604WAT      O71053   7.216   2.868   8.631
23604WAT     H171054   7.197   2.836   8.723
23604WAT     H271055   7.310   2.844   8.606
23605WAT      O71056   2.383   5.004   6.347
23605WAT     H171057   2.407   5.081   6.288
23605WAT     H271058   2.285   4.987   6.342
23606WAT      O71059   2.669   9.266   4.735
23606WAT     H171060   2.666   9.366   4.742
23606WAT     H271061   2.656   9.238   4.640
23607WAT      O71062   8.256   7.758   1.758
23607WAT     H171063   8.208   7.825   1.700
23607WAT     H271064   8.318   7.805   1.820
23608WAT      O71065   7.489   3.684   9.205
23608WAT     H171066   7.521   3.778   9.195
23608WAT     H271067   7.424   3.663   9.131
23609WAT      O71068   6.511   7.249   9.660
23609WAT     H171069   6.530   7.159   9.699
23609WAT     H271070   6.532   7.320   9.727
23610WAT      O71071   1.145   2.707   8.346
23610WAT     H171072   1.099   2.645   8.283
23610WAT     H271073   1.077   2.749   8.406
23611WAT      O71074   7.875   5.178   2.290
23611WAT     H171075   7.813   5.252   2.318
23611WAT     H271076   7.951   5.172   2.354
23612WAT      O71077   7.975   8.599   3.672
23612WAT     H171078   7.958   8.634   3.764
23612WAT     H271079   8.049   8.650   3.629
23613WAT      O71080   4.754   6.577   3.714
23613WAT     H171081   4.678   6.634   3.681
23613WAT     H271082   4.739   6.555   3.810
23614WAT      O71083   7.991   4.274   6.351
23614WAT     H171084   7.926   4.286   6.276
23614WAT     H271085   8.060   4.207   6.324
23615WAT      O71086   7.919   2.849   3.676
23615WAT     H171087   7.865   2.926   3.712
23615WAT     H271088   7.988   2.823   3.743
23616WAT      O71089   3.270   2.272   9.510
23616WAT     H171090   3.262   2.321   9.423
23616WAT     H271091   3.344   2.312   9.564
23617WAT      O71092   0.983   7.628   6.842
23617WAT     H171093   0.960   7.550   6.900
23617WAT     H271094   0.989   7.710   6.898
23618WAT      O71095   1.434   8.006   2.294
23618WAT     H171096   1.499   7.934   2.319
23618WAT     H271097   1.480   8.072   2.234
23619WAT      O71098   0.945   8.636   7.611
23619WAT     H171099   0.873   8.595   7.555
23619WAT     H271100   0.922   8.625   7.707
23620WAT      O71101   3.282   4.320   8.508
23620WAT     H171102   3.215   4.346   8.577
23620WAT     H271103   3.373   4.351   8.537
23621WAT      O71104   1.693   1.732   2.208
23621WAT     H171105   1.703   1.832   2.208
23621WAT     H271106   1.708   1.697   2.116
23622WAT      O71107   9.053   8.661   3.719
23622WAT     H171108   9.078   8.719   3.797
23622WAT     H271109   9.133   8.646   3.661
23623WAT      O71110   4.898   7.073   8.104
23623WAT     H171111   4.815   7.127   8.112
23623WAT     H271112   4.968   7.127   8.057
23624WAT      O71113   6.134   8.945   7.644
23624WAT     H171114   6.230   8.974   7.637
23624WAT     H271115   6.096   8.976   7.731
23625WAT      O71116   6.842   0.275   5.437
23625WAT     H171117   6.878   0.218   5.363
23625WAT     H271118   6.750   0.245   5.461
23626WAT      O71119   6.922   0.666   2.116
23626WAT     H171120   6.891   0.632   2.205
23626WAT     H271121   6.935   0.765   2.121
23627WAT      O71122   1.562   4.609   1.937
23627WAT     H171123   1.501   4.577   2.010
23627WAT     H271124   1.656   4.584   1.959
23628WAT      O71125   7.817   6.651   9.368
23628WAT     H171126   7.722   6.623   9.385
23628WAT     H271127   7.828   6.676   9.272
23629WAT      O71128   4.345   3.297   5.334
23629WAT     H171129   4.386   3.306   5.425
23629WAT     H271130   4.319   3.202   5.318
23630WAT      O71131   7.173   2.942   1.661
23630WAT     H171132   7.260   2.894   1.646
23630WAT     H271133   7.136   2.971   1.573
23631WAT      O71134   4.793   1.647   4.515
23631WAT     H171135   4.800   1.746   4.498
23631WAT     H271136   4.712   1.611   4.469
23632WAT      O71137   2.331   4.441   5.207
23632WAT     H171138   2.425   4.409   5.196
23632WAT     H271139   2.291   4.398   5.288
23633WAT      O71140   2.185   0.723   0.652
23633WAT     H171141   2.261   0.722   0.587
23633WAT     H271142   2.189   0.640   0.708
23634WAT      O71143   9.122   1.153   3.934
23634WAT     H171144   9.121   1.174   4.032
23634WAT     H271145   9.143   1.057   3.920
23635WAT      O71146   0.936   4.889   3.668
23635WAT     H171147   0.948   4.933   3.579
23635WAT     H271148   0.884   4.804   3.657
23636WAT      O71149   0.311   2.742   7.625
23636WAT     H171150   0.273   2.833   7.635
23636WAT     H271151   0.237   2.675   7.617
23637WAT      O71152   4.893   3.068   3.251
23637WAT     H171153   4.960   3.126   3.297
23637WAT     H271154   4.933   2.978   3.234
23638WAT      O71155   6.089   1.739   4.457
23638WAT     H171156   6.158   1.677   4.420
23638WAT     H271157   6.036   1.779   4.382
23639WAT      O71158   8.138   9.257   0.527
23639WAT     H171159   8.167   9.317   0.601
23639WAT     H271160   8.055   9.293   0.484
23640WAT      O71161   8.855   1.790   2.055
23640WAT     H171162   8.944   1.783   2.099
23640WAT     H271163   8.800   1.860   2.101
23641WAT      O71164   5.314   8.646   5.118
23641WAT     H171165   5.251   8.680   5.048
23641WAT     H271166   5.268   8.574   5.171
23642WAT      O71167   6.574   7.056   1.824
23642WAT     H171168   6.661   7.086   1.863
23642WAT     H271169   6.584   6.963   1.788
23643WAT      O71170   1.568   5.788   1.474
23643WAT     H171171   1.473   5.775   1.445
23643WAT     H271172   1.588   5.886   1.479
23644WAT      O71173   5.426   5.933   1.834
23644WAT     H171174   5.376   5.965   1.914
23644WAT     H271175   5.398   5.986   1.754
23645WAT      O71176   5.774   1.294   3.700
23645WAT     H171177   5.790   1.216   3.760
23645WAT     H271178   5.725   1.365   3.751
23646WAT      O71179   5.853   4.919   6.040
23646WAT     H171180   5.801   4.836   6.060
23646WAT     H271181   5.814   4.996   6.091
23647WAT      O71182   3.583   8.750   5.296
23647WAT     H171183   3.619   8.741   5.389
23647WAT     H271184   3.618   8.675   5.239
23648WAT      O71185   4.306   5.492   5.806
23648WAT     H171186   4.228   5.478   5.867
23648WAT     H271187   4.388   5.509   5.861
23649WAT      O71188   8.851   6.451   2.157
23649WAT     H171189   8.892   6.511   2.089
23649WAT     H271190   8.761   6.487   2.183
23650WAT      O71191   8.840   6.200   6.803
23650WAT     H171192   8.886   6.133   6.744
23650WAT     H271193   8.820   6.158   6.891
23651WAT      O71194   6.014   2.564   7.814
23651WAT     H171195   6.082   2.545   7.744
23651WAT     H271196   5.922   2.554   7.776
23652WAT      O71197   2.756   3.869   5.273
23652WAT     H171198   2.836   3.871   5.333
23652WAT     H271199   2.693   3.941   5.300
23653WAT      O71200   9.447   3.664   8.316
23653WAT     H171201   9.474   3.674   8.412
23653WAT     H271202   9.488   3.737   8.262
23654WAT      O71203   0.925   0.370   5.460
23654WAT     H171204   0.945   0.461   5.425
23654WAT     H271205   0.995   0.306   5.428
23655WAT      O71206   8.433   7.674   1.077
23655WAT     H171207   8.349   7.629   1.044
23655WAT     H271208   8.481   7.715   0.999
23656WAT      O71209   1.826   1.348   3.230
23656WAT     H171210   1.767   1.381   3.303
23656WAT     H271211   1.788   1.374   3.142
23657WAT      O71212   5.768   4.555   9.210
23657WAT     H171213   5.745   4.646   9.175
23657WAT     H271214   5.713   4.535   9.291
23658WAT      O71215   6.773   9.428   4.743
23658WAT     H171216   6.861   9.442   4.790
23658WAT     H271217   6.732   9.343   4.774
23659WAT      O71218   9.772   5.786   2.536
23659WAT     H171219   9.674   5.768   2.526
23659WAT     H271220   9.818   5.763   2.450
23660WAT      O71221   3.072   5.492   2.234
23660WAT     H171222   3.067   5.395   2.258
23660WAT     H271223   3.156   5.509   2.182
23661WAT      O71224   3.281   9.676   5.402
23661WAT     H171225   3.277   9.652   5.499
23661WAT     H271226   3.253   9.597   5.347
23662WAT      O71227   2.028   4.166   3.370
23662WAT     H171228   1.971   4.113   3.433
23662WAT     H271229   1.984   4.169   3.280
23663WAT      O71230   5.612   1.395   6.673
23663WAT     H171231   5.676   1.416   6.747
23663WAT     H271232   5.648   1.320   6.618
23664WAT      O71233   8.763   3.400   7.337
23664WAT     H171234   8.766   3.444   7.247
23664WAT     H271235   8.716   3.460   7.402
23665WAT      O71236   9.256   7.516   7.040
23665WAT     H171237   9.340   7.476   7.077
23665WAT     H271238   9.177   7.466   7.076
23666WAT      O71239   8.345   2.146   1.882
23666WAT     H171240   8.406   2.076   1.845
23666WAT     H271241   8.361   2.156   1.980
23667WAT      O71242   1.589   0.388   4.627
23667WAT     H171243   1.526   0.323   4.585
23667WAT     H271244   1.555   0.481   4.614
23668WAT      O71245   5.763   0.717   4.304
23668WAT     H171246   5.710   0.663   4.239
23668WAT     H271247   5.703   0.785   4.347
23669WAT      O71248   9.484   4.215   7.887
23669WAT     H171249   9.428   4.297   7.902
23669WAT     H271250   9.525   4.219   7.796
23670WAT      O71251   7.054   3.315   8.038
23670WAT     H171252   7.124   3.279   8.099
23670WAT     H271253   6.974   3.344   8.092
23671WAT      O71254   1.256   2.084   2.994
23671WAT     H171255   1.183   2.099   2.927
23671WAT     H271256   1.226   2.118   3.084
23672WAT      O71257   2.801   3.456   3.459
23672WAT     H171258   2.772   3.385   3.523
23672WAT     H271259   2.865   3.418   3.392
23673WAT      O71260   3.186   9.526   6.414
23673WAT     H171261   3.278   9.522   6.375
23673WAT     H271262   3.120   9.490   6.347
23674WAT      O71263   1.504   3.646   4.170
23674WAT     H171264   1.498   3.725   4.109
23674WAT     H271265   1.581   3.658   4.233
23675WAT      O71266   3.954   5.396   2.998
23675WAT     H171267   3.917   5.304   3.013
23675WAT     H271268   3.884   5.464   3.017
23676WAT      O71269   2.277   1.630   6.927
23676WAT     H171270   2.276   1.593   6.834
23676WAT     H271271   2.183   1.645   6.958
23677WAT      O71272   5.646   2.118   0.451
23677WAT     H171273   5.710   2.176   0.502
23677WAT     H271274   5.691   2.086   0.367
23678WAT      O71275   5.591   9.437   2.758
23678WAT     H171276   5.528   9.507   2.723
23678WAT     H271277   5.561   9.407   2.848
23679WAT      O71278   3.769   3.519   5.019
23679WAT     H171279   3.811   3.429   5.016
23679WAT     H271280   3.736   3.538   5.112
23680WAT      O71281   9.255   0.744   0.992
23680WAT     H171282   9.200   0.735   1.075
23680WAT     H271283   9.343   0.699   1.005
23681WAT      O71284   7.600   1.665   4.756
23681WAT     H171285   7.592   1.757   4.795
23681WAT     H271286   7.540   1.602   4.805
23682WAT      O71287   9.834   3.646   2.054
23682WAT     H171288   9.902   3.573   2.045
23682WAT     H271289   9.754   3.624   1.998
23683WAT      O71290   3.503   7.266   9.399
23683WAT     H171291   3.542   7.332   9.463
23683WAT     H271292   3.569   7.247   9.326
23684WAT      O71293   5.834   9.101   9.315
23684WAT     H171294   5.776   9.118   9.395
23684WAT     H271295   5.777   9.072   9.238
23685WAT      O71296   3.360   0.968   3.989
23685WAT     H171297   3.315   1.054   3.964
23685WAT     H271298   3.456   0.985   4.011
23686WAT      O71299   4.637   2.504   1.377
23686WAT     H171300   4.565   2.571   1.395
23686WAT     H271301   4.666   2.511   1.281
23687WAT      O71302   4.634   4.243   1.438
23687WAT     H171303   4.662   4.320   1.381
23687WAT     H271304   4.641   4.158   1.385
23688WAT      O71305   0.317   1.787   9.319
23688WAT     H171306   0.255   1.733   9.377
23688WAT     H271307   0.351   1.729   9.245
23689WAT      O71308   6.358   1.479   4.136
23689WAT     H171309   6.300   1.491   4.055
23689WAT     H271310   6.331   1.396   4.184
23690WAT      O71311   5.530   6.102   7.792
23690WAT     H171312   5.514   6.024   7.852
23690WAT     H271313   5.484   6.183   7.829
23691WAT      O71314   6.630   5.675   5.085
23691WAT     H171315   6.659   5.598   5.141
23691WAT     H271316   6.711   5.728   5.058
23692WAT      O71317   0.452   9.191   5.432
23692WAT     H171318   0.384   9.130   5.393
23692WAT     H271319   0.408   9.256   5.493
23693WAT      O71320   9.107   8.230   4.246
23693WAT     H171321   9.160   8.182   4.316
23693WAT     H271322   9.103   8.328   4.268
23694WAT      O71323   6.784   3.279   0.854
23694WAT     H171324   6.700   3.334   0.863
23694WAT     H271325   6.775   3.195   0.907
23695WAT      O71326   3.731   5.658   7.691
23695WAT     H171327   3.743   5.622   7.599
23695WAT     H271328   3.715   5.756   7.688
23696WAT      O71329   2.621   4.412   8.191
23696WAT     H171330   2.660   4.406   8.283
23696WAT     H271331   2.683   4.464   8.132
23697WAT      O71332   4.504   0.481   2.922
23697WAT     H171333   4.571   0.553   2.940
23697WAT     H271334   4.496   0.468   2.823
23698WAT      O71335   2.491   4.759   0.216
23698WAT     H171336   2.575   4.777   0.266
23698WAT     H271337   2.450   4.674   0.248
23699WAT      O71338   7.158   5.744   1.152
23699WAT     H171339   7.064   5.720   1.128
23699WAT     H271340   7.167   5.745   1.252
23700WAT      O71341   5.971   0.116   8.985
23700WAT     H171342   5.927   0.121   8.895
23700WAT     H271343   6.070   0.109   8.973
23701WAT      O71344   1.033   3.044   5.757
23701WAT     H171345   1.123   3.002   5.770
23701WAT     H271346   1.026   3.080   5.664
23702WAT      O71347   8.839   0.584   3.135
23702WAT     H171348   8.919   0.644   3.141
23702WAT     H271349   8.756   0.639   3.127
23703WAT      O71350   2.476   1.068   5.367
23703WAT     H171351   2.531   1.015   5.431
23703WAT     H271352   2.498   1.041   5.273
23704WAT      O71353   2.968   6.001   0.306
23704WAT     H171354   3.002   6.001   0.400
23704WAT     H271355   2.983   6.091   0.265
23705WAT      O71356   9.802   6.029   4.882
23705WAT     H171357   9.815   6.116   4.833
23705WAT     H271358   9.761   6.047   4.971
23706WAT      O71359   8.602   8.330   6.449
23706WAT     H171360   8.618   8.327   6.547
23706WAT     H271361   8.514   8.287   6.428
23707WAT      O71362   4.716   2.675   5.202
23707WAT     H171363   4.813   2.684   5.182
23707WAT     H271364   4.675   2.765   5.212
23708WAT      O71365   9.505   4.001   5.783
23708WAT     H171366   9.421   4.054   5.769
23708WAT     H271367   9.487   3.904   5.763
23709WAT      O71368   1.310   3.024   1.575
23709WAT     H171369   1.354   2.946   1.532
23709WAT     H271370   1.222   2.996   1.613
23710WAT      O71371   7.058   1.054   5.669
23710WAT     H171372   6.986   1.112   5.631
23710WAT     H271373   7.036   0.958   5.653
23711WAT      O71374   3.781   5.041   7.716
23711WAT     H171375   3.875   5.038   7.681
23711WAT     H271376   3.774   5.111   7.787
23712WAT      O71377   0.650   4.212   2.328
23712WAT     H171378   0.686   4.304   2.342
23712WAT     H271379   0.657   4.159   2.413
23713WAT      O71380   7.962   7.976   8.606
23713WAT     H171381   7.940   7.958   8.510
23713WAT     H271382   7.995   8.070   8.615
23714WAT      O71383   0.330   4.653   1.229
23714WAT     H171384   0.320   4.723   1.300
23714WAT     H271385   0.295   4.689   1.142
23715WAT      O71386   8.790   7.961   8.052
23715WAT     H171387   8.750   7.880   8.095
23715WAT     H271388   8.881   7.977   8.091
23716WAT      O71389   0.474   0.293   8.763
23716WAT     H171390   0.551   0.338   8.717
23716WAT     H271391   0.393   0.350   8.754
23717WAT      O71392   8.944   2.369   9.727
23717WAT     H171393   9.020   2.363   9.661
23717WAT     H271394   8.975   2.419   9.808
23718WAT      O71395   9.403   8.209   5.249
23718WAT     H171396   9.325   8.222   5.310
23718WAT     H271397   9.428   8.112   5.248
23719WAT      O71398   6.436   1.976   7.420
23719WAT     H171399   6.513   1.938   7.472
23719WAT     H271400   6.465   2.059   7.374
23720WAT      O71401   0.116   8.282   5.439
23720WAT     H171402   0.023   8.257   5.464
23720WAT     H271403   0.181   8.241   5.504
23721WAT      O71404   5.717   1.350   9.259
23721WAT     H171405   5.697   1.447   9.277
23721WAT     H271406   5.632   1.298   9.260
23722WAT      O71407   5.937   7.318   9.581
23722WAT     H171408   5.917   7.243   9.645
23722WAT     H271409   5.903   7.294   9.491
23723WAT      O71410   7.625   9.491   7.790
23723WAT     H171411   7.683   9.495   7.871
23723WAT     H271412   7.551   9.557   7.799
23724WAT      O71413   4.424   5.060   8.919
23724WAT     H171414   4.404   5.088   8.825
23724WAT     H271415   4.449   4.964   8.921
23725WAT      O71416   3.556   3.341   0.122
23725WAT     H171417   3.609   3.257   0.127
23725WAT     H271418   3.609   3.416   0.162
23726WAT      O71419   0.424   1.811   1.900
23726WAT     H171420   0.485   1.734   1.918
23726WAT     H271421   0.420   1.828   1.802
23727WAT      O71422   1.014   5.580   4.412
23727WAT     H171423   1.061   5.521   4.478
23727WAT     H271424   0.949   5.638   4.461
23728WAT      O71425   4.999   1.906   9.244
23728WAT     H171426   4.903   1.878   9.246
23728WAT     H271427   5.021   1.957   9.328
23729WAT      O71428   3.857   3.351   6.972
23729WAT     H171429   3.932   3.351   6.906
23729WAT     H271430   3.841   3.445   7.004
23730WAT      O71431   3.859   9.462   0.473
23730WAT     H171432   3.901   9.375   0.446
23730WAT     H271433   3.882   9.481   0.569
23731WAT      O71434   3.091   8.848   9.873
23731WAT     H171435   3.012   8.792   9.897
23731WAT     H271436   3.161   8.840   9.944
23732WAT      O71437   0.720   4.865   3.281
23732WAT     H171438   0.649   4.802   3.312
23732WAT     H271439   0.727   4.941   3.347
23733WAT      O71440   1.063   5.981   9.469
23733WAT     H171441   1.079   5.993   9.370
23733WAT     H271442   1.140   5.931   9.509
23734WAT      O71443   9.134   4.800   3.652
23734WAT     H171444   9.104   4.818   3.746
23734WAT     H271445   9.056   4.767   3.599
23735WAT      O71446   4.316   2.670   6.526
23735WAT     H171447   4.296   2.640   6.432
23735WAT     H271448   4.387   2.740   6.524
23736WAT      O71449   0.706   5.120   1.371
23736WAT     H171450   0.653   5.202   1.389
23736WAT     H271451   0.662   5.066   1.300
23737WAT      O71452   5.152   4.072   7.940
23737WAT     H171453   5.208   4.103   7.863
23737WAT     H271454   5.056   4.068   7.912
23738WAT      O71455   5.596   4.732   7.180
23738WAT     H171456   5.534   4.809   7.164
23738WAT     H271457   5.670   4.761   7.241
23739WAT      O71458   8.106   2.029   4.741
23739WAT     H171459   8.096   1.954   4.808
23739WAT     H271460   8.200   2.062   4.742
23740WAT      O71461   3.826   4.399   1.797
23740WAT     H171462   3.751   4.448   1.841
23740WAT     H271463   3.913   4.427   1.837
23741WAT      O71464   3.467   2.610   5.417
23741WAT     H171465   3.441   2.551   5.493
23741WAT     H271466   3.400   2.600   5.343
23742WAT      O71467   4.891   2.425   8.903
23742WAT     H171468   4.838   2.476   8.971
23742WAT     H271469   4.864   2.454   8.811
23743WAT      O71470   6.550   8.549   6.577
23743WAT     H171471   6.464   8.598   6.561
23743WAT     H271472   6.552   8.467   6.519
23744WAT      O71473   9.502   8.912   7.829
23744WAT     H171474   9.550   8.894   7.744
23744WAT     H271475   9.518   9.007   7.857
23745WAT      O71476   3.053   9.655   2.470
23745WAT     H171477   3.034   9.751   2.492
23745WAT     H271478   2.994   9.596   2.524
23746WAT      O71479   4.042   8.652   4.749
23746WAT     H171480   3.944   8.667   4.758
23746WAT     H271481   4.064   8.631   4.653
23747WAT      O71482   1.713   9.797   2.422
23747WAT     H171483   1.681   9.845   2.341
23747WAT     H271484   1.648   9.725   2.446
23748WAT      O71485   6.367   7.420   8.518
23748WAT     H171486   6.424   7.357   8.465
23748WAT     H271487   6.280   7.434   8.471
23749WAT      O71488   7.233   8.627   9.487
23749WAT     H171489   7.167   8.576   9.433
23749WAT     H271490   7.191   8.710   9.523
23750WAT      O71491   9.773   8.728   1.075
23750WAT     H171492   9.733   8.645   1.038
23750WAT     H271493   9.706   8.803   1.068
23751WAT      O71494   3.807   8.440   3.255
23751WAT     H171495   3.737   8.391   3.203
23751WAT     H271496   3.766   8.478   3.338
23752WAT      O71497   7.084   4.297   8.095
23752WAT     H171498   7.063   4.331   8.003
23752WAT     H271499   7.101   4.373   8.157
23753WAT      O71500   1.791   8.599   3.313
23753WAT     H171501   1.827   8.681   3.268
23753WAT     H271502   1.699   8.617   3.346
23754WAT      O71503   4.646   5.003   7.688
23754WAT     H171504   4.647   5.092   7.643
23754WAT     H271505   4.677   5.013   7.783
23755WAT      O71506   9.418   7.725   1.214
23755WAT     H171507   9.434   7.784   1.293
23755WAT     H271508   9.374   7.641   1.244
23756WAT      O71509   2.156   1.693   5.528
23756WAT     H171510   2.135   1.708   5.431
23756WAT     H271511   2.075   1.713   5.583
23757WAT      O71512   6.388   6.293   1.563
23757WAT     H171513   6.343   6.214   1.605
23757WAT     H271514   6.327   6.372   1.566
23758WAT      O71515   3.948   9.287   6.639
23758WAT     H171516   4.018   9.354   6.611
23758WAT     H271517   3.990   9.197   6.649
23759WAT      O71518   0.057   0.456   3.955
23759WAT     H171519   0.095   0.418   4.039
23759WAT     H271520   0.108   0.539   3.930
23760WAT      O71521   1.433   4.845   0.282
23760WAT     H171522   1.352   4.878   0.233
23760WAT     H271523   1.424   4.747   0.298
23761WAT      O71524   0.138   0.170   3.558
23761WAT     H171525   0.086   0.243   3.601
23761WAT     H271526   0.131   0.087   3.613
23762WAT      O71527   2.038   7.046   4.720
23762WAT     H171528   2.053   7.145   4.714
23762WAT     H271529   2.112   6.998   4.671
23763WAT      O71530   3.342   8.239   7.684
23763WAT     H171531   3.296   8.206   7.766
23763WAT     H271532   3.306   8.329   7.658
23764WAT      O71533   1.268   1.482   3.724
23764WAT     H171534   1.251   1.383   3.716
23764WAT     H271535   1.188   1.532   3.691
23765WAT      O71536   5.493   5.459   4.930
23765WAT     H171537   5.433   5.389   4.969
23765WAT     H271538   5.560   5.487   4.998
23766WAT      O71539   0.891   2.671   3.525
23766WAT     H171540   0.972   2.648   3.578
23766WAT     H271541   0.887   2.614   3.443
23767WAT      O71542   4.323   6.511   1.217
23767WAT     H171543   4.294   6.606   1.212
23767WAT     H271544   4.279   6.459   1.144
23768WAT      O71545   8.295   0.470   4.133
23768WAT     H171546   8.344   0.532   4.072
23768WAT     H271547   8.215   0.517   4.171
23769WAT      O71548   0.113   7.828   8.357
23769WAT     H171549   0.017   7.801   8.358
23769WAT     H271550   0.169   7.753   8.394
23770WAT      O71551   6.221   3.109   5.275
23770WAT     H171552   6.279   3.134   5.352
23770WAT     H271553   6.141   3.059   5.309
23771WAT      O71554   7.935   8.359   3.001
23771WAT     H171555   8.033   8.365   2.982
23771WAT     H271556   7.896   8.451   3.001
23772WAT      O71557   9.239   5.069   0.401
23772WAT     H171558   9.260   5.004   0.474
23772WAT     H271559   9.140   5.071   0.385
23773WAT      O71560   3.923   8.701   1.242
23773WAT     H171561   4.021   8.710   1.256
23773WAT     H271562   3.878   8.683   1.329
23774WAT      O71563   2.149   6.328   0.312
23774WAT     H171564   2.200   6.254   0.359
23774WAT     H271565   2.076   6.361   0.372
23775WAT      O71566   8.189   1.604   8.791
23775WAT     H171567   8.120   1.673   8.770
23775WAT     H271568   8.177   1.573   8.886
23776WAT      O71569   7.278   8.766   9.857
23776WAT     H171570   7.265   8.828   9.935
23776WAT     H271571   7.245   8.675   9.882
23777WAT      O71572   5.884   5.708   6.056
23777WAT     H171573   5.887   5.674   6.150
23777WAT     H271574   5.796   5.686   6.014
23778WAT      O71575   2.270   4.520   2.016
23778WAT     H171576   2.302   4.610   2.048
23778WAT     H271577   2.213   4.478   2.086
23779WAT      O71578   0.133   2.312   2.489
23779WAT     H171579   0.198   2.289   2.418
23779WAT     H271580   0.133   2.240   2.559
23780WAT      O71581   5.525   7.366   8.452
23780WAT     H171582   5.545   7.446   8.395
23780WAT     H271583   5.589   7.365   8.529
23781WAT      O71584   3.948   4.440   3.628
23781WAT     H171585   3.882   4.391   3.571
23781WAT     H271586   4.034   4.389   3.631
23782WAT      O71587   3.737   8.626   5.542
23782WAT     H171588   3.763   8.675   5.625
23782WAT     H271589   3.803   8.554   5.523
23783WAT      O71590   3.326   5.550   4.380
23783WAT     H171591   3.253   5.616   4.363
23783WAT     H271592   3.350   5.505   4.294
23784WAT      O71593   9.078   8.548   4.023
23784WAT     H171594   9.066   8.572   4.119
23784WAT     H271595   8.989   8.539   3.979
23785WAT      O71596   2.339   1.627   8.623
23785WAT     H171597   2.439   1.622   8.620
23785WAT     H271598   2.310   1.721   8.604
23786WAT      O71599   8.979   1.368   6.259
23786WAT     H171600   8.950   1.355   6.165
23786WAT     H271601   8.928   1.306   6.319
23787WAT      O71602   1.160   1.598   8.019
23787WAT     H171603   1.148   1.587   7.920
23787WAT     H271604   1.161   1.508   8.062
23788WAT      O71605   5.982   7.328   2.166
23788WAT     H171606   5.994   7.308   2.264
23788WAT     H271607   5.898   7.287   2.133
23789WAT      O71608   7.285   5.068   5.312
23789WAT     H171609   7.202   5.071   5.255
23789WAT     H271610   7.356   5.124   5.270
23790WAT      O71611   7.407   0.291   7.179
23790WAT     H171612   7.427   0.195   7.161
23790WAT     H271613   7.462   0.323   7.256
23791WAT      O71614   7.534   7.978   5.975
23791WAT     H171615   7.501   8.011   6.063
23791WAT     H271616   7.489   7.891   5.953
23792WAT      O71617   1.049   1.032   7.579
23792WAT     H171618   0.985   1.105   7.604
23792WAT     H271619   1.023   0.992   7.491
23793WAT      O71620   0.738   2.692   5.282
23793WAT     H171621   0.774   2.601   5.261
23793WAT     H271622   0.814   2.753   5.307
23794WAT      O71623   1.506   1.146   3.383
23794WAT     H171624   1.518   1.214   3.310
23794WAT     H271625   1.409   1.136   3.403
23795WAT      O71626   2.079   6.046   6.085
23795WAT     H171627   2.042   6.114   6.021
23795WAT     H271628   2.074   6.082   6.178
23796WAT      O71629   4.159   3.378   5.866
23796WAT     H171630   4.251   3.411   5.889
23796WAT     H271631   4.121   3.329   5.945
23797WAT      O71632   7.618   8.308   9.345
23797WAT     H171633   7.652   8.222   9.384
23797WAT     H271634   7.646   8.384   9.403
23798WAT      O71635   2.121   8.992   9.818
23798WAT     H171636   2.134   9.061   9.747
23798WAT     H271637   2.026   8.961   9.817
23799WAT      O71638   5.702   8.675   5.390
23799WAT     H171639   5.793   8.662   5.352
23799WAT     H271640   5.692   8.770   5.422
23800WAT      O71641   5.282   6.267   8.226
23800WAT     H171642   5.262   6.194   8.161
23800WAT     H271643   5.380   6.288   8.225
23801WAT      O71644   5.489   6.500   9.742
23801WAT     H171645   5.503   6.525   9.646
23801WAT     H271646   5.435   6.572   9.787
23802WAT      O71647   8.642   4.281   0.896
23802WAT     H171648   8.714   4.301   0.830
23802WAT     H271649   8.678   4.221   0.967
23803WAT      O71650   3.389   6.941   7.710
23803WAT     H171651   3.315   6.957   7.775
23803WAT     H271652   3.441   7.026   7.698
23804WAT      O71653   6.235   4.921   3.647
23804WAT     H171654   6.140   4.918   3.680
23804WAT     H271655   6.258   4.833   3.606
23805WAT      O71656   7.059   7.890   8.781
23805WAT     H171657   6.972   7.877   8.733
23805WAT     H271658   7.081   7.808   8.834
23806WAT      O71659   5.889   0.349   6.302
23806WAT     H171660   5.871   0.393   6.213
23806WAT     H271661   5.980   0.376   6.335
23807WAT      O71662   2.177   3.180   1.414
23807WAT     H171663   2.152   3.097   1.363
23807WAT     H271664   2.276   3.187   1.420
23808WAT      O71665   2.313   6.027   6.388
23808WAT     H171666   2.215   6.005   6.387
23808WAT     H271667   2.344   6.043   6.294
23809WAT      O71668   3.636   9.615   7.632
23809WAT     H171669   3.552   9.645   7.587
23809WAT     H271670   3.656   9.521   7.607
23810WAT      O71671   0.391   3.171   4.940
23810WAT     H171672   0.314   3.116   4.906
23810WAT     H271673   0.397   3.256   4.888
23811WAT      O71674   5.597   9.514   9.837
23811WAT     H171675   5.645   9.602   9.839
23811WAT     H271676   5.590   9.478   9.930
23812WAT      O71677   9.122   8.617   6.267
23812WAT     H171678   9.215   8.580   6.268
23812WAT     H271679   9.117   8.693   6.333
23813WAT      O71680   2.542   2.192   0.826
23813WAT     H171681   2.563   2.203   0.924
23813WAT     H271682   2.619   2.225   0.772
23814WAT      O71683   1.071   8.513   1.395
23814WAT     H171684   1.128   8.514   1.477
23814WAT     H271685   1.121   8.469   1.320
23815WAT      O71686   4.755   2.904   2.810
23815WAT     H171687   4.694   2.832   2.777
23815WAT     H271688   4.709   2.992   2.803
23816WAT      O71689   2.011   8.737   9.524
23816WAT     H171690   2.094   8.704   9.567
23816WAT     H271691   1.978   8.669   9.458
23817WAT      O71692   6.327   6.258   7.628
23817WAT     H171693   6.405   6.319   7.611
23817WAT     H271694   6.245   6.313   7.646
23818WAT      O71695   6.809   6.545   5.930
23818WAT     H171696   6.769   6.632   5.957
23818WAT     H271697   6.909   6.550   5.936
23819WAT      O71698   8.517   6.734   7.593
23819WAT     H171699   8.494   6.701   7.684
23819WAT     H271700   8.500   6.662   7.526
23820WAT      O71701   3.629   8.618   4.225
23820WAT     H171702   3.558   8.687   4.242
23820WAT     H271703   3.610   8.537   4.279
23821WAT      O71704   6.663   3.435   6.247
23821WAT     H171705   6.567   3.431   6.274
23821WAT     H271706   6.673   3.399   6.154
23822WAT      O71707   7.687   4.964   1.617
23822WAT     H171708   7.595   4.967   1.656
23822WAT     H271709   7.748   5.023   1.671
23823WAT      O71710   7.493   0.399   2.435
23823WAT     H171711   7.531   0.491   2.448
23823WAT     H271712   7.405   0.392   2.482
23824WAT      O71713   6.880   5.914   3.909
23824WAT     H171714   6.811   5.871   3.852
23824WAT     H271715   6.960   5.939   3.853
23825WAT      O71716   3.315   8.123   1.418
23825WAT     H171717   3.386   8.172   1.469
23825WAT     H271718   3.330   8.135   1.320
23826WAT      O71719   4.040   0.709   2.353
23826WAT     H171720   4.016   0.744   2.263
23826WAT     H271721   3.959   0.669   2.396
23827WAT      O71722   1.507   7.683   7.710
23827WAT     H171723   1.605   7.664   7.709
23827WAT     H271724   1.491   7.778   7.682
23828WAT      O71725   8.019   7.082   6.994
23828WAT     H171726   7.971   7.090   6.907
23828WAT     H271727   7.975   7.012   7.050
23829WAT      O71728   8.060   0.640   0.879
23829WAT     H171729   8.119   0.578   0.827
23829WAT     H271730   8.000   0.586   0.938
23830WAT      O71731   3.649   5.046   4.303
23830WAT     H171732   3.746   5.068   4.302
23830WAT     H271733   3.595   5.130   4.296
23831WAT      O71734   2.413   4.809   3.400
23831WAT     H171735   2.446   4.720   3.432
23831WAT     H271736   2.429   4.878   3.471
23832WAT      O71737   7.323   4.737   5.069
23832WAT     H171738   7.396   4.670   5.051
23832WAT     H271739   7.356   4.828   5.046
23833WAT      O71740   5.162   6.906   6.592
23833WAT     H171741   5.232   6.956   6.642
23833WAT     H271742   5.080   6.898   6.649
23834WAT      O71743   6.052   3.656   0.924
23834WAT     H171744   6.074   3.685   0.831
23834WAT     H271745   6.079   3.561   0.937
23835WAT      O71746   7.093   1.977   0.172
23835WAT     H171747   7.003   1.964   0.129
23835WAT     H271748   7.090   2.057   0.232
23836WAT      O71749   9.123   8.376   1.797
23836WAT     H171750   9.068   8.327   1.864
23836WAT     H271751   9.096   8.349   1.704
23837WAT      O71752   5.162   5.677   0.555
23837WAT     H171753   5.161   5.764   0.605
23837WAT     H271754   5.106   5.610   0.604
23838WAT      O71755   1.674   7.348   4.238
23838WAT     H171756   1.579   7.321   4.219
23838WAT     H271757   1.721   7.365   4.152
23839WAT      O71758   8.784   6.359   2.685
23839WAT     H171759   8.715   6.407   2.738
23839WAT     H271760   8.768   6.260   2.690
23840WAT      O71761   9.807   2.373   2.764
23840WAT     H171762   9.713   2.344   2.774
23840WAT     H271763   9.867   2.294   2.759
23841WAT      O71764   3.612   1.464   5.658
23841WAT     H171765   3.597   1.400   5.583
23841WAT     H271766   3.663   1.417   5.731
23842WAT      O71767   3.705   9.825   3.611
23842WAT     H171768   3.638   9.890   3.577
23842WAT     H271769   3.795   9.844   3.570
23843WAT      O71770   0.049   2.184   1.881
23843WAT     H171771  -0.049   2.179   1.900
23843WAT     H271772   0.069   2.134   1.797
23844WAT      O71773   7.953   9.275   3.106
23844WAT     H171774   7.918   9.259   3.013
23844WAT     H271775   8.034   9.217   3.121
23845WAT      O71776   7.958   7.359   9.484
23845WAT     H171777   7.916   7.408   9.560
23845WAT     H271778   7.910   7.272   9.470
23846WAT      O71779   3.297   9.510   0.296
23846WAT     H171780   3.355   9.532   0.217
23846WAT     H271781   3.210   9.557   0.287
23847WAT      O71782   3.798   4.524   5.158
23847WAT     H171783   3.891   4.559   5.170
23847WAT     H271784   3.779   4.458   5.232
23848WAT      O71785   2.905   9.577   1.631
23848WAT     H171786   2.931   9.592   1.535
23848WAT     H271787   2.844   9.651   1.660
23849WAT      O71788   1.626   7.023   9.317
23849WAT     H171789   1.628   6.961   9.396
23849WAT     H271790   1.579   7.107   9.342
23850WAT      O71791   8.878   5.798   2.319
23850WAT     H171792   8.946   5.861   2.282
23850WAT     H271793   8.910   5.763   2.407
23851WAT      O71794   6.331   4.234   1.647
23851WAT     H171795   6.331   4.194   1.739
23851WAT     H271796   6.359   4.164   1.581
23852WAT      O71797   5.264   7.763   2.105
23852WAT     H171798   5.330   7.763   2.030
23852WAT     H271799   5.195   7.833   2.088
23853WAT      O71800   0.882   8.871   5.025
23853WAT     H171801   0.909   8.952   4.973
23853WAT     H271802   0.804   8.893   5.084
23854WAT      O71803   8.804   5.378   3.386
23854WAT     H171804   8.796   5.285   3.421
23854WAT     H271805   8.720   5.402   3.337
23855WAT      O71806   8.646   4.561   1.737
23855WAT     H171807   8.601   4.501   1.803
23855WAT     H271808   8.582   4.583   1.663
23856WAT      O71809   8.435   6.190   8.243
23856WAT     H171810   8.432   6.224   8.337
23856WAT     H271811   8.410   6.264   8.180
23857WAT      O71812   7.792   1.332   1.827
23857WAT     H171813   7.808   1.361   1.733
23857WAT     H271814   7.863   1.370   1.886
23858WAT      O71815   4.319   8.692   0.771
23858WAT     H171816   4.328   8.678   0.673
23858WAT     H271817   4.223   8.711   0.793
23859WAT      O71818   1.887   1.323   5.297
23859WAT     H171819   1.816   1.311   5.366
23859WAT     H271820   1.912   1.235   5.258
23860WAT      O71821   4.309   6.657   8.053
23860WAT     H171822   4.282   6.631   8.146
23860WAT     H271823   4.409   6.666   8.049
23861WAT      O71824   2.092   6.056   0.941
23861WAT     H171825   2.134   6.035   0.852
23861WAT     H271826   1.998   6.024   0.942
23862WAT      O71827   6.148   6.229   8.964
23862WAT     H171828   6.055   6.266   8.974
23862WAT     H271829   6.146   6.149   8.905
23863WAT      O71830   1.144   0.831   0.820
23863WAT     H171831   1.083   0.835   0.900
23863WAT     H271832   1.189   0.919   0.809
23864WAT      O71833   6.775   5.172   5.563
23864WAT     H171834   6.753   5.147   5.469
23864WAT     H271835   6.692   5.168   5.619
23865WAT      O71836   2.404   5.674   1.226
23865WAT     H171837   2.365   5.766   1.221
23865WAT     H271838   2.372   5.619   1.150
23866WAT      O71839   5.688   6.398   8.621
23866WAT     H171840   5.717   6.308   8.654
23866WAT     H271841   5.591   6.395   8.598
23867WAT      O71842   3.270   4.904   8.123
23867WAT     H171843   3.333   4.838   8.165
23867WAT     H271844   3.180   4.862   8.115
23868WAT      O71845   2.458   5.186   0.803
23868WAT     H171846   2.495   5.223   0.718
23868WAT     H271847   2.358   5.186   0.799
23869WAT      O71848   8.496   5.734   8.505
23869WAT     H171849   8.477   5.811   8.565
23869WAT     H271850   8.432   5.736   8.428
23870WAT      O71851   7.080   1.179   5.141
23870WAT     H171852   7.029   1.265   5.156
23870WAT     H271853   7.049   1.136   5.057
23871WAT      O71854   5.223   0.137   8.356
23871WAT     H171855   5.160   0.129   8.279
23871WAT     H271856   5.307   0.182   8.326
23872WAT      O71857   1.253   5.733   1.708
23872WAT     H171858   1.269   5.828   1.682
23872WAT     H271859   1.213   5.729   1.799
23873WAT      O71860   1.499   2.069   0.050
23873WAT     H171861   1.585   2.120   0.053
23873WAT     H271862   1.429   2.125   0.006
23874WAT      O71863   8.193   6.115   2.501
23874WAT     H171864   8.256   6.038   2.499
23874WAT     H271865   8.143   6.120   2.415
23875WAT      O71866   4.576   9.435   0.377
23875WAT     H171867   4.529   9.471   0.457
23875WAT     H271868   4.633   9.358   0.403
23876WAT      O71869   4.893   7.852   3.613
23876WAT     H171870   4.857   7.799   3.536
23876WAT     H271871   4.817   7.876   3.674
23877WAT      O71872   8.481   1.999   9.831
23877WAT     H171873   8.390   1.963   9.850
23877WAT     H271874   8.543   1.924   9.810
23878WAT      O71875   6.989   5.885   2.555
23878WAT     H171876   7.051   5.881   2.476
23878WAT     H271877   6.991   5.797   2.603
23879WAT      O71878   3.674   3.175   7.025
23879WAT     H171879   3.742   3.248   7.015
23879WAT     H271880   3.589   3.202   6.980
23880WAT      O71881   5.085   7.633   5.595
23880WAT     H171882   5.162   7.634   5.659
23880WAT     H271883   5.041   7.544   5.598
23881WAT      O71884   4.467   5.764   2.951
23881WAT     H171885   4.567   5.762   2.955
23881WAT     H271886   4.434   5.698   2.883
23882WAT      O71887   7.649   7.308   7.093
23882WAT     H171888   7.747   7.288   7.095
23882WAT     H271889   7.600   7.231   7.052
23883WAT      O71890   8.988   7.043   4.836
23883WAT     H171891   8.942   7.128   4.860
23883WAT     H271892   9.079   7.064   4.800
23884WAT      O71893   9.440   9.213   5.516
23884WAT     H171894   9.459   9.117   5.533
23884WAT     H271895   9.467   9.237   5.423
23885WAT      O71896   5.679   0.745   8.759
23885WAT     H171897   5.748   0.674   8.775
23885WAT     H271898   5.709   0.831   8.800
23886WAT      O71899   0.371   3.343   1.062
23886WAT     H171900   0.420   3.419   1.104
23886WAT     H271901   0.363   3.359   0.963
23887WAT      O71902   1.149   8.662   3.413
23887WAT     H171903   1.171   8.632   3.505
23887WAT     H271904   1.178   8.757   3.401
23888WAT      O71905   7.476   8.608   6.769
23888WAT     H171906   7.505   8.703   6.785
23888WAT     H271907   7.544   8.561   6.713
23889WAT      O71908   0.559   2.082   9.503
23889WAT     H171909   0.652   2.100   9.472
23889WAT     H271910   0.535   2.145   9.576
23890WAT      O71911   3.690   4.880   3.882
23890WAT     H171912   3.658   4.844   3.795
23890WAT     H271913   3.772   4.831   3.912
23891WAT      O71914   6.686   1.847   1.169
23891WAT     H171915   6.627   1.898   1.231
23891WAT     H271916   6.669   1.749   1.179
23892WAT      O71917   4.796   1.999   4.217
23892WAT     H171918   4.780   2.004   4.315
23892WAT     H271919   4.845   1.914   4.196
23893WAT      O71920   5.958   3.208   9.458
23893WAT     H171921   5.966   3.284   9.394
23893WAT     H271922   5.861   3.192   9.479
23894WAT      O71923   4.596   8.116   1.552
23894WAT     H171924   4.613   8.018   1.546
23894WAT     H271925   4.537   8.144   1.477
23895WAT      O71926   9.661   8.378   7.246
23895WAT     H171927   9.668   8.472   7.211
23895WAT     H271928   9.696   8.375   7.339
23896WAT      O71929   5.760   7.623   1.523
23896WAT     H171930   5.797   7.644   1.432
23896WAT     H271931   5.737   7.708   1.570
23897WAT      O71932   7.104   5.975   7.992
23897WAT     H171933   7.013   5.944   7.962
23897WAT     H271934   7.169   5.962   7.917
23898WAT      O71935   4.362   0.665   5.469
23898WAT     H171936   4.378   0.602   5.544
23898WAT     H271937   4.434   0.655   5.400
23899WAT      O71938   8.507   7.526   3.612
23899WAT     H171939   8.422   7.577   3.624
23899WAT     H271940   8.571   7.582   3.558
23900WAT      O71941   8.413   2.584   6.914
23900WAT     H171942   8.317   2.567   6.937
23900WAT     H271943   8.418   2.629   6.824
23901WAT      O71944   1.383   4.207   3.303
23901WAT     H171945   1.392   4.305   3.320
23901WAT     H271946   1.472   4.171   3.276
23902WAT      O71947   2.679   6.540   0.248
23902WAT     H171948   2.644   6.449   0.229
23902WAT     H271949   2.738   6.538   0.329
23903WAT      O71950   6.476   6.902   1.152
23903WAT     H171951   6.401   6.842   1.123
23903WAT     H271952   6.454   6.997   1.129
23904WAT      O71953   0.264   6.338   3.984
23904WAT     H171954   0.251   6.287   3.899
23904WAT     H271955   0.303   6.278   4.054
23905WAT      O71956   7.808   8.143   9.510
23905WAT     H171957   7.812   8.054   9.555
23905WAT     H271958   7.798   8.214   9.580
23906WAT      O71959   7.033   9.258   1.321
23906WAT     H171960   7.122   9.253   1.365
23906WAT     H271961   6.975   9.324   1.369
23907WAT      O71962   1.612   5.228   1.244
23907WAT     H171963   1.668   5.297   1.289
23907WAT     H271964   1.607   5.248   1.146
23908WAT      O71965   8.675   5.163   7.344
23908WAT     H171966   8.649   5.233   7.278
23908WAT     H271967   8.766   5.129   7.323
23909WAT      O71968   8.407   8.952   4.479
23909WAT     H171969   8.501   8.978   4.501
23909WAT     H271970   8.376   9.001   4.398
23910WAT      O71971   3.854   0.446   1.453
23910WAT     H171972   3.816   0.378   1.390
23910WAT     H271973   3.914   0.401   1.519
23911WAT      O71974   1.643   7.090   8.087
23911WAT     H171975   1.580   7.133   8.152
23911WAT     H271976   1.694   7.018   8.134
23912WAT      O71977   4.086   6.591   5.613
23912WAT     H171978   4.097   6.567   5.709
23912WAT     H271979   4.111   6.513   5.556
23913WAT      O71980   6.055   3.939   3.010
23913WAT     H171981   6.111   3.860   3.034
23913WAT     H271982   5.967   3.933   3.059
23914WAT      O71983   6.469   6.621   9.436
23914WAT     H171984   6.526   6.604   9.515
23914WAT     H271985   6.525   6.654   9.360
23915WAT      O71986   5.793   7.899   7.584
23915WAT     H171987   5.740   7.880   7.502
23915WAT     H271988   5.878   7.945   7.559
23916WAT      O71989   8.081   5.088   9.273
23916WAT     H171990   8.009   5.097   9.341
23916WAT     H271991   8.158   5.146   9.297
23917WAT      O71992   1.326   3.134   6.858
23917WAT     H171993   1.245   3.132   6.917
23917WAT     H271994   1.393   3.199   6.896
23918WAT      O71995   8.536   8.927   8.623
23918WAT     H171996   8.613   8.990   8.616
23918WAT     H271997   8.472   8.960   8.692
23919WAT      O71998   0.031   7.689   7.980
23919WAT     H171999   0.057   7.648   7.892
23919WAT     H272000   0.025   7.617   8.049
23920WAT      O72001   0.958   7.973   6.076
23920WAT     H172002   0.996   7.904   6.137
23920WAT     H272003   0.909   7.928   6.001
23921WAT      O72004   1.317   2.238   6.034
23921WAT     H172005   1.304   2.155   6.088
23921WAT     H272006   1.232   2.259   5.985
23922WAT      O72007   2.065   2.777   9.261
23922WAT     H172008   2.040   2.683   9.281
23922WAT     H272009   2.007   2.839   9.315
23923WAT      O72010   4.921   2.009   0.570
23923WAT     H172011   4.937   2.105   0.546
23923WAT     H272012   4.825   1.998   0.597
23924WAT      O72013   2.713   4.724   9.229
23924WAT     H172014   2.783   4.788   9.260
23924WAT     H272015   2.714   4.719   9.129
23925WAT      O72016   7.969   0.921   1.725
23925WAT     H172017   7.968   0.968   1.813
23925WAT     H272018   7.924   0.978   1.656
23926WAT      O72019   8.396   7.834   3.975
23926WAT     H172020   8.457   7.902   4.015
23926WAT     H272021   8.355   7.870   3.891
23927WAT      O72022   3.455   3.179   1.827
23927WAT     H172023   3.478   3.100   1.770
23927WAT     H272024   3.398   3.242   1.775
23928WAT      O72025   7.786   3.889   3.733
23928WAT     H172026   7.844   3.809   3.744
23928WAT     H272027   7.808   3.957   3.803
23929WAT      O72028   7.336   0.477   4.370
23929WAT     H172029   7.424   0.493   4.324
23929WAT     H272030   7.306   0.384   4.352
23930WAT      O72031   1.238   5.398   8.876
23930WAT     H172032   1.144   5.363   8.882
23930WAT     H272033   1.301   5.331   8.916
23931WAT      O72034   2.346   3.721   1.455
23931WAT     H172035   2.411   3.664   1.405
23931WAT     H272036   2.258   3.674   1.461
23932WAT      O72037   5.069   5.874   5.987
23932WAT     H172038   5.066   5.826   5.900
23932WAT     H272039   4.979   5.868   6.032
23933WAT      O72040   2.368   3.837   6.674
23933WAT     H172041   2.440   3.772   6.698
23933WAT     H272042   2.400   3.930   6.692
23934WAT      O72043   0.161   7.128   8.369
23934WAT     H172044   0.119   7.046   8.330
23934WAT     H272045   0.112   7.209   8.336
23935WAT      O72046   9.779   7.821   6.771
23935WAT     H172047   9.852   7.754   6.774
23935WAT     H272048   9.712   7.802   6.843
23936WAT      O72049   2.201   9.428   5.699
23936WAT     H172050   2.229   9.352   5.757
23936WAT     H272051   2.246   9.420   5.610
23937WAT      O72052   5.674   9.193   4.720
23937WAT     H172053   5.705   9.103   4.690
23937WAT     H272054   5.738   9.230   4.787
23938WAT      O72055   8.163   1.508   9.040
23938WAT     H172056   8.085   1.525   9.100
23938WAT     H272057   8.248   1.519   9.092
23939WAT      O72058   2.996   8.312   3.934
23939WAT     H172059   3.062   8.370   3.887
23939WAT     H272060   2.979   8.230   3.879
23940WAT      O72061   1.609   9.814   0.349
23940WAT     H172062   1.585   9.740   0.286
23940WAT     H272063   1.591   9.785   0.443
23941WAT      O72064   4.265   3.767   8.997
23941WAT     H172065   4.204   3.696   9.031
23941WAT     H272066   4.299   3.742   8.906
23942WAT      O72067   7.584   8.644   9.076
23942WAT     H172068   7.546   8.691   9.156
23942WAT     H272069   7.568   8.699   8.994
23943WAT      O72070   6.351   2.532   9.738
23943WAT     H172071   6.404   2.616   9.729
23943WAT     H272072   6.373   2.471   9.661
23944WAT      O72073   5.906   1.105   0.796
23944WAT     H172074   5.937   1.015   0.826
23944WAT     H272075   5.814   1.098   0.758
23945WAT      O72076   5.684   2.383   2.337
23945WAT     H172077   5.740   2.465   2.350
23945WAT     H272078   5.661   2.344   2.426
23946WAT      O72079   4.778   6.030   2.487
23946WAT     H172080   4.793   6.024   2.586
23946WAT     H272081   4.683   6.053   2.469
23947WAT      O72082   0.024   6.866   2.435
23947WAT     H172083   0.041   6.916   2.520
23947WAT     H272084  -0.011   6.775   2.455
23948WAT      O72085   1.194   7.448   1.693
23948WAT     H172086   1.206   7.540   1.656
23948WAT     H272087   1.278   7.420   1.740
23949WAT      O72088   7.998   5.902   1.112
23949WAT     H172089   7.940   5.899   1.030
23949WAT     H272090   8.056   5.821   1.114
23950WAT      O72091   8.441   5.456   8.511
23950WAT     H172092   8.459   5.552   8.531
23950WAT     H272093   8.449   5.402   8.594
23951WAT      O72094   3.251   6.112   3.939
23951WAT     H172095   3.258   6.157   4.028
23951WAT     H272096   3.278   6.016   3.949
23952WAT      O72097   1.367   8.018   9.697
23952WAT     H172098   1.286   8.055   9.652
23952WAT     H272099   1.424   8.092   9.731
23953WAT      O72100   0.684   2.755   2.578
23953WAT     H172101   0.677   2.795   2.669
23953WAT     H272102   0.658   2.823   2.509
23954WAT      O72103   5.524   2.731   4.389
23954WAT     H172104   5.521   2.830   4.398
23954WAT     H272105   5.446   2.700   4.334
23955WAT      O72106   5.933   7.824   4.826
23955WAT     H172107   6.028   7.806   4.799
23955WAT     H272108   5.903   7.912   4.789
23956WAT      O72109   0.843   0.938   3.009
23956WAT     H172110   0.759   0.991   3.021
23956WAT     H272111   0.906   0.987   2.949
23957WAT      O72112   8.031   2.526   8.883
23957WAT     H172113   8.118   2.485   8.911
23957WAT     H272114   7.963   2.454   8.869
23958WAT      O72115   4.660   2.009   0.012
23958WAT     H172116   4.608   2.000  -0.074
23958WAT     H272117   4.630   1.938   0.076
23959WAT      O72118   3.907   7.302   1.288
23959WAT     H172119   3.877   7.285   1.382
23959WAT     H272120   3.831   7.284   1.226
23960WAT      O72121   2.593   9.318   8.949
23960WAT     H172122   2.501   9.342   8.980
23960WAT     H272123   2.648   9.289   9.027
23961WAT      O72124   5.400   0.010   0.751
23961WAT     H172125   5.454   0.035   0.671
23961WAT     H272126   5.304  -0.002   0.724
23962WAT      O72127   1.044   1.080   4.213
23962WAT     H172128   0.986   1.105   4.135
23962WAT     H272129   1.139   1.103   4.193
23963WAT      O72130   6.496   0.767   1.508
23963WAT     H172131   6.442   0.819   1.575
23963WAT     H272132   6.462   0.674   1.502
23964WAT      O72133   5.703   2.952   8.233
23964WAT     H172134   5.780   2.938   8.296
23964WAT     H272135   5.651   3.033   8.262
23965WAT      O72136   8.151   6.099   6.590
23965WAT     H172137   8.052   6.091   6.605
23965WAT     H272138   8.195   6.013   6.615
23966WAT      O72139   0.902   2.277   8.117
23966WAT     H172140   0.924   2.192   8.069
23966WAT     H272141   0.928   2.355   8.061
23967WAT      O72142   3.807   7.371   8.402
23967WAT     H172143   3.819   7.321   8.317
23967WAT     H272144   3.888   7.426   8.421
23968WAT      O72145   1.704   8.051   4.620
23968WAT     H172146   1.739   8.057   4.714
23968WAT     H272147   1.681   7.956   4.599
23969WAT      O72148   0.107   5.063   9.016
23969WAT     H172149   0.046   5.026   9.086
23969WAT     H272150   0.198   5.080   9.056
23970WAT      O72151   6.967   8.115   9.257
23970WAT     H172152   6.868   8.106   9.243
23970WAT     H272153   6.988   8.107   9.355
23971WAT      O72154   8.750   0.593   9.883
23971WAT     H172155   8.682   0.521   9.894
23971WAT     H272156   8.705   0.677   9.853
23972WAT      O72157   0.186   0.748   0.041
23972WAT     H172158   0.278   0.786   0.050
23972WAT     H272159   0.138   0.758   0.129
23973WAT      O72160   6.375   0.697   0.155
23973WAT     H172161   6.474   0.691   0.165
23973WAT     H272162   6.341   0.777   0.203
23974WAT      O72163   0.340  -0.001   0.049
23974WAT     H172164   0.402   0.075   0.030
23974WAT     H272165   0.291  -0.026  -0.034
23975WAT      O72166   8.263   8.977   9.580
23975WAT     H172167   8.355   8.955   9.548
23975WAT     H272168   8.235   8.911   9.650
23976WAT      O72169   0.403   3.784   9.559
23976WAT     H172170   0.386   3.743   9.469
23976WAT     H272171   0.320   3.830   9.591
23977WAT      O72172   7.437   4.237   2.621
23977WAT     H172173   7.375   4.215   2.546
23977WAT     H272174   7.415   4.328   2.656
23978WAT      O72175   1.052   9.672   6.648
23978WAT     H172176   1.095   9.646   6.562
23978WAT     H272177   0.962   9.628   6.655
23979WAT      O72178   3.261   3.598   3.014
23979WAT     H172179   3.223   3.557   2.931
23979WAT     H272180   3.361   3.592   3.011
23980WAT      O72181   7.033   5.126   2.651
23980WAT     H172182   7.099   5.061   2.687
23980WAT     H272183   7.052   5.143   2.554
23981WAT      O72184   3.893   2.775   0.121
23981WAT     H172185   3.937   2.809   0.204
23981WAT     H272186   3.933   2.820   0.041
23982WAT      O72187   0.234   4.760   2.352
23982WAT     H172188   0.185   4.674   2.363
23982WAT     H272189   0.251   4.801   2.441
23983WAT      O72190   5.670   2.655   6.610
23983WAT     H172191   5.733   2.720   6.569
23983WAT     H272192   5.600   2.704   6.663
23984WAT      O72193   6.715   1.805   2.461
23984WAT     H172194   6.642   1.752   2.418
23984WAT     H272195   6.724   1.778   2.557
23985WAT      O72196   7.737   5.404   9.257
23985WAT     H172197   7.677   5.379   9.333
23985WAT     H272198   7.683   5.444   9.183
23986WAT      O72199   6.165   3.806   7.382
23986WAT     H172200   6.170   3.762   7.293
23986WAT     H272201   6.177   3.905   7.371
23987WAT      O72202   4.846   8.963   7.034
23987WAT     H172203   4.910   8.923   6.967
23987WAT     H272204   4.756   8.920   7.023
23988WAT      O72205   9.155   3.612   7.824
23988WAT     H172206   9.113   3.603   7.733
23988WAT     H272207   9.247   3.650   7.813
23989WAT      O72208   9.159   3.352   6.097
23989WAT     H172209   9.176   3.404   6.014
23989WAT     H272210   9.069   3.309   6.092
23990WAT      O72211   1.336   0.264   4.583
23990WAT     H172212   1.330   0.303   4.675
23990WAT     H272213   1.316   0.335   4.515
23991WAT      O72214   2.975   7.913   7.263
23991WAT     H172215   2.926   7.917   7.176
23991WAT     H272216   3.006   7.820   7.280
23992WAT      O72217   0.198   4.486   7.684
23992WAT     H172218   0.265   4.552   7.718
23992WAT     H272219   0.246   4.413   7.635
23993WAT      O72220   0.654   7.748   5.679
23993WAT     H172221   0.727   7.694   5.637
23993WAT     H272222   0.580   7.687   5.707
23994WAT      O72223   0.139   8.077   2.596
23994WAT     H172224   0.054   8.071   2.648
23994WAT     H272225   0.209   8.020   2.640
23995WAT      O72226   7.125   6.029   4.930
23995WAT     H172227   7.101   6.032   5.027
23995WAT     H272228   7.186   6.104   4.908
23996WAT      O72229   0.234   9.540   0.127
23996WAT     H172230   0.262   9.454   0.083
23996WAT     H272231   0.315   9.591   0.156
23997WAT      O72232   7.872   7.473   3.703
23997WAT     H172233   7.936   7.515   3.767
23997WAT     H272234   7.825   7.544   3.650
23998WAT      O72235   5.588   4.068   3.340
23998WAT     H172236   5.663   4.098   3.282
23998WAT     H272237   5.522   4.017   3.285
23999WAT      O72238   7.920   8.221   2.735
23999WAT     H172239   7.915   8.276   2.818
23999WAT     H272240   8.012   8.228   2.695
24000WAT      O72241   0.782   4.445   4.325
24000WAT     H172242   0.849   4.516   4.346
24000WAT     H272243   0.802   4.364   4.380
24001WAT      O72244   1.236   8.254   0.166
24001WAT     H172245   1.322   8.250   0.218
24001WAT     H272246   1.225   8.345   0.127
24002WAT      O72247   5.012   6.987   0.656
24002WAT     H172248   5.088   6.979   0.591
24002WAT     H272249   4.938   6.926   0.628
24003WAT      O72250   0.255   5.889   0.756
24003WAT     H172251   0.350   5.871   0.784
24003WAT     H272252   0.253   5.970   0.699
24004WAT      O72253   8.419   0.778   1.851
24004WAT     H172254   8.368   0.805   1.769
24004WAT     H272255   8.411   0.680   1.865
24005WAT      O72256   4.615   7.202   5.343
24005WAT     H172257   4.577   7.286   5.382
24005WAT     H272258   4.554   7.126   5.361
24006WAT      O72259   7.089   8.000   0.478
24006WAT     H172260   7.065   7.944   0.399
24006WAT     H272261   7.125   7.941   0.551
24007WAT      O72262   4.834   4.957   3.914
24007WAT     H172263   4.818   4.915   3.825
24007WAT     H272264   4.930   4.985   3.921
24008WAT      O72265   2.382   8.519   6.084
24008WAT     H172266   2.461   8.462   6.109
24008WAT     H272267   2.300   8.482   6.126
24009WAT      O72268   0.315   2.004   6.400
24009WAT     H172269   0.309   1.963   6.309
24009WAT     H272270   0.275   1.940   6.467
24010WAT      O72271   2.639   1.720   8.113
24010WAT     H172272   2.624   1.817   8.131
24010WAT     H272273   2.732   1.695   8.140
24011WAT      O72274   1.765   3.334   8.466
24011WAT     H172275   1.790   3.274   8.542
24011WAT     H272276   1.687   3.296   8.417
24012WAT      O72277   0.069   8.739   8.285
24012WAT     H172278   0.015   8.785   8.215
24012WAT     H272279   0.062   8.788   8.371
24013WAT      O72280   1.596   7.858   6.376
24013WAT     H172281   1.648   7.883   6.458
24013WAT     H272282   1.548   7.772   6.393
24014WAT      O72283   7.404   8.093   7.464
24014WAT     H172284   7.374   8.188   7.472
24014WAT     H272285   7.323   8.034   7.458
24015WAT      O72286   1.049   7.555   8.701
24015WAT     H172287   1.113   7.506   8.760
24015WAT     H272288   0.989   7.612   8.756
24016WAT      O72289   0.322   6.319   0.848
24016WAT     H172290   0.255   6.244   0.852
24016WAT     H272291   0.274   6.406   0.836
24017WAT      O72292   6.688   2.605   8.324
24017WAT     H172293   6.745   2.665   8.380
24017WAT     H272294   6.705   2.624   8.227
24018WAT      O72295   7.777   6.151   9.536
24018WAT     H172296   7.784   6.067   9.591
24018WAT     H272297   7.700   6.206   9.568
24019WAT      O72298   9.420   9.266   2.578
24019WAT     H172299   9.361   9.204   2.525
24019WAT     H272300   9.472   9.213   2.645
24020WAT      O72301   5.298   4.086   7.681
24020WAT     H172302   5.262   3.992   7.681
24020WAT     H272303   5.389   4.086   7.722
24021WAT      O72304   1.218   4.810   6.128
24021WAT     H172305   1.269   4.819   6.042
24021WAT     H272306   1.163   4.893   6.142
24022WAT      O72307   3.463   7.208   7.664
24022WAT     H172308   3.388   7.274   7.671
24022WAT     H272309   3.542   7.242   7.714
24023WAT      O72310   9.663   7.889   0.071
24023WAT     H172311   9.570   7.856   0.056
24023WAT     H272312   9.662   7.958   0.144
24024WAT      O72313   5.263   8.674   0.769
24024WAT     H172314   5.236   8.645   0.677
24024WAT     H272315   5.236   8.769   0.784
24025WAT      O72316   8.830   6.771   2.956
24025WAT     H172317   8.843   6.854   2.901
24025WAT     H272318   8.861   6.789   3.050
24026WAT      O72319   3.978   6.617   0.630
24026WAT     H172320   4.071   6.580   0.631
24026WAT     H272321   3.973   6.691   0.562
24027WAT      O72322   2.154   2.685   0.424
24027WAT     H172323   2.150   2.765   0.484
24027WAT     H272324   2.244   2.643   0.430
24028WAT      O72325   8.006   6.194   4.611
24028WAT     H172326   7.943   6.124   4.578
24028WAT     H272327   7.957   6.259   4.670
24029WAT      O72328   6.830   0.201   9.853
24029WAT     H172329   6.779   0.263   9.913
24029WAT     H272330   6.814   0.226   9.757
24030WAT      O72331   6.878   1.418   8.800
24030WAT     H172332   6.835   1.508   8.812
24030WAT     H272333   6.927   1.417   8.713
24031WAT      O72334   4.531   4.225   4.715
24031WAT     H172335   4.555   4.146   4.659
24031WAT     H272336   4.597   4.299   4.699
24032WAT      O72337   4.360   5.311   1.851
24032WAT     H172338   4.328   5.326   1.758
24032WAT     H272339   4.325   5.383   1.911
24033WAT      O72340   9.546   6.649   4.253
24033WAT     H172341   9.610   6.713   4.296
24033WAT     H272342   9.594   6.566   4.227
24034WAT      O72343   7.029   5.663   2.740
24034WAT     H172344   6.948   5.640   2.793
24034WAT     H272345   7.082   5.733   2.788
24035WAT      O72346   9.819   1.071   8.185
24035WAT     H172347   9.726   1.038   8.169
24035WAT     H272348   9.884   0.996   8.172
24036WAT      O72349   3.166   3.197   0.954
24036WAT     H172350   3.130   3.154   0.872
24036WAT     H272351   3.174   3.296   0.940
24037WAT      O72352   7.075   0.940   5.923
24037WAT     H172353   7.065   0.962   5.826
24037WAT     H272354   7.045   0.845   5.939
24038WAT      O72355   0.131   4.838   8.734
24038WAT     H172356   0.073   4.856   8.813
24038WAT     H272357   0.090   4.881   8.653
24039WAT      O72358   6.408   3.240   9.298
24039WAT     H172359   6.359   3.168   9.249
24039WAT     H272360   6.343   3.306   9.334
24040WAT      O72361   6.039   3.227   5.519
24040WAT     H172362   5.974   3.297   5.488
24040WAT     H272363   5.993   3.165   5.582
24041WAT      O72364   3.139   3.455   0.945
24041WAT     H172365   3.088   3.485   1.025
24041WAT     H272366   3.201   3.528   0.916
24042WAT      O72367   0.252   7.001   2.124
24042WAT     H172368   0.185   7.070   2.098
24042WAT     H272369   0.332   7.046   2.163
24043WAT      O72370   0.479   5.159   4.423
24043WAT     H172371   0.490   5.060   4.421
24043WAT     H272372   0.441   5.191   4.337
24044WAT      O72373   5.905   2.218   9.681
24044WAT     H172374   5.944   2.156   9.613
24044WAT     H272375   5.949   2.203   9.770
24045WAT      O72376   0.704   3.235   0.710
24045WAT     H172377   0.738   3.245   0.803
24045WAT     H272378   0.677   3.140   0.695
24046WAT      O72379   7.753   2.764   0.745
24046WAT     H172380   7.664   2.777   0.789
24046WAT     H272381   7.786   2.672   0.762
24047WAT      O72382   1.795   1.578   5.257
24047WAT     H172383   1.816   1.621   5.345
24047WAT     H272384   1.831   1.485   5.256
24048WAT      O72385   6.051   4.997   5.354
24048WAT     H172386   6.083   5.034   5.441
24048WAT     H272387   6.067   4.899   5.352
24049WAT      O72388   5.160   2.932   5.286
24049WAT     H172389   5.061   2.940   5.287
24049WAT     H272390   5.190   2.891   5.200
24050WAT      O72391   3.077   3.873   0.247
24050WAT     H172392   3.012   3.798   0.254
24050WAT     H272393   3.082   3.904   0.152
24051WAT      O72394   7.671   6.564   4.581
24051WAT     H172395   7.637   6.637   4.523
24051WAT     H272396   7.707   6.490   4.525
24052WAT      O72397   2.642   3.019   4.658
24052WAT     H172398   2.708   2.949   4.631
24052WAT     H272399   2.691   3.100   4.691
24053WAT      O72400   6.924   1.846   1.765
24053WAT     H172401   6.966   1.867   1.854
24053WAT     H272402   6.988   1.792   1.710
24054WAT      O72403   8.492   3.718   0.053
24054WAT     H172404   8.542   3.696   0.137
24054WAT     H272405   8.458   3.812   0.058
24055WAT      O72406   2.191   2.197   8.014
24055WAT     H172407   2.139   2.278   8.041
24055WAT     H272408   2.128   2.122   7.996
24056WAT      O72409   2.653   2.712   7.319
24056WAT     H172410   2.613   2.735   7.231
24056WAT     H272411   2.753   2.714   7.312
24057WAT      O72412   4.709   7.801   6.782
24057WAT     H172413   4.672   7.868   6.846
24057WAT     H272414   4.635   7.759   6.730
24058WAT      O72415   8.069   2.116   3.704
24058WAT     H172416   8.084   2.214   3.695
24058WAT     H272417   8.133   2.067   3.645
24059WAT      O72418   2.834   1.349   7.834
24059WAT     H172419   2.758   1.414   7.832
24059WAT     H272420   2.912   1.388   7.785
24060WAT      O72421   7.970   6.914   7.560
24060WAT     H172422   7.986   6.902   7.658
24060WAT     H272423   8.018   6.995   7.528
24061WAT      O72424   8.741   6.717   6.972
24061WAT     H172425   8.686   6.714   7.056
24061WAT     H272426   8.832   6.752   6.993
24062WAT      O72427   2.018   2.421   8.001
24062WAT     H172428   1.978   2.401   7.911
24062WAT     H272429   1.946   2.452   8.063
24063WAT      O72430   4.730   1.473   3.815
24063WAT     H172431   4.786   1.464   3.897
24063WAT     H272432   4.647   1.419   3.825
24064WAT      O72433   0.814   5.887   9.461
24064WAT     H172434   0.905   5.928   9.462
24064WAT     H272435   0.766   5.912   9.545
24065WAT      O72436   3.683   6.594   8.747
24065WAT     H172437   3.643   6.654   8.678
24065WAT     H272438   3.707   6.507   8.706
24066WAT      O72439   5.427   6.888   3.534
24066WAT     H172440   5.382   6.799   3.542
24066WAT     H272441   5.396   6.948   3.607
24067WAT      O72442   8.397   0.749   8.224
24067WAT     H172443   8.327   0.742   8.296
24067WAT     H272444   8.380   0.680   8.154
24068WAT      O72445   6.582   9.147   0.742
24068WAT     H172446   6.616   9.234   0.776
24068WAT     H272447   6.619   9.130   0.651
24069WAT      O72448   1.783   9.348   3.681
24069WAT     H172449   1.882   9.364   3.691
24069WAT     H272450   1.767   9.259   3.640
24070WAT      O72451   5.966   7.328   5.568
24070WAT     H172452   6.022   7.364   5.493
24070WAT     H272453   5.981   7.383   5.650
24071WAT      O72454   3.788   0.540   5.100
24071WAT     H172455   3.726   0.479   5.052
24071WAT     H272456   3.882   0.522   5.072
24072WAT      O72457   1.655   8.087   1.890
24072WAT     H172458   1.606   8.085   1.803
24072WAT     H272459   1.754   8.090   1.872
24073WAT      O72460   3.672   8.044   5.025
24073WAT     H172461   3.599   7.979   5.045
24073WAT     H272462   3.761   8.000   5.038
24074WAT      O72463   8.312   0.592   2.644
24074WAT     H172464   8.232   0.566   2.699
24074WAT     H272465   8.394   0.550   2.682
24075WAT      O72466   7.243   3.963   2.862
24075WAT     H172467   7.266   3.918   2.776
24075WAT     H272468   7.294   3.919   2.937
24076WAT      O72469   4.884   7.300   3.101
24076WAT     H172470   4.875   7.386   3.050
24076WAT     H272471   4.980   7.273   3.105
24077WAT      O72472   0.144   0.560   9.303
24077WAT     H172473   0.180   0.469   9.285
24077WAT     H272474   0.096   0.593   9.223
24078WAT      O72475   9.649   5.437   6.100
24078WAT     H172476   9.550   5.432   6.107
24078WAT     H272477   9.674   5.480   6.013
24079WAT      O72478   6.118   5.341   4.208
24079WAT     H172479   6.102   5.420   4.268
24079WAT     H272480   6.039   5.280   4.212
24080WAT      O72481   5.300   5.577   4.245
24080WAT     H172482   5.399   5.562   4.255
24080WAT     H272483   5.256   5.562   4.333
24081WAT      O72484   9.403   1.016   4.773
24081WAT     H172485   9.441   1.108   4.771
24081WAT     H272486   9.446   0.964   4.847
24082WAT      O72487   2.333   3.030   4.835
24082WAT     H172488   2.416   2.992   4.793
24082WAT     H272489   2.334   3.130   4.827
24083WAT      O72490   3.796   5.463   6.680
24083WAT     H172491   3.822   5.558   6.663
24083WAT     H272492   3.870   5.416   6.727
24084WAT      O72493   7.286   9.226   6.753
24084WAT     H172494   7.237   9.222   6.666
24084WAT     H272495   7.292   9.321   6.784
24085WAT      O72496   8.742   0.277   9.185
24085WAT     H172497   8.822   0.288   9.126
24085WAT     H272498   8.700   0.188   9.167
24086WAT      O72499   0.125   6.585   0.804
24086WAT     H172500   0.123   6.624   0.896
24086WAT     H272501   0.038   6.541   0.784
24087WAT      O72502   0.154   6.818   4.927
24087WAT     H172503   0.082   6.888   4.933
24087WAT     H272504   0.147   6.758   5.006
24088WAT      O72505   8.251   6.044   7.518
24088WAT     H172506   8.183   6.107   7.557
24088WAT     H272507   8.328   6.035   7.582
24089WAT      O72508   2.122   0.621   1.055
24089WAT     H172509   2.148   0.542   1.112
24089WAT     H272510   2.023   0.629   1.054
24090WAT      O72511   7.420   8.703   7.187
24090WAT     H172512   7.357   8.678   7.114
24090WAT     H272513   7.412   8.800   7.208
24091WAT      O72514   8.315   8.932   0.345
24091WAT     H172515   8.357   8.866   0.407
24091WAT     H272516   8.327   9.024   0.381
24092WAT      O72517   1.700   0.335   2.081
24092WAT     H172518   1.737   0.271   2.013
24092WAT     H272519   1.749   0.322   2.168
24093WAT      O72520   4.221   7.716   6.489
24093WAT     H172521   4.315   7.704   6.459
24093WAT     H272522   4.195   7.638   6.546
24094WAT      O72523   6.912   7.817   0.807
24094WAT     H172524   6.847   7.770   0.746
24094WAT     H272525   6.863   7.886   0.860
24095WAT      O72526   9.608   6.377   9.460
24095WAT     H172527   9.511   6.385   9.441
24095WAT     H272528   9.621   6.339   9.552
24096WAT      O72529   0.424   2.002   0.041
24096WAT     H172530   0.385   2.055   0.117
24096WAT     H272531   0.378   2.028  -0.044
24097WAT      O72532   3.718   2.622   2.685
24097WAT     H172533   3.733   2.562   2.606
24097WAT     H272534   3.624   2.656   2.682
24098WAT      O72535   8.080   9.453   9.699
24098WAT     H172536   8.176   9.426   9.706
24098WAT     H272537   8.025   9.374   9.673
24099WAT      O72538   3.298   9.314   0.995
24099WAT     H172539   3.208   9.328   0.954
24099WAT     H272540   3.298   9.350   1.088
24100WAT      O72541   7.988   1.410   7.898
24100WAT     H172542   7.903   1.389   7.947
24100WAT     H272543   7.978   1.497   7.850
24101WAT      O72544   4.372   4.325   1.463
24101WAT     H172545   4.454   4.267   1.464
24101WAT     H272546   4.361   4.364   1.372
24102WAT      O72547   9.621   0.248   3.260
24102WAT     H172548   9.674   0.307   3.199
24102WAT     H272549   9.681   0.176   3.296
24103WAT      O72550   3.421   7.478   2.343
24103WAT     H172551   3.418   7.512   2.249
24103WAT     H272552   3.336   7.501   2.390
24104WAT      O72553   3.444   8.699   1.892
24104WAT     H172554   3.426   8.601   1.895
24104WAT     H272555   3.458   8.727   1.797
24105WAT      O72556   0.161   7.791   7.552
24105WAT     H172557   0.116   7.879   7.542
24105WAT     H272558   0.142   7.733   7.473
24106WAT      O72559   6.955   1.112   7.294
24106WAT     H172560   6.983   1.195   7.246
24106WAT     H272561   6.864   1.085   7.262
24107WAT      O72562   3.067   3.398   8.542
24107WAT     H172563   3.063   3.398   8.442
24107WAT     H272564   3.128   3.471   8.573
24108WAT      O72565   0.659   7.113   1.030
24108WAT     H172566   0.642   7.209   1.005
24108WAT     H272567   0.579   7.075   1.076
24109WAT      O72568   7.605   6.761   4.396
24109WAT     H172569   7.514   6.719   4.387
24109WAT     H272570   7.646   6.771   4.306
24110WAT      O72571   2.906   1.672   5.342
24110WAT     H172572   2.836   1.625   5.289
24110WAT     H272573   2.933   1.756   5.295
24111WAT      O72574   7.132   7.115   6.125
24111WAT     H172575   7.225   7.152   6.123
24111WAT     H272576   7.080   7.151   6.047
24112WAT      O72577   6.048   3.699   0.063
24112WAT     H172578   6.094   3.756   0.130
24112WAT     H272579   5.950   3.699   0.081
24113WAT      O72580   8.631   4.873   4.110
24113WAT     H172581   8.593   4.782   4.094
24113WAT     H272582   8.565   4.942   4.081
24114WAT      O72583   7.532   0.795   8.658
24114WAT     H172584   7.624   0.758   8.672
24114WAT     H272585   7.478   0.730   8.605
24115WAT      O72586   0.148   4.248   9.510
24115WAT     H172587   0.244   4.260   9.487
24115WAT     H272588   0.095   4.231   9.427
24116WAT      O72589   3.974   3.837   1.364
24116WAT     H172590   4.040   3.890   1.416
24116WAT     H272591   3.945   3.758   1.418
24117WAT      O72592   1.208   0.355   7.762
24117WAT     H172593   1.294   0.305   7.752
24117WAT     H272594   1.141   0.298   7.809
24118WAT      O72595   4.230   6.278   6.271
24118WAT     H172596   4.149   6.334   6.288
24118WAT     H272597   4.270   6.250   6.359
24119WAT      O72598   2.955   0.351   3.239
24119WAT     H172599   2.969   0.449   3.229
24119WAT     H272600   2.916   0.332   3.329
24120WAT      O72601   9.770   5.515   5.365
24120WAT     H172602   9.687   5.467   5.333
24120WAT     H272603   9.824   5.543   5.286
24121WAT      O72604   6.080   0.662   1.575
24121WAT     H172605   6.113   0.569   1.591
24121WAT     H272606   6.119   0.697   1.489
24122WAT      O72607   7.587   2.258   8.130
24122WAT     H172608   7.631   2.169   8.142
24122WAT     H272609   7.583   2.281   8.033
24123WAT      O72610   9.737   9.629   6.883
24123WAT     H172611   9.759   9.723   6.907
24123WAT     H272612   9.658   9.598   6.936
24124WAT      O72613   1.750   1.044   4.927
24124WAT     H172614   1.721   0.951   4.951
24124WAT     H272615   1.847   1.044   4.905
24125WAT      O72616   9.370   0.115   9.179
24125WAT     H172617   9.284   0.167   9.183
24125WAT     H272618   9.360   0.030   9.230
24126WAT      O72619   5.983   0.496   7.137
24126WAT     H172620   5.964   0.594   7.131
24126WAT     H272621   5.933   0.448   7.065
24127WAT      O72622   4.276   7.141   2.303
24127WAT     H172623   4.316   7.231   2.315
24127WAT     H272624   4.297   7.107   2.211
24128WAT      O72625   4.858   7.753   6.254
24128WAT     H172626   4.929   7.688   6.281
24128WAT     H272627   4.872   7.780   6.158
24129WAT      O72628   2.931   3.958   7.614
24129WAT     H172629   2.894   3.989   7.701
24129WAT     H272630   2.994   3.882   7.630
24130WAT      O72631   1.242   7.498   6.156
24130WAT     H172632   1.248   7.441   6.074
24130WAT     H272633   1.234   7.438   6.236
24131WAT      O72634   9.269   8.075   1.195
24131WAT     H172635   9.187   8.125   1.168
24131WAT     H272636   9.247   7.978   1.203
24132WAT      O72637   3.456   8.798   3.653
24132WAT     H172638   3.452   8.737   3.574
24132WAT     H272639   3.527   8.868   3.637
24133WAT      O72640   4.179   5.659   1.400
24133WAT     H172641   4.209   5.579   1.452
24133WAT     H272642   4.258   5.707   1.364
24134WAT      O72643   0.274   0.301   5.305
24134WAT     H172644   0.251   0.382   5.251
24134WAT     H272645   0.215   0.296   5.385
24135WAT      O72646   4.581   7.557   3.043
24135WAT     H172647   4.661   7.520   2.997
24135WAT     H272648   4.559   7.500   3.122
24136WAT      O72649   2.785   3.087   8.800
24136WAT     H172650   2.789   3.109   8.898
24136WAT     H272651   2.809   2.990   8.787
24137WAT      O72652   6.433   1.025   7.009
24137WAT     H172653   6.410   1.083   7.087
24137WAT     H272654   6.496   1.074   6.948
24138WAT      O72655   9.701   1.069   6.127
24138WAT     H172656   9.790   1.109   6.150
24138WAT     H272657   9.706   0.970   6.140
24139WAT      O72658   9.761   5.677   9.463
24139WAT     H172659   9.826   5.719   9.400
24139WAT     H272660   9.669   5.683   9.425
24140WAT      O72661   4.295   0.584   7.344
24140WAT     H172662   4.236   0.567   7.423
24140WAT     H272663   4.361   0.655   7.367
24141WAT      O72664   9.210   1.040   6.088
24141WAT     H172665   9.240   0.958   6.038
24141WAT     H272666   9.115   1.028   6.117
24142WAT      O72667   6.232   7.951   4.054
24142WAT     H172668   6.297   7.962   4.129
24142WAT     H272669   6.225   7.855   4.029
24143WAT      O72670   9.851   4.489   6.415
24143WAT     H172671   9.818   4.548   6.341
24143WAT     H272672   9.929   4.437   6.382
24144WAT      O72673   6.522   1.295   8.428
24144WAT     H172674   6.542   1.259   8.519
24144WAT     H272675   6.505   1.394   8.434
24145WAT      O72676   0.102   7.676   7.305
24145WAT     H172677   0.201   7.666   7.319
24145WAT     H272678   0.076   7.628   7.221
24146WAT      O72679   7.340   5.324   3.584
24146WAT     H172680   7.294   5.379   3.515
24146WAT     H272681   7.433   5.304   3.555
24147WAT      O72682   5.603   1.202   0.673
24147WAT     H172683   5.552   1.134   0.621
24147WAT     H272684   5.562   1.213   0.763
24148WAT      O72685   9.627   9.357   0.185
24148WAT     H172686   9.723   9.360   0.158
24148WAT     H272687   9.608   9.269   0.230
24149WAT      O72688   3.384   0.416   2.376
24149WAT     H172689   3.397   0.319   2.355
24149WAT     H272690   3.375   0.468   2.291
24150WAT      O72691   2.429   8.351   9.815
24150WAT     H172692   2.521   8.342   9.777
24150WAT     H272693   2.414   8.280   9.884
24151WAT      O72694   2.029   5.100   6.053
24151WAT     H172695   2.098   5.133   5.989
24151WAT     H272696   1.948   5.070   6.003
24152WAT      O72697   2.206   0.157   0.092
24152WAT     H172698   2.210   0.240   0.146
24152WAT     H272699   2.293   0.143   0.045
24153WAT      O72700   0.826   0.410   0.512
24153WAT     H172701   0.888   0.444   0.441
24153WAT     H272702   0.741   0.378   0.470
24154WAT      O72703   9.865   5.828   1.524
24154WAT     H172704   9.938   5.871   1.472
24154WAT     H272705   9.903   5.756   1.583
24155WAT      O72706   7.882   9.814   9.419
24155WAT     H172707   7.955   9.753   9.449
24155WAT     H272708   7.858   9.793   9.324
24156WAT      O72709   5.755   4.619   6.636
24156WAT     H172710   5.793   4.680   6.705
24156WAT     H272711   5.656   4.635   6.628
24157WAT      O72712   4.687   3.022   9.763
24157WAT     H172713   4.636   3.094   9.716
24157WAT     H272714   4.753   3.063   9.826
24158WAT      O72715   0.680   6.519   6.647
24158WAT     H172716   0.683   6.498   6.549
24158WAT     H272717   0.629   6.603   6.662
24159WAT      O72718   7.614   5.261   0.547
24159WAT     H172719   7.576   5.170   0.533
24159WAT     H272720   7.554   5.329   0.503
24160WAT      O72721   0.586   1.817   7.482
24160WAT     H172722   0.652   1.880   7.441
24160WAT     H272723   0.604   1.724   7.451
24161WAT      O72724   6.022   5.344   2.257
24161WAT     H172725   6.070   5.429   2.278
24161WAT     H272726   6.009   5.291   2.340
24162WAT      O72727   6.449   7.171   7.098
24162WAT     H172728   6.356   7.146   7.126
24162WAT     H272729   6.513   7.147   7.171
24163WAT      O72730   0.151   1.057   2.985
24163WAT     H172731   0.211   1.083   2.909
24163WAT     H272732   0.137   1.136   3.044
24164WAT      O72733   8.737   1.488   9.781
24164WAT     H172734   8.799   1.485   9.860
24164WAT     H272735   8.746   1.403   9.728
24165WAT      O72736   0.760   4.542   3.456
24165WAT     H172737   0.770   4.600   3.537
24165WAT     H272738   0.842   4.548   3.399
24166WAT      O72739   1.358   0.875   6.633
24166WAT     H172740   1.374   0.933   6.713
24166WAT     H272741   1.379   0.780   6.656
24167WAT      O72742   1.995   8.244   5.074
24167WAT     H172743   1.897   8.247   5.093
24167WAT     H272744   2.046   8.243   5.160
24168WAT      O72745   7.942   6.560   0.570
24168WAT     H172746   7.969   6.539   0.664
24168WAT     H272747   7.876   6.635   0.571
24169WAT      O72748   5.396   5.319   4.549
24169WAT     H172749   5.408   5.247   4.481
24169WAT     H272750   5.316   5.374   4.526
24170WAT      O72751   3.645   6.180   4.847
24170WAT     H172752   3.658   6.112   4.775
24170WAT     H272753   3.573   6.244   4.820
24171WAT      O72754   1.162   1.209   0.136
24171WAT     H172755   1.122   1.133   0.084
24171WAT     H272756   1.218   1.265   0.075
24172WAT      O72757   5.975   0.322   7.417
24172WAT     H172758   5.880   0.311   7.387
24172WAT     H272759   6.036   0.292   7.343
24173WAT      O72760   8.211   3.845   3.852
24173WAT     H172761   8.165   3.929   3.823
24173WAT     H272762   8.277   3.867   3.925
24174WAT      O72763   5.406   7.281   1.786
24174WAT     H172764   5.493   7.314   1.822
24174WAT     H272765   5.375   7.202   1.839
24175WAT      O72766   0.930   1.788   2.992
24175WAT     H172767   0.919   1.784   3.091
24175WAT     H272768   1.025   1.765   2.968
24176WAT      O72769   3.641   8.199   6.973
24176WAT     H172770   3.691   8.118   7.005
24176WAT     H272771   3.563   8.215   7.034
24177WAT      O72772   8.905   9.072   4.502
24177WAT     H172773   8.967   9.149   4.519
24177WAT     H272774   8.898   9.055   4.404
24178WAT      O72775   8.510   1.561   9.364
24178WAT     H172776   8.448   1.554   9.443
24178WAT     H272777   8.551   1.652   9.363
24179WAT      O72778   8.142   1.089   0.960
24179WAT     H172779   8.230   1.042   0.952
24179WAT     H272780   8.070   1.035   0.916
24180WAT      O72781   3.483   9.410   8.836
24180WAT     H172782   3.505   9.488   8.777
24180WAT     H272783   3.503   9.433   8.931
24181WAT      O72784   9.632   8.053   0.276
24181WAT     H172785   9.545   8.036   0.322
24181WAT     H272786   9.705   8.005   0.323
24182WAT      O72787   0.387   8.224   6.455
24182WAT     H172788   0.447   8.153   6.490
24182WAT     H272789   0.294   8.188   6.446
24183WAT      O72790   3.604   3.812   9.722
24183WAT     H172791   3.585   3.851   9.812
24183WAT     H272792   3.547   3.730   9.709
24184WAT      O72793   5.887   7.131   0.910
24184WAT     H172794   5.804   7.101   0.863
24184WAT     H272795   5.939   7.192   0.851
24185WAT      O72796   2.124   6.336   4.204
24185WAT     H172797   2.084   6.366   4.118
24185WAT     H272798   2.172   6.413   4.247
24186WAT      O72799   6.264   8.023   0.019
24186WAT     H172800   6.286   8.119   0.005
24186WAT     H272801   6.173   8.004  -0.017
24187WAT      O72802   0.768   4.152   3.575
24187WAT     H172803   0.709   4.231   3.591
24187WAT     H272804   0.847   4.156   3.637
24188WAT      O72805   5.489   9.377   8.141
24188WAT     H172806   5.521   9.312   8.210
24188WAT     H272807   5.540   9.463   8.150
24189WAT      O72808   9.598   6.848   5.347
24189WAT     H172809   9.631   6.807   5.262
24189WAT     H272810   9.498   6.842   5.350
24190WAT      O72811   4.445   1.333   4.447
24190WAT     H172812   4.470   1.245   4.408
24190WAT     H272813   4.458   1.331   4.546
24191WAT      O72814   1.198   5.834   2.965
24191WAT     H172815   1.142   5.773   2.910
24191WAT     H272816   1.171   5.929   2.948
24192WAT      O72817   9.321   3.772   2.977
24192WAT     H172818   9.226   3.763   3.008
24192WAT     H272819   9.340   3.867   2.953
24193WAT      O72820   2.515   0.571   0.878
24193WAT     H172821   2.553   0.608   0.794
24193WAT     H272822   2.518   0.641   0.950
24194WAT      O72823   6.909   0.896   0.934
24194WAT     H172824   6.987   0.937   0.887
24194WAT     H272825   6.849   0.968   0.967
24195WAT      O72826   9.294   0.014   5.613
24195WAT     H172827   9.353  -0.056   5.653
24195WAT     H272828   9.239  -0.025   5.540
24196WAT      O72829   7.745   8.165   0.500
24196WAT     H172830   7.807   8.176   0.577
24196WAT     H272831   7.675   8.097   0.522
24197WAT      O72832   7.410   2.911   5.211
24197WAT     H172833   7.358   2.855   5.275
24197WAT     H272834   7.391   2.881   5.117
24198WAT      O72835   2.242   7.766   4.986
24198WAT     H172836   2.324   7.752   5.041
24198WAT     H272837   2.192   7.846   5.020
24199WAT      O72838   4.065   2.061   1.287
24199WAT     H172839   4.094   2.099   1.200
24199WAT     H272840   3.967   2.040   1.283
24200WAT      O72841   9.738   1.176   9.150
24200WAT     H172842   9.786   1.091   9.127
24200WAT     H272843   9.689   1.164   9.236
24201WAT      O72844   5.668   6.931   8.378
24201WAT     H172845   5.591   6.868   8.370
24201WAT     H272846   5.644   7.019   8.338
24202WAT      O72847   0.700   7.853   7.833
24202WAT     H172848   0.797   7.852   7.855
24202WAT     H272849   0.664   7.759   7.839
24203WAT      O72850   8.806   4.110   9.744
24203WAT     H172851   8.722   4.161   9.728
24203WAT     H272852   8.787   4.034   9.807
24204WAT      O72853   2.445   0.952   4.541
24204WAT     H172854   2.486   0.877   4.489
24204WAT     H272855   2.367   0.988   4.490
24205WAT      O72856   1.010   8.824   8.061
24205WAT     H172857   0.997   8.887   7.985
24205WAT     H272858   1.103   8.787   8.058
24206WAT      O72859   0.423   1.053   3.290
24206WAT     H172860   0.462   1.142   3.311
24206WAT     H272861   0.333   1.044   3.333
24207WAT      O72862   4.270   0.851   3.508
24207WAT     H172863   4.336   0.926   3.502
24207WAT     H272864   4.232   0.832   3.418
24208WAT      O72865   7.818   0.651   1.266
24208WAT     H172866   7.726   0.618   1.248
24208WAT     H272867   7.849   0.619   1.356
24209WAT      O72868   1.275   3.669   4.377
24209WAT     H172869   1.175   3.664   4.371
24209WAT     H272870   1.315   3.587   4.336
24210WAT      O72871   9.420   4.658   7.528
24210WAT     H172872   9.440   4.724   7.455
24210WAT     H272873   9.343   4.692   7.583
24211WAT      O72874   7.105   9.318   6.546
24211WAT     H172875   7.025   9.330   6.605
24211WAT     H272876   7.082   9.256   6.471
24212WAT      O72877   0.880   0.229   6.919
24212WAT     H172878   0.785   0.244   6.945
24212WAT     H272879   0.923   0.318   6.899
24213WAT      O72880   1.707   2.293   4.048
24213WAT     H172881   1.780   2.225   4.037
24213WAT     H272882   1.714   2.336   4.138
24214WAT      O72883   2.410   4.400   3.815
24214WAT     H172884   2.315   4.370   3.804
24214WAT     H272885   2.418   4.497   3.792
24215WAT      O72886   4.108   0.554   3.227
24215WAT     H172887   4.076   0.649   3.229
24215WAT     H272888   4.076   0.506   3.309
24216WAT      O72889   0.946   8.865   3.996
24216WAT     H172890   1.012   8.795   3.970
24216WAT     H272891   0.986   8.924   4.067
24217WAT      O72892   7.071   6.269   7.371
24217WAT     H172893   7.105   6.330   7.299
24217WAT     H272894   6.984   6.229   7.342
24218WAT      O72895   1.496   0.910   7.628
24218WAT     H172896   1.582   0.940   7.586
24218WAT     H272897   1.441   0.990   7.651
24219WAT      O72898   4.141   9.376   5.757
24219WAT     H172899   4.068   9.358   5.692
24219WAT     H272900   4.185   9.463   5.736
24220WAT      O72901   1.384   8.398   2.027
24220WAT     H172902   1.296   8.384   1.981
24220WAT     H272903   1.369   8.445   2.114
24221WAT      O72904   1.781   0.620   2.853
24221WAT     H172905   1.764   0.718   2.867
24221WAT     H272906   1.721   0.586   2.780
24222WAT      O72907   5.268   0.994   2.040
24222WAT     H172908   5.351   0.942   2.021
24222WAT     H272909   5.192   0.957   1.987
24223WAT      O72910   2.456   7.723   5.135
24223WAT     H172911   2.477   7.739   5.232
24223WAT     H272912   2.450   7.625   5.118
24224WAT      O72913   1.704   4.395   6.616
24224WAT     H172914   1.746   4.419   6.529
24224WAT     H272915   1.760   4.326   6.662
24225WAT      O72916   0.553   9.045   2.232
24225WAT     H172917   0.609   8.966   2.208
24225WAT     H272918   0.511   9.082   2.149
24226WAT      O72919   0.609   0.530   9.604
24226WAT     H172920   0.654   0.592   9.668
24226WAT     H272921   0.657   0.442   9.604
24227WAT      O72922   1.190   5.106   6.380
24227WAT     H172923   1.273   5.068   6.421
24227WAT     H272924   1.158   5.183   6.436
24228WAT      O72925   4.877   8.388   7.072
24228WAT     H172926   4.864   8.291   7.093
24228WAT     H272927   4.950   8.399   7.005
24229WAT      O72928   5.392   0.073   1.150
24229WAT     H172929   5.375  -0.024   1.136
24229WAT     H272930   5.446   0.109   1.074
24230WAT      O72931   2.484   9.160   9.339
24230WAT     H172932   2.577   9.177   9.305
24230WAT     H272933   2.434   9.106   9.272
24231WAT      O72934   5.775   4.641   1.445
24231WAT     H172935   5.761   4.658   1.348
24231WAT     H272936   5.757   4.724   1.497
24232WAT      O72937   0.013   1.462   0.149
24232WAT     H172938  -0.008   1.391   0.081
24232WAT     H272939  -0.062   1.469   0.214
24233WAT      O72940   9.181   9.146   8.345
24233WAT     H172941   9.148   9.058   8.377
24233WAT     H272942   9.265   9.170   8.393
24234WAT      O72943   5.094   8.635   6.594
24234WAT     H172944   5.130   8.726   6.616
24234WAT     H272945   5.164   8.566   6.613
24235WAT      O72946   2.813   2.097   4.665
24235WAT     H172947   2.785   2.108   4.569
24235WAT     H272948   2.738   2.057   4.717
24236WAT      O72949   6.335   6.064   1.750
24236WAT     H172950   6.430   6.033   1.742
24236WAT     H272951   6.275   5.985   1.758
24237WAT      O72952   8.182   9.297   2.648
24237WAT     H172953   8.107   9.363   2.656
24237WAT     H272954   8.265   9.336   2.687
24238WAT      O72955   3.429   7.239   2.536
24238WAT     H172956   3.437   7.318   2.475
24238WAT     H272957   3.354   7.254   2.600
24239WAT      O72958   6.030   8.277   9.573
24239WAT     H172959   6.107   8.237   9.524
24239WAT     H272960   6.005   8.365   9.532
24240WAT      O72961   9.364   2.467   2.880
24240WAT     H172962   9.447   2.417   2.855
24240WAT     H272963   9.305   2.408   2.936
24241WAT      O72964   5.287   6.148   3.246
24241WAT     H172965   5.226   6.070   3.238
24241WAT     H272966   5.362   6.139   3.181
24242WAT      O72967   2.804   2.517   6.996
24242WAT     H172968   2.792   2.612   7.026
24242WAT     H272969   2.715   2.480   6.969
24243WAT      O72970   9.639   0.857   8.914
24243WAT     H172971   9.619   0.909   8.831
24243WAT     H272972   9.554   0.827   8.956
24244WAT      O72973   4.545   4.600   0.466
24244WAT     H172974   4.535   4.699   0.471
24244WAT     H272975   4.540   4.571   0.370
24245WAT      O72976   7.882   6.109   6.591
24245WAT     H172977   7.865   6.207   6.593
24245WAT     H272978   7.815   6.062   6.649
24246WAT      O72979   5.953   5.969   0.233
24246WAT     H172980   5.899   6.052   0.216
24246WAT     H272981   6.038   5.993   0.280
24247WAT      O72982   6.501   5.924   0.893
24247WAT     H172983   6.536   5.876   0.812
24247WAT     H272984   6.428   5.869   0.935
24248WAT      O72985   6.543   8.056   3.521
24248WAT     H172986   6.587   8.128   3.574
24248WAT     H272987   6.538   8.082   3.425
24249WAT      O72988   3.037   5.908   2.449
24249WAT     H172989   2.947   5.877   2.481
24249WAT     H272990   3.031   6.005   2.424
24250WAT      O72991   1.651   9.188   9.195
24250WAT     H172992   1.553   9.169   9.202
24250WAT     H272993   1.685   9.159   9.106
24251WAT      O72994   6.481   0.393   1.689
24251WAT     H172995   6.472   0.414   1.592
24251WAT     H272996   6.574   0.415   1.720
24252WAT      O72997   3.320   3.771   4.897
24252WAT     H172998   3.315   3.752   4.995
24252WAT     H272999   3.231   3.802   4.864
24253WAT      O73000   4.285   7.335   8.712
24253WAT     H173001   4.188   7.355   8.703
24253WAT     H273002   4.320   7.375   8.797
24254WAT      O73003   1.716   2.522   8.739
24254WAT     H173004   1.743   2.461   8.665
24254WAT     H273005   1.673   2.604   8.701
24255WAT      O73006   3.472   3.008   1.221
24255WAT     H173007   3.413   3.033   1.298
24255WAT     H273008   3.544   2.946   1.252
24256WAT      O73009   9.087   8.448   0.334
24256WAT     H173010   9.090   8.547   0.323
24256WAT     H273011   9.169   8.408   0.293
24257WAT      O73012   5.162   8.657   7.046
24257WAT     H173013   5.215   8.619   7.123
24257WAT     H273014   5.178   8.602   6.965
24258WAT      O73015   8.482   3.690   2.084
24258WAT     H173016   8.570   3.691   2.130
24258WAT     H273017   8.496   3.689   1.985
24259WAT      O73018   9.237   1.247   2.321
24259WAT     H173019   9.311   1.193   2.362
24259WAT     H273020   9.222   1.329   2.376
24260WAT      O73021   4.967   7.368   7.049
24260WAT     H173022   5.057   7.389   7.012
24260WAT     H273023   4.915   7.453   7.060
24261WAT      O73024   9.536   8.199   5.023
24261WAT     H173025   9.628   8.195   5.062
24261WAT     H273026   9.473   8.241   5.088
24262WAT      O73027   0.512   7.543   2.718
24262WAT     H173028   0.546   7.459   2.761
24262WAT     H273029   0.481   7.523   2.625
24263WAT      O73030   1.882   9.218   2.120
24263WAT     H173031   1.843   9.250   2.034
24263WAT     H273032   1.819   9.155   2.164
24264WAT      O73033   5.302   0.988   2.328
24264WAT     H173034   5.274   0.987   2.232
24264WAT     H273035   5.383   0.930   2.339
24265WAT      O73036   5.982   5.597   7.743
24265WAT     H173037   6.073   5.558   7.726
24265WAT     H273038   5.950   5.569   7.833
24266WAT      O73039   3.865   6.167   8.380
24266WAT     H173040   3.775   6.146   8.418
24266WAT     H273041   3.931   6.100   8.412
24267WAT      O73042   7.217   3.372   6.571
24267WAT     H173043   7.192   3.444   6.637
24267WAT     H273044   7.275   3.305   6.617
24268WAT      O73045   1.953   1.916   3.533
24268WAT     H173046   1.977   1.864   3.451
24268WAT     H273047   2.033   1.922   3.594
24269WAT      O73048   1.321   2.888   6.070
24269WAT     H173049   1.421   2.896   6.065
24269WAT     H273050   1.297   2.793   6.088
24270WAT      O73051   6.685   9.088   0.498
24270WAT     H173052   6.643   9.101   0.408
24270WAT     H273053   6.740   9.005   0.497
24271WAT      O73054   5.895   1.225   8.118
24271WAT     H173055   5.883   1.146   8.178
24271WAT     H273056   5.809   1.245   8.071
24272WAT      O73057   2.474   3.953   1.369
24272WAT     H173058   2.399   3.904   1.414
24272WAT     H273059   2.561   3.908   1.390
24273WAT      O73060   4.084   5.176   0.115
24273WAT     H173061   4.138   5.134   0.042
24273WAT     H273062   4.144   5.196   0.192
24274WAT      O73063   1.749   4.229   0.539
24274WAT     H173064   1.650   4.224   0.528
24274WAT     H273065   1.776   4.184   0.624
24275WAT      O73066   9.478   9.097   3.744
24275WAT     H173067   9.567   9.064   3.775
24275WAT     H273068   9.490   9.157   3.665
24276WAT      O73069   6.124   2.574   4.459
24276WAT     H173070   6.110   2.669   4.431
24276WAT     H273071   6.062   2.515   4.407
24277WAT      O73072   7.202   9.353   3.821
24277WAT     H173073   7.177   9.376   3.915
24277WAT     H273074   7.183   9.257   3.804
24278WAT      O73075   7.587   0.001   2.962
24278WAT     H173076   7.519  -0.071   2.958
24278WAT     H273077   7.566   0.063   3.038
24279WAT      O73078   5.989   9.304   0.759
24279WAT     H173079   6.022   9.272   0.670
24279WAT     H273080   5.921   9.376   0.745
24280WAT      O73081   4.458   6.940   1.065
24280WAT     H173082   4.515   6.931   1.146
24280WAT     H273083   4.462   7.033   1.030
24281WAT      O73084   9.618   3.598   5.882
24281WAT     H173085   9.650   3.524   5.942
24281WAT     H273086   9.604   3.562   5.790
24282WAT      O73087   3.806   2.143   2.120
24282WAT     H173088   3.723   2.195   2.139
24282WAT     H273089   3.812   2.065   2.182
24283WAT      O73090   3.236   2.473   6.157
24283WAT     H173091   3.163   2.473   6.226
24283WAT     H273092   3.255   2.566   6.127
24284WAT      O73093   5.486   3.907   8.051
24284WAT     H173094   5.519   4.001   8.065
24284WAT     H273095   5.563   3.847   8.030
24285WAT      O73096   7.206   2.397   3.196
24285WAT     H173097   7.194   2.448   3.111
24285WAT     H273098   7.225   2.460   3.270
24286WAT      O73099   3.293   2.032   5.630
24286WAT     H173100   3.299   1.949   5.575
24286WAT     H273101   3.304   2.112   5.571
24287WAT      O73102   9.801   7.967   1.916
24287WAT     H173103   9.772   7.886   1.866
24287WAT     H273104   9.898   7.983   1.902
24288WAT      O73105   0.699   0.303   4.600
24288WAT     H173106   0.653   0.249   4.530
24288WAT     H273107   0.729   0.243   4.674
24289WAT      O73108   5.971   6.339   4.257
24289WAT     H173109   5.969   6.281   4.175
24289WAT     H273110   6.056   6.324   4.307
24290WAT      O73111   3.819   2.519   0.200
24290WAT     H173112   3.847   2.613   0.182
24290WAT     H273113   3.793   2.509   0.296
24291WAT      O73114   8.111   5.945   9.543
24291WAT     H173115   8.114   5.870   9.610
24291WAT     H273116   8.074   6.027   9.587
24292WAT      O73117   7.629   3.444   8.683
24292WAT     H173118   7.553   3.382   8.664
24292WAT     H273119   7.715   3.401   8.656
24293WAT      O73120   4.999   1.857   5.943
24293WAT     H173121   5.053   1.937   5.917
24293WAT     H273122   5.056   1.775   5.932
24294WAT      O73123   6.992   3.981   3.463
24294WAT     H173124   6.892   3.982   3.469
24294WAT     H273125   7.020   3.924   3.386
24295WAT      O73126   7.802   4.703   9.875
24295WAT     H173127   7.835   4.678   9.784
24295WAT     H273128   7.801   4.621   9.933
24296WAT      O73129   5.713   1.369   0.048
24296WAT     H173130   5.706   1.379  -0.052
24296WAT     H273131   5.767   1.443   0.085
24297WAT      O73132   8.676   2.423   1.696
24297WAT     H173133   8.709   2.329   1.688
24297WAT     H273134   8.585   2.422   1.738
24298WAT      O73135   5.551   1.954   6.263
24298WAT     H173136   5.489   2.017   6.310
24298WAT     H273137   5.500   1.901   6.195
24299WAT      O73138   3.925   3.165   4.017
24299WAT     H173139   3.883   3.125   4.098
24299WAT     H273140   4.011   3.210   4.042
24300WAT      O73141   3.892   6.529   2.855
24300WAT     H173142   3.868   6.521   2.952
24300WAT     H273143   3.842   6.605   2.814
24301WAT      O73144   2.411   4.026   6.360
24301WAT     H173145   2.387   4.106   6.306
24301WAT     H273146   2.345   4.014   6.434
24302WAT      O73147   5.056   1.397   4.006
24302WAT     H173148   5.041   1.467   3.936
24302WAT     H273149   5.144   1.352   3.989
24303WAT      O73150   7.392   1.586   0.913
24303WAT     H173151   7.294   1.604   0.923
24303WAT     H273152   7.406   1.507   0.854
24304WAT      O73153   6.053   0.840   4.714
24304WAT     H173154   6.060   0.749   4.753
24304WAT     H273155   5.963   0.851   4.671
24305WAT      O73156   5.689   7.725   2.750
24305WAT     H173157   5.723   7.790   2.682
24305WAT     H273158   5.602   7.686   2.717
24306WAT      O73159   5.468   2.951   3.595
24306WAT     H173160   5.508   2.935   3.686
24306WAT     H273161   5.372   2.923   3.596
24307WAT      O73162   0.532   0.025   8.652
24307WAT     H173163   0.614   0.061   8.697
24307WAT     H273164   0.451   0.072   8.687
24308WAT      O73165   2.601   4.328   3.441
24308WAT     H173166   2.618   4.234   3.470
24308WAT     H273167   2.579   4.329   3.343
24309WAT      O73168   5.679   5.593   2.700
24309WAT     H173169   5.677   5.684   2.658
24309WAT     H273170   5.695   5.525   2.629
24310WAT      O73171   5.468   1.929   1.744
24310WAT     H173172   5.498   1.887   1.659
24310WAT     H273173   5.475   1.863   1.819
24311WAT      O73174   8.100   6.820   8.220
24311WAT     H173175   8.198   6.800   8.210
24311WAT     H273176   8.058   6.827   8.130
24312WAT      O73177   4.637   1.047   1.596
24312WAT     H173178   4.706   1.085   1.657
24312WAT     H273179   4.573   0.991   1.649
24313WAT      O73180   1.120   2.157   7.629
24313WAT     H173181   1.213   2.133   7.658
24313WAT     H273182   1.117   2.167   7.530
24314WAT      O73183   2.994   4.589   1.723
24314WAT     H173184   2.909   4.632   1.693
24314WAT     H273185   3.048   4.654   1.776
24315WAT      O73186   4.853   8.901   5.704
24315WAT     H173187   4.902   8.824   5.664
24315WAT     H273188   4.765   8.870   5.739
24316WAT      O73189   0.832   3.565   7.151
24316WAT     H173190   0.895   3.521   7.216
24316WAT     H273191   0.761   3.501   7.124
24317WAT      O73192   1.785   5.699   0.294
24317WAT     H173193   1.813   5.604   0.284
24317WAT     H273194   1.747   5.732   0.208
24318WAT      O73195   6.631   4.912   2.469
24318WAT     H173196   6.677   4.978   2.528
24318WAT     H273197   6.550   4.876   2.515
24319WAT      O73198   3.162   8.137   6.351
24319WAT     H173199   3.067   8.149   6.380
24319WAT     H273200   3.213   8.089   6.422
24320WAT      O73201   2.381   1.396   6.239
24320WAT     H173202   2.404   1.321   6.301
24320WAT     H273203   2.282   1.410   6.240
24321WAT      O73204   2.874   4.217   9.370
24321WAT     H173205   2.930   4.173   9.300
24321WAT     H273206   2.778   4.196   9.355
24322WAT      O73207   2.476   8.924   8.811
24322WAT     H173208   2.386   8.920   8.855
24322WAT     H273209   2.496   9.019   8.785
24323WAT      O73210   2.794   8.932   6.050
24323WAT     H173211   2.696   8.926   6.066
24323WAT     H273212   2.833   8.840   6.048
24324WAT      O73213   6.900   0.651   1.055
24324WAT     H173214   6.805   0.630   1.032
24324WAT     H273215   6.920   0.746   1.030
24325WAT      O73216   0.351   3.065   0.661
24325WAT     H173217   0.437   3.016   0.662
24325WAT     H273218   0.312   3.063   0.569
24326WAT      O73219   5.084   5.247   0.386
24326WAT     H173220   5.032   5.253   0.301
24326WAT     H273221   5.137   5.331   0.399
24327WAT      O73222   2.155   0.872   8.138
24327WAT     H173223   2.115   0.823   8.061
24327WAT     H273224   2.186   0.806   8.207
24328WAT      O73225   8.627   4.014   7.421
24328WAT     H173226   8.708   4.073   7.417
24328WAT     H273227   8.655   3.922   7.449
24329WAT      O73228   8.368   1.709   1.875
24329WAT     H173229   8.290   1.723   1.935
24329WAT     H273230   8.337   1.671   1.788
24330WAT      O73231   3.247   2.030   8.699
24330WAT     H173232   3.309   2.015   8.622
24330WAT     H273233   3.223   2.128   8.704
24331WAT      O73234   4.306   4.724   9.096
24331WAT     H173235   4.241   4.799   9.111
24331WAT     H273236   4.259   4.648   9.050
24332WAT      O73237   0.941   8.632   2.798
24332WAT     H173238   0.852   8.631   2.753
24332WAT     H273239   1.004   8.574   2.748
24333WAT      O73240   5.945   8.300   1.509
24333WAT     H173241   5.960   8.273   1.414
24333WAT     H273242   6.028   8.342   1.546
24334WAT      O73243   3.781   6.193   9.366
24334WAT     H173244   3.861   6.232   9.320
24334WAT     H273245   3.769   6.098   9.338
24335WAT      O73246   5.982   6.618   6.536
24335WAT     H173247   6.003   6.550   6.465
24335WAT     H273248   6.002   6.710   6.502
24336WAT      O73249   8.119   4.603   2.573
24336WAT     H173250   8.038   4.598   2.516
24336WAT     H273251   8.165   4.691   2.560
24337WAT      O73252   5.790   4.628   5.342
24337WAT     H173253   5.744   4.695   5.400
24337WAT     H273254   5.746   4.626   5.252
24338WAT      O73255   0.342   3.722   1.461
24338WAT     H173256   0.385   3.634   1.478
24338WAT     H273257   0.412   3.793   1.453
24339WAT      O73258   6.206   2.735   9.104
24339WAT     H173259   6.277   2.804   9.116
24339WAT     H273260   6.248   2.645   9.087
24340WAT      O73261   0.212   7.578   0.250
24340WAT     H173262   0.199   7.486   0.214
24340WAT     H273263   0.310   7.601   0.248
24341WAT      O73264   5.668   0.455   5.655
24341WAT     H173265   5.715   0.473   5.568
24341WAT     H273266   5.629   0.362   5.653
24342WAT      O73267   8.557   7.450   0.834
24342WAT     H173268   8.510   7.521   0.781
24342WAT     H273269   8.490   7.400   0.889
24343WAT      O73270   7.429   7.752   0.794
24343WAT     H173271   7.439   7.655   0.817
24343WAT     H273272   7.516   7.799   0.810
24344WAT      O73273   5.978   2.760   9.243
24344WAT     H173274   5.986   2.799   9.335
24344WAT     H273275   6.067   2.766   9.197
24345WAT      O73276   8.962   3.746   5.418
24345WAT     H173277   8.953   3.808   5.340
24345WAT     H273278   8.880   3.689   5.425
24346WAT      O73279   8.576   6.253   6.491
24346WAT     H173280   8.580   6.284   6.586
24346WAT     H273281   8.616   6.161   6.484
24347WAT      O73282   2.907   1.060   5.822
24347WAT     H173283   2.914   0.963   5.801
24347WAT     H273284   2.853   1.073   5.905
24348WAT      O73285   1.684   6.441   9.424
24348WAT     H173286   1.725   6.357   9.459
24348WAT     H273287   1.587   6.425   9.406
24349WAT      O73288   0.354   1.694   7.553
24349WAT     H173289   0.329   1.718   7.647
24349WAT     H273290   0.432   1.751   7.524
24350WAT      O73291   1.915   4.565   4.024
24350WAT     H173292   1.939   4.644   3.969
24350WAT     H273293   1.997   4.528   4.068
24351WAT      O73294   3.538   7.909   6.613
24351WAT     H173295   3.525   7.816   6.648
24351WAT     H273296   3.469   7.970   6.652
24352WAT      O73297   2.114   1.075   6.379
24352WAT     H173298   2.079   0.981   6.379
24352WAT     H273299   2.088   1.120   6.465
24353WAT      O73300   1.676   1.252   0.790
24353WAT     H173301   1.631   1.178   0.740
24353WAT     H273302   1.609   1.302   0.844
24354WAT      O73303   0.585   6.257   4.949
24354WAT     H173304   0.577   6.201   5.031
24354WAT     H273305   0.605   6.351   4.974
24355WAT      O73306   5.313   6.269   7.194
24355WAT     H173307   5.378   6.344   7.207
24355WAT     H273308   5.353   6.201   7.132
24356WAT      O73309   0.683   3.117   1.714
24356WAT     H173310   0.769   3.094   1.760
24356WAT     H273311   0.629   3.034   1.700
24357WAT      O73312   1.630   9.725   7.321
24357WAT     H173313   1.694   9.676   7.261
24357WAT     H273314   1.643   9.695   7.415
24358WAT      O73315   7.296   5.910   0.998
24358WAT     H173316   7.256   5.828   1.041
24358WAT     H273317   7.375   5.884   0.944
24359WAT      O73318   9.550   3.512   6.622
24359WAT     H173319   9.456   3.537   6.644
24359WAT     H273320   9.610   3.532   6.700
24360WAT      O73321   3.479   0.617   7.186
24360WAT     H173322   3.423   0.536   7.205
24360WAT     H273323   3.576   0.592   7.186
24361WAT      O73324   9.178   2.988   0.642
24361WAT     H173325   9.208   3.005   0.548
24361WAT     H273326   9.233   2.916   0.683
24362WAT      O73327   8.353   8.926   0.746
24362WAT     H173328   8.409   8.865   0.690
24362WAT     H273329   8.329   8.879   0.831
24363WAT      O73330   9.564   2.544   4.023
24363WAT     H173331   9.635   2.476   4.007
24363WAT     H273332   9.488   2.529   3.959
24364WAT      O73333   3.904   0.043   1.032
24364WAT     H173334   3.809   0.028   1.059
24364WAT     H273335   3.962   0.042   1.112
24365WAT      O73336   8.928   4.755   7.485
24365WAT     H173337   8.900   4.806   7.566
24365WAT     H273338   8.895   4.801   7.403
24366WAT      O73339   9.187   2.127   3.627
24366WAT     H173340   9.112   2.062   3.637
24366WAT     H273341   9.250   2.117   3.703
24367WAT      O73342   1.500   0.060   1.241
24367WAT     H173343   1.554   0.060   1.325
24367WAT     H273344   1.543   0.120   1.174
24368WAT      O73345   2.294   6.445   1.612
24368WAT     H173346   2.328   6.438   1.518
24368WAT     H273347   2.317   6.362   1.662
24369WAT      O73348   5.568   7.949   5.971
24369WAT     H173349   5.589   8.009   5.894
24369WAT     H273350   5.470   7.935   5.976
24370WAT      O73351   8.417   7.091   2.336
24370WAT     H173352   8.364   7.122   2.257
24370WAT     H273353   8.514   7.092   2.313
24371WAT      O73354   9.712   7.902   7.034
24371WAT     H173355   9.719   7.851   7.119
24371WAT     H273356   9.803   7.908   6.991
24372WAT      O73357   6.693   9.197   1.254
24372WAT     H173358   6.774   9.176   1.309
24372WAT     H273359   6.643   9.112   1.235
24373WAT      O73360   7.628   6.211   9.241
24373WAT     H173361   7.725   6.223   9.263
24373WAT     H273362   7.613   6.118   9.209
24374WAT      O73363   7.839   7.467   9.711
24374WAT     H173364   7.773   7.435   9.778
24374WAT     H273365   7.868   7.561   9.734
24375WAT      O73366   6.801   0.566   8.059
24375WAT     H173367   6.835   0.624   7.985
24375WAT     H273368   6.787   0.473   8.024
24376WAT      O73369   3.647   1.394   7.464
24376WAT     H173370   3.636   1.441   7.376
24376WAT     H273371   3.607   1.451   7.537
24377WAT      O73372   2.009   3.202   1.969
24377WAT     H173373   1.914   3.174   1.958
24377WAT     H273374   2.015   3.301   1.976
24378WAT      O73375   7.709   5.423   4.047
24378WAT     H173376   7.675   5.486   3.978
24378WAT     H273377   7.666   5.333   4.035
24379WAT      O73378   4.747   8.232   8.275
24379WAT     H173379   4.730   8.170   8.352
24379WAT     H273380   4.833   8.280   8.290
24380WAT      O73381   2.832   0.408   4.312
24380WAT     H173382   2.829   0.384   4.215
24380WAT     H273383   2.741   0.399   4.352
24381WAT      O73384   6.931   2.686   9.845
24381WAT     H173385   7.022   2.655   9.818
24381WAT     H273386   6.927   2.786   9.843
24382WAT      O73387   1.663   8.029   3.524
24382WAT     H173388   1.597   8.004   3.595
24382WAT     H273389   1.694   8.123   3.540
24383WAT      O73390   6.657   6.626   7.887
24383WAT     H173391   6.603   6.543   7.895
24383WAT     H273392   6.751   6.607   7.916
24384WAT      O73393   6.067   5.315   1.997
24384WAT     H173394   6.048   5.301   2.094
24384WAT     H273395   6.119   5.237   1.961
24385WAT      O73396   0.772   5.122   5.632
24385WAT     H173397   0.774   5.107   5.731
24385WAT     H273398   0.678   5.137   5.602
24386WAT      O73399   7.835   3.987   9.311
24386WAT     H173400   7.891   3.962   9.232
24386WAT     H273401   7.875   4.069   9.354
24387WAT      O73402   1.927   5.985   0.536
24387WAT     H173403   1.934   6.066   0.594
24387WAT     H273404   2.018   5.963   0.499
24388WAT      O73405   2.481   1.709   6.560
24388WAT     H173406   2.578   1.730   6.545
24388WAT     H273407   2.430   1.724   6.475
24389WAT      O73408   7.189   8.322   0.737
24389WAT     H173409   7.223   8.266   0.813
24389WAT     H273410   7.091   8.308   0.727
24390WAT      O73411   7.137   4.052   7.201
24390WAT     H173412   7.185   3.965   7.188
24390WAT     H273413   7.200   4.121   7.236
24391WAT      O73414   0.844   1.754   6.500
24391WAT     H173415   0.843   1.854   6.493
24391WAT     H273416   0.925   1.725   6.551
24392WAT      O73417   0.263   4.212   3.531
24392WAT     H173418   0.178   4.205   3.582
24392WAT     H273419   0.265   4.299   3.481
24393WAT      O73420   2.007   2.706   1.731
24393WAT     H173421   2.097   2.688   1.690
24393WAT     H273422   1.999   2.654   1.816
24394WAT      O73423   1.326   3.575   7.534
24394WAT     H173424   1.289   3.551   7.445
24394WAT     H273425   1.253   3.568   7.603
24395WAT      O73426   6.091   0.977   3.564
24395WAT     H173427   6.176   1.005   3.520
24395WAT     H273428   6.107   0.959   3.661
24396WAT      O73429   7.834   8.027   7.694
24396WAT     H173430   7.738   8.016   7.722
24396WAT     H273431   7.893   7.980   7.759
24397WAT      O73432   0.308   6.005   6.072
24397WAT     H173433   0.241   5.999   5.998
24397WAT     H273434   0.388   6.055   6.040
24398WAT      O73435   0.003   7.209   9.399
24398WAT     H173436   0.047   7.169   9.479
24398WAT     H273437  -0.021   7.137   9.335
24399WAT      O73438   6.643   1.317   9.245
24399WAT     H173439   6.728   1.304   9.296
24399WAT     H273440   6.647   1.404   9.195
24400WAT      O73441   5.859   3.780   6.044
24400WAT     H173442   5.873   3.793   6.142
24400WAT     H273443   5.814   3.861   6.006
24401WAT      O73444   1.017   0.263   7.264
24401WAT     H173445   1.041   0.307   7.351
24401WAT     H273446   1.017   0.164   7.276
24402WAT      O73447   1.148   1.734   1.059
24402WAT     H173448   1.089   1.741   0.978
24402WAT     H273449   1.204   1.817   1.066
24403WAT      O73450   0.391   2.371   1.485
24403WAT     H173451   0.444   2.361   1.401
24403WAT     H273452   0.308   2.314   1.478
24404WAT      O73453   9.184   3.607   5.269
24404WAT     H173454   9.151   3.514   5.248
24404WAT     H273455   9.119   3.652   5.330
24405WAT      O73456   9.880   4.799   6.376
24405WAT     H173457   9.826   4.734   6.322
24405WAT     H273458   9.967   4.757   6.400
24406WAT      O73459   9.294   2.911   9.017
24406WAT     H173460   9.300   3.009   8.998
24406WAT     H273461   9.382   2.868   8.996
24407WAT      O73462   2.532   5.329   7.998
24407WAT     H173463   2.462   5.395   7.972
24407WAT     H273464   2.548   5.334   8.097
24408WAT      O73465   1.510   8.857   1.300
24408WAT     H173466   1.610   8.853   1.290
24408WAT     H273467   1.478   8.951   1.288
24409WAT      O73468   7.292   0.505   5.970
24409WAT     H173469   7.341   0.585   5.934
24409WAT     H273470   7.201   0.502   5.931
24410WAT      O73471   9.190   5.247   0.762
24410WAT     H173472   9.266   5.295   0.717
24410WAT     H273473   9.111   5.308   0.767
24411WAT      O73474   0.708   2.996   7.678
24411WAT     H173475   0.802   2.966   7.663
24411WAT     H273476   0.700   3.093   7.652
24412WAT      O73477   1.613   4.364   2.382
24412WAT     H173478   1.592   4.267   2.369
24412WAT     H273479   1.557   4.419   2.321
24413WAT      O73480   6.332   9.204   6.214
24413WAT     H173481   6.317   9.257   6.130
24413WAT     H273482   6.247   9.160   6.240
24414WAT      O73483   1.363   9.398   2.452
24414WAT     H173484   1.405   9.440   2.532
24414WAT     H273485   1.405   9.433   2.369
24415WAT      O73486   2.790   4.480   6.161
24415WAT     H173487   2.792   4.434   6.249
24415WAT     H273488   2.874   4.534   6.149
24416WAT      O73489   0.032   3.682   5.768
24416WAT     H173490   0.108   3.631   5.725
24416WAT     H273491  -0.046   3.621   5.781
24417WAT      O73492   8.226   0.498   0.353
24417WAT     H173493   8.312   0.546   0.334
24417WAT     H273494   8.150   0.560   0.337
24418WAT      O73495   6.599   7.455   9.809
24418WAT     H173496   6.676   7.519   9.804
24418WAT     H273497   6.583   7.429   9.904
24419WAT      O73498   2.847   8.462   1.200
24419WAT     H173499   2.929   8.437   1.148
24419WAT     H273500   2.803   8.379   1.235
24420WAT      O73501   0.816   5.277   6.627
24420WAT     H173502   0.730   5.311   6.665
24420WAT     H273503   0.803   5.183   6.594
24421WAT      O73504   3.631   8.428   3.732
24421WAT     H173505   3.559   8.360   3.747
24421WAT     H273506   3.620   8.503   3.797
24422WAT      O73507   8.406   1.415   0.372
24422WAT     H173508   8.329   1.382   0.317
24422WAT     H273509   8.469   1.466   0.314
24423WAT      O73510   5.743   6.157   9.720
24423WAT     H173511   5.765   6.231   9.784
24423WAT     H273512   5.688   6.194   9.645
24424WAT      O73513   8.671   2.530   5.978
24424WAT     H173514   8.634   2.601   5.918
24424WAT     H273515   8.658   2.441   5.936
24425WAT      O73516   5.648   2.693   8.147
24425WAT     H173517   5.697   2.764   8.199
24425WAT     H273518   5.571   2.659   8.202
24426WAT      O73519   1.026   6.424   9.012
24426WAT     H173520   1.121   6.427   8.981
24426WAT     H273521   1.024   6.394   9.108
24427WAT      O73522   5.012   0.065   5.367
24427WAT     H173523   4.992   0.039   5.273
24427WAT     H273524   4.942   0.027   5.428
24428WAT      O73525   8.828   5.576   8.873
24428WAT     H173526   8.832   5.674   8.896
24428WAT     H273527   8.744   5.536   8.911
24429WAT      O73528   0.468   1.087   9.325
24429WAT     H173529   0.427   1.004   9.289
24429WAT     H273530   0.446   1.164   9.265
24430WAT      O73531   3.236   0.457   4.246
24430WAT     H173532   3.195   0.516   4.177
24430WAT     H273533   3.170   0.386   4.273
24431WAT      O73534   2.000   4.398   5.058
24431WAT     H173535   2.087   4.446   5.070
24431WAT     H273536   2.017   4.303   5.034
24432WAT      O73537   6.946   5.968   0.868
24432WAT     H173538   7.003   6.023   0.929
24432WAT     H273539   6.996   5.885   0.841
24433WAT      O73540   0.869   1.413   4.183
24433WAT     H173541   0.895   1.447   4.273
24433WAT     H273542   0.790   1.352   4.192
24434WAT      O73543   5.669   3.991   9.699
24434WAT     H173544   5.765   3.970   9.677
24434WAT     H273545   5.653   4.089   9.688
24435WAT      O73546   5.787   5.036   5.416
24435WAT     H173547   5.802   5.115   5.476
24435WAT     H273548   5.873   5.008   5.375
24436WAT      O73549   1.172   4.999   9.585
24436WAT     H173550   1.239   4.977   9.655
24436WAT     H273551   1.118   4.917   9.564
24437WAT      O73552   9.104   2.105   7.485
24437WAT     H173553   9.050   2.182   7.451
24437WAT     H273554   9.053   2.058   7.558
24438WAT      O73555   6.236   3.198   4.417
24438WAT     H173556   6.288   3.225   4.336
24438WAT     H273557   6.291   3.134   4.471
24439WAT      O73558   9.645   5.621   3.400
24439WAT     H173559   9.660   5.522   3.407
24439WAT     H273560   9.553   5.638   3.365
24440WAT      O73561   6.712   8.101   5.459
24440WAT     H173562   6.624   8.140   5.487
24440WAT     H273563   6.770   8.089   5.539
24441WAT      O73564   8.876   7.027   1.963
24441WAT     H173565   8.907   7.018   2.058
24441WAT     H273566   8.796   6.968   1.949
24442WAT      O73567   0.067   8.586   0.370
24442WAT     H173568   0.024   8.556   0.456
24442WAT     H273569   0.161   8.553   0.367
24443WAT      O73570   6.751   1.055   9.435
24443WAT     H173571   6.789   1.064   9.527
24443WAT     H273572   6.825   1.051   9.368
24444WAT      O73573   0.734   1.306   4.778
24444WAT     H173574   0.798   1.229   4.785
24444WAT     H273575   0.723   1.332   4.682
24445WAT      O73576   9.227   6.106   6.420
24445WAT     H173577   9.292   6.033   6.444
24445WAT     H273578   9.248   6.188   6.473
24446WAT      O73579   0.430   3.821   8.774
24446WAT     H173580   0.500   3.752   8.757
24446WAT     H273581   0.397   3.857   8.686
24447WAT      O73582   3.765   7.267   9.272
24447WAT     H173583   3.799   7.211   9.196
24447WAT     H273584   3.840   7.321   9.310
24448WAT      O73585   3.297   2.161   3.397
24448WAT     H173586   3.300   2.241   3.456
24448WAT     H273587   3.204   2.126   3.392
24449WAT      O73588   1.122   6.893   3.001
24449WAT     H173589   1.024   6.889   3.020
24449WAT     H273590   1.173   6.893   3.087
24450WAT      O73591   7.726   5.836   4.785
24450WAT     H173592   7.743   5.929   4.818
24450WAT     H273593   7.671   5.840   4.702
24451WAT      O73594   7.974   8.077   6.715
24451WAT     H173595   7.886   8.034   6.736
24451WAT     H273596   7.966   8.176   6.729
24452WAT      O73597   0.946   3.001   0.615
24452WAT     H173598   0.895   2.998   0.529
24452WAT     H273599   0.891   2.960   0.688
24453WAT      O73600   9.631   7.159   8.601
24453WAT     H173601   9.594   7.126   8.514
24453WAT     H273602   9.556   7.189   8.659
24454WAT      O73603   1.080   8.119   0.466
24454WAT     H173604   1.173   8.085   0.482
24454WAT     H273605   1.056   8.104   0.370
24455WAT      O73606   9.219   8.645   0.033
24455WAT     H173607   9.201   8.656   0.131
24455WAT     H273608   9.298   8.701   0.008
24456WAT      O73609   9.497   1.693   2.753
24456WAT     H173610   9.562   1.768   2.764
24456WAT     H273611   9.440   1.710   2.673
24457WAT      O73612   1.582   1.898   7.177
24457WAT     H173613   1.646   1.825   7.200
24457WAT     H273614   1.491   1.860   7.165
24458WAT      O73615   7.525   3.230   9.455
24458WAT     H173616   7.534   3.242   9.554
24458WAT     H273617   7.457   3.295   9.419
24459WAT      O73618   7.814   2.187   4.069
24459WAT     H173619   7.865   2.120   4.016
24459WAT     H273620   7.856   2.278   4.059
24460WAT      O73621   7.626   3.430   2.939
24460WAT     H173622   7.631   3.376   3.023
24460WAT     H273623   7.530   3.449   2.918
24461WAT      O73624   2.558   4.220   7.092
24461WAT     H173625   2.601   4.130   7.103
24461WAT     H273626   2.486   4.230   7.160
24462WAT      O73627   8.613   7.580   6.834
24462WAT     H173628   8.624   7.657   6.770
24462WAT     H273629   8.537   7.599   6.896
24463WAT      O73630   7.370   5.508   1.644
24463WAT     H173631   7.292   5.476   1.590
24463WAT     H273632   7.351   5.495   1.741
24464WAT      O73633   7.344   2.168   3.982
24464WAT     H173634   7.435   2.168   4.022
24464WAT     H273635   7.322   2.259   3.947
24465WAT      O73636   2.480   4.216   1.413
24465WAT     H173637   2.481   4.118   1.391
24465WAT     H273638   2.394   4.240   1.456
24466WAT      O73639   4.248   8.961   5.983
24466WAT     H173640   4.162   9.005   6.009
24466WAT     H273641   4.315   8.974   6.056
24467WAT      O73642   8.325   6.252   3.384
24467WAT     H173643   8.278   6.167   3.357
24467WAT     H273644   8.405   6.265   3.326
24468WAT      O73645   6.353   9.451   4.785
24468WAT     H173646   6.448   9.480   4.799
24468WAT     H273647   6.348   9.386   4.709
24469WAT      O73648   2.728   5.446   2.671
24469WAT     H173649   2.765   5.471   2.581
24469WAT     H273650   2.631   5.469   2.675
24470WAT      O73651   9.492   4.958   2.511
24470WAT     H173652   9.578   4.990   2.471
24470WAT     H273653   9.450   5.033   2.562
24471WAT      O73654   0.120   5.093   6.360
24471WAT     H173655   0.178   5.052   6.430
24471WAT     H273656   0.044   5.031   6.339
24472WAT      O73657   3.517   3.332   6.839
24472WAT     H173658   3.481   3.266   6.774
24472WAT     H273659   3.591   3.385   6.796
24473WAT      O73660   7.028   3.047   8.954
24473WAT     H173661   7.069   2.964   8.917
24473WAT     H273662   7.022   3.040   9.053
24474WAT      O73663   0.443   1.717   1.097
24474WAT     H173664   0.443   1.618   1.079
24474WAT     H273665   0.385   1.763   1.031
24475WAT      O73666   5.517   6.648   0.258
24475WAT     H173667   5.534   6.746   0.270
24475WAT     H273668   5.602   6.603   0.231
24476WAT      O73669   8.843   6.744   9.470
24476WAT     H173670   8.918   6.734   9.405
24476WAT     H273671   8.756   6.750   9.420
24477WAT      O73672   6.846   6.649   2.876
24477WAT     H173673   6.749   6.672   2.866
24477WAT     H273674   6.869   6.642   2.973
24478WAT      O73675   6.374   4.530   4.072
24478WAT     H173676   6.361   4.511   3.975
24478WAT     H273677   6.391   4.628   4.086
24479WAT      O73678   6.369   0.950   8.331
24479WAT     H173679   6.402   0.876   8.390
24479WAT     H273680   6.431   0.960   8.253
24480WAT      O73681   7.891   9.534   0.224
24480WAT     H173682   7.898   9.574   0.132
24480WAT     H273683   7.888   9.607   0.292
24481WAT      O73684   1.872   2.285   5.130
24481WAT     H173685   1.835   2.377   5.116
24481WAT     H273686   1.919   2.281   5.218
24482WAT      O73687   0.488   0.573   2.366
24482WAT     H173688   0.526   0.638   2.301
24482WAT     H273689   0.403   0.609   2.405
24483WAT      O73690   7.788   8.096   9.113
24483WAT     H173691   7.884   8.106   9.087
24483WAT     H273692   7.749   8.186   9.133
24484WAT      O73693   7.264   0.114   1.663
24484WAT     H173694   7.357   0.137   1.691
24484WAT     H273695   7.239   0.024   1.700
24485WAT      O73696   8.799   0.400   5.501
24485WAT     H173697   8.821   0.328   5.567
24485WAT     H273698   8.711   0.380   5.458
24486WAT      O73699   0.158   8.342   3.981
24486WAT     H173700   0.119   8.419   4.031
24486WAT     H273701   0.184   8.371   3.889
24487WAT      O73702   8.786   4.631   9.816
24487WAT     H173703   8.849   4.572   9.766
24487WAT     H273704   8.716   4.665   9.754
24488WAT      O73705   1.084   7.763   2.919
24488WAT     H173706   1.097   7.855   2.956
24488WAT     H273707   0.987   7.742   2.916
24489WAT      O73708   6.487   7.973   7.703
24489WAT     H173709   6.525   7.907   7.768
24489WAT     H273710   6.560   8.012   7.647
24490WAT      O73711   9.581   9.659   1.117
24490WAT     H173712   9.644   9.672   1.194
24490WAT     H273713   9.622   9.598   1.050
24491WAT      O73714   0.372   8.939   9.025
24491WAT     H173715   0.366   8.843   8.998
24491WAT     H273716   0.336   8.949   9.118
24492WAT      O73717   3.717   6.194   8.977
24492WAT     H173718   3.735   6.100   9.008
24492WAT     H273719   3.725   6.199   8.878
24493WAT      O73720   8.850   8.676   4.561
24493WAT     H173721   8.763   8.700   4.604
24493WAT     H273722   8.921   8.740   4.591
24494WAT      O73723   5.106   8.059   5.722
24494WAT     H173724   5.191   8.078   5.672
24494WAT     H273725   5.041   8.013   5.661
24495WAT      O73726   4.204   0.728   9.311
24495WAT     H173727   4.141   0.658   9.346
24495WAT     H273728   4.298   0.703   9.333
24496WAT      O73729   2.607   2.634   5.655
24496WAT     H173730   2.669   2.555   5.653
24496WAT     H273731   2.514   2.603   5.637
24497WAT      O73732   6.743   0.424   1.756
24497WAT     H173733   6.796   0.372   1.689
24497WAT     H273734   6.794   0.431   1.841
24498WAT      O73735   8.681   2.781   2.049
24498WAT     H173736   8.689   2.725   1.966
24498WAT     H273737   8.584   2.793   2.071
24499WAT      O73738   0.851   1.414   5.674
24499WAT     H173739   0.930   1.362   5.643
24499WAT     H273740   0.818   1.377   5.761
24500WAT      O73741   4.210   0.141   9.267
24500WAT     H173742   4.192   0.053   9.310
24500WAT     H273743   4.217   0.212   9.337
24501WAT      O73744   8.009   1.719   0.358
24501WAT     H173745   7.971   1.727   0.450
24501WAT     H273746   7.970   1.638   0.313
24502WAT      O73747   7.010   8.962   2.396
24502WAT     H173748   7.065   8.904   2.336
24502WAT     H273749   7.070   9.021   2.449
24503WAT      O73750   9.411   2.690   9.569
24503WAT     H173751   9.509   2.702   9.585
24503WAT     H273752   9.386   2.736   9.483
24504WAT      O73753   3.654   6.104   5.995
24504WAT     H173754   3.566   6.060   6.011
24504WAT     H273755   3.642   6.182   5.934
24505WAT      O73756   0.892   7.548   3.812
24505WAT     H173757   0.798   7.556   3.779
24505WAT     H273758   0.945   7.627   3.781
24506WAT      O73759   3.987   8.603   9.254
24506WAT     H173760   4.058   8.653   9.205
24506WAT     H273761   3.973   8.513   9.212
24507WAT      O73762   1.958   7.962   9.135
24507WAT     H173763   1.925   7.877   9.095
24507WAT     H273764   1.980   7.947   9.232
24508WAT      O73765   5.807   5.973   3.999
24508WAT     H173766   5.750   5.891   4.012
24508WAT     H273767   5.750   6.047   3.964
24509WAT      O73768   2.501   8.416   7.949
24509WAT     H173769   2.462   8.399   8.040
24509WAT     H273770   2.562   8.340   7.925
24510WAT      O73771   1.101   8.521   4.424
24510WAT     H173772   1.194   8.483   4.427
24510WAT     H273773   1.037   8.451   4.395
24511WAT      O73774   6.082   6.936   3.541
24511WAT     H173775   5.999   6.951   3.596
24511WAT     H273776   6.073   6.985   3.454
24512WAT      O73777   8.910   3.236   7.454
24512WAT     H173778   8.930   3.280   7.541
24512WAT     H273779   8.851   3.296   7.399
24513WAT      O73780   5.160   1.912   2.177
24513WAT     H173781   5.152   1.967   2.094
24513WAT     H273782   5.070   1.902   2.219
24514WAT      O73783   2.666   3.586   0.318
24514WAT     H173784   2.654   3.517   0.390
24514WAT     H273785   2.609   3.666   0.338
24515WAT      O73786   0.943   7.031   5.022
24515WAT     H173787   0.978   7.059   4.932
24515WAT     H273788   0.854   6.987   5.010
24516WAT      O73789   6.216   9.093   5.832
24516WAT     H173790   6.248   9.164   5.896
24516WAT     H273791   6.133   9.125   5.786
24517WAT      O73792   9.501   9.432   8.465
24517WAT     H173793   9.414   9.389   8.489
24517WAT     H273794   9.573   9.362   8.465
24518WAT      O73795   0.970   9.509   4.729
24518WAT     H173796   1.011   9.419   4.713
24518WAT     H273797   0.996   9.571   4.655
24519WAT      O73798   5.134   3.206   2.616
24519WAT     H173799   5.205   3.227   2.683
24519WAT     H273800   5.070   3.140   2.655
24520WAT      O73801   7.759   5.911   8.331
24520WAT     H173802   7.725   5.852   8.404
24520WAT     H273803   7.709   5.893   8.247
24521WAT      O73804   4.982   7.584   5.024
24521WAT     H173805   5.049   7.564   4.952
24521WAT     H273806   5.029   7.593   5.112
24522WAT      O73807   6.752   4.065   9.444
24522WAT     H173808   6.803   4.052   9.529
24522WAT     H273809   6.800   4.020   9.369
24523WAT      O73810   1.815   4.998   8.497
24523WAT     H173811   1.786   5.036   8.409
24523WAT     H273812   1.745   4.935   8.531
24524WAT      O73813   7.248   4.649   2.630
24524WAT     H173814   7.337   4.606   2.615
24524WAT     H273815   7.245   4.687   2.723
24525WAT      O73816   8.219   6.475   9.649
24525WAT     H173817   8.226   6.438   9.742
24525WAT     H273818   8.132   6.446   9.609
24526WAT      O73819   2.504   5.208   1.791
24526WAT     H173820   2.534   5.149   1.866
24526WAT     H273821   2.579   5.266   1.761
24527WAT      O73822   3.341   7.950   3.942
24527WAT     H173823   3.440   7.967   3.948
24527WAT     H273824   3.325   7.852   3.933
24528WAT      O73825   8.844   5.131   2.652
24528WAT     H173826   8.869   5.218   2.695
24528WAT     H273827   8.786   5.148   2.572
24529WAT      O73828   3.302   4.806   4.011
24529WAT     H173829   3.226   4.845   4.062
24529WAT     H273830   3.388   4.838   4.050
24530WAT      O73831   2.464   6.948   3.928
24530WAT     H173832   2.561   6.927   3.927
24530WAT     H273833   2.415   6.882   3.872
24531WAT      O73834   7.154   4.400   3.883
24531WAT     H173835   7.098   4.411   3.801
24531WAT     H273836   7.147   4.482   3.939
24532WAT      O73837   3.944   7.734   5.988
24532WAT     H173838   3.901   7.763   5.902
24532WAT     H273839   3.963   7.815   6.044
24533WAT      O73840   6.681   1.317   5.187
24533WAT     H173841   6.703   1.221   5.208
24533WAT     H273842   6.623   1.354   5.260
24534WAT      O73843   2.563   2.682   6.056
24534WAT     H173844   2.635   2.739   6.018
24534WAT     H273845   2.518   2.631   5.983
24535WAT      O73846   0.364   3.946   5.503
24535WAT     H173847   0.433   3.901   5.447
24535WAT     H273848   0.273   3.914   5.477
24536WAT      O73849   8.977   0.714   7.703
24536WAT     H173850   9.060   0.667   7.674
24536WAT     H273851   8.995   0.812   7.711
24537WAT      O73852   1.856   0.528   1.717
24537WAT     H173853   1.942   0.579   1.708
24537WAT     H273854   1.868   0.437   1.678
24538WAT      O73855   1.548   8.245   6.383
24538WAT     H173856   1.648   8.242   6.389
24538WAT     H273857   1.516   8.165   6.333
24539WAT      O73858   3.146   2.698   6.847
24539WAT     H173859   3.063   2.663   6.802
24539WAT     H273860   3.226   2.654   6.807
24540WAT      O73861   7.344   3.807   3.066
24540WAT     H173862   7.429   3.764   3.098
24540WAT     H273863   7.281   3.736   3.033
24541WAT      O73864   9.862   6.784   6.009
24541WAT     H173865   9.839   6.768   6.105
24541WAT     H273866   9.814   6.717   5.952
24542WAT      O73867   0.255   6.726   0.031
24542WAT     H173868   0.242   6.628   0.043
24542WAT     H273869   0.218   6.774   0.110
24543WAT      O73870   9.179   8.406   9.812
24543WAT     H173871   9.257   8.345   9.827
24543WAT     H273872   9.195   8.492   9.860
24544WAT      O73873   6.044   9.836   5.144
24544WAT     H173874   6.106   9.913   5.131
24544WAT     H273875   6.057   9.798   5.236
24545WAT      O73876   5.694   8.635   2.967
24545WAT     H173877   5.730   8.726   2.946
24545WAT     H273878   5.738   8.567   2.908
24546WAT      O73879   8.144   4.223   1.887
24546WAT     H173880   8.066   4.279   1.912
24546WAT     H273881   8.188   4.188   1.969
24547WAT      O73882   3.627   9.002   5.912
24547WAT     H173883   3.641   8.975   6.007
24547WAT     H273884   3.704   9.058   5.881
24548WAT      O73885   3.243   9.357   8.188
24548WAT     H173886   3.201   9.344   8.098
24548WAT     H273887   3.325   9.300   8.195
24549WAT      O73888   4.435   6.577   6.379
24549WAT     H173889   4.473   6.515   6.311
24549WAT     H273890   4.348   6.615   6.346
24550WAT      O73891   2.282   4.476   2.882
24550WAT     H173892   2.223   4.498   2.960
24550WAT     H273893   2.376   4.464   2.915
24551WAT      O73894   9.751   9.762   8.206
24551WAT     H173895   9.771   9.789   8.300
24551WAT     H273896   9.757   9.841   8.146
24552WAT      O73897   6.000   6.551   1.554
24552WAT     H173898   5.903   6.560   1.579
24552WAT     H273899   6.008   6.531   1.457
24553WAT      O73900   5.614   2.455   7.388
24553WAT     H173901   5.589   2.552   7.389
24553WAT     H273902   5.643   2.428   7.296
24554WAT      O73903   4.357   5.293   3.988
24554WAT     H173904   4.409   5.210   4.010
24554WAT     H273905   4.367   5.314   3.891
24555WAT      O73906   2.768   4.735   3.984
24555WAT     H173907   2.783   4.640   3.958
24555WAT     H273908   2.786   4.746   4.082
24556WAT      O73909   5.305   3.147   6.976
24556WAT     H173910   5.314   3.074   6.908
24556WAT     H273911   5.341   3.233   6.938
24557WAT      O73912   4.820   4.720   7.322
24557WAT     H173913   4.858   4.628   7.329
24557WAT     H273914   4.761   4.726   7.242
24558WAT      O73915   9.640   2.590   2.726
24558WAT     H173916   9.698   2.509   2.737
24558WAT     H273917   9.675   2.664   2.783
24559WAT      O73918   2.578   9.682   9.731
24559WAT     H173919   2.648   9.616   9.758
24559WAT     H273920   2.493   9.663   9.780
24560WAT      O73921   0.490   0.840   6.335
24560WAT     H173922   0.469   0.744   6.353
24560WAT     H273923   0.484   0.892   6.420
24561WAT      O73924   5.897   5.021   1.455
24561WAT     H173925   5.915   4.948   1.388
24561WAT     H273926   5.870   5.104   1.407
24562WAT      O73927   6.838   3.185   7.328
24562WAT     H173928   6.810   3.277   7.356
24562WAT     H273929   6.935   3.173   7.344
24563WAT      O73930   0.176   7.102   4.781
24563WAT     H173931   0.213   7.075   4.693
24563WAT     H273932   0.251   7.118   4.845
24564WAT      O73933   1.316   9.308   8.302
24564WAT     H173934   1.404   9.336   8.262
24564WAT     H273935   1.261   9.262   8.232
24565WAT      O73936   2.894   5.530   2.043
24565WAT     H173937   2.808   5.551   2.089
24565WAT     H273938   2.962   5.503   2.111
24566WAT      O73939   4.136   4.843   2.173
24566WAT     H173940   4.191   4.851   2.089
24566WAT     H273941   4.043   4.815   2.149
24567WAT      O73942   4.219   8.437   8.990
24567WAT     H173943   4.306   8.455   9.036
24567WAT     H273944   4.233   8.376   8.912
24568WAT      O73945   9.194   8.219   3.220
24568WAT     H173946   9.158   8.293   3.277
24568WAT     H273947   9.130   8.202   3.145
24569WAT      O73948   4.649   7.236   5.694
24569WAT     H173949   4.732   7.255   5.641
24569WAT     H273950   4.570   7.234   5.633
24570WAT      O73951   0.820   6.743   4.435
24570WAT     H173952   0.768   6.769   4.354
24570WAT     H273953   0.765   6.681   4.491
24571WAT      O73954   1.835   3.596   2.405
24571WAT     H173955   1.782   3.571   2.325
24571WAT     H273956   1.858   3.514   2.457
24572WAT      O73957   1.656   8.948   5.002
24572WAT     H173958   1.665   8.850   5.020
24572WAT     H273959   1.746   8.988   4.989
24573WAT      O73960   6.814   7.621   3.079
24573WAT     H173961   6.901   7.585   3.044
24573WAT     H273962   6.827   7.655   3.172
24574WAT      O73963   1.777   7.317   4.611
24574WAT     H173964   1.688   7.308   4.655
24574WAT     H273965   1.826   7.395   4.651
24575WAT      O73966   1.132   0.247   3.156
24575WAT     H173967   1.072   0.285   3.085
24575WAT     H273968   1.187   0.320   3.196
24576WAT      O73969   3.744   4.552   4.536
24576WAT     H173970   3.805   4.556   4.457
24576WAT     H273971   3.654   4.520   4.507
24577WAT      O73972   4.244   8.853   8.008
24577WAT     H173973   4.150   8.836   8.039
24577WAT     H273974   4.305   8.858   8.088
24578WAT      O73975   4.198   6.746   6.032
24578WAT     H173976   4.292   6.712   6.026
24578WAT     H273977   4.137   6.679   5.990
24579WAT      O73978   2.619   6.659   4.903
24579WAT     H173979   2.717   6.662   4.921
24579WAT     H273980   2.601   6.598   4.826
24580WAT      O73981   6.827   2.794   1.009
24580WAT     H173982   6.782   2.784   0.921
24580WAT     H273983   6.811   2.713   1.065
24581WAT      O73984   5.272   9.721   5.702
24581WAT     H173985   5.200   9.783   5.669
24581WAT     H273986   5.361   9.756   5.675
24582WAT      O73987   8.489   0.706   6.633
24582WAT     H173988   8.472   0.794   6.676
24582WAT     H273989   8.527   0.643   6.701
24583WAT      O73990   8.619   6.763   5.387
24583WAT     H173991   8.671   6.765   5.472
24583WAT     H273992   8.623   6.670   5.348
24584WAT      O73993   3.457   2.236   6.950
24584WAT     H173994   3.362   2.209   6.937
24584WAT     H273995   3.483   2.222   7.045
24585WAT      O73996   9.873   4.424   3.352
24585WAT     H173997   9.941   4.360   3.317
24585WAT     H273998   9.803   4.374   3.404
24586WAT      O73999   6.293   7.183   6.194
24586WAT     H174000   6.304   7.167   6.096
24586WAT     H274001   6.255   7.101   6.237
24587WAT      O74002   6.273   8.650   6.640
24587WAT     H174003   6.195   8.640   6.578
24587WAT     H274004   6.273   8.574   6.705
24588WAT      O74005   3.196   8.397   4.751
24588WAT     H174006   3.157   8.381   4.661
24588WAT     H274007   3.254   8.479   4.749
24589WAT      O74008   8.968   7.065   9.368
24589WAT     H174009   8.977   7.017   9.281
24589WAT     H274010   8.879   7.044   9.408
24590WAT      O74011   6.805   4.131   4.071
24590WAT     H174012   6.752   4.126   4.155
24590WAT     H274013   6.839   4.224   4.057
24591WAT      O74014   5.427   3.732   8.235
24591WAT     H174015   5.513   3.704   8.279
24591WAT     H274016   5.445   3.807   8.171
24592WAT      O74017   4.566   6.703   0.124
24592WAT     H174018   4.533   6.776   0.184
24592WAT     H274019   4.536   6.614   0.160
24593WAT      O74020   6.772   4.273   5.917
24593WAT     H174021   6.733   4.280   6.009
24593WAT     H274022   6.803   4.180   5.901
24594WAT      O74023   5.583   4.137   1.803
24594WAT     H174024   5.489   4.161   1.781
24594WAT     H274025   5.588   4.107   1.898
24595WAT      O74026   2.516   7.029   6.077
24595WAT     H174027   2.513   7.113   6.023
24595WAT     H274028   2.593   6.973   6.046
24596WAT      O74029   6.833   1.888   7.828
24596WAT     H174030   6.854   1.986   7.822
24596WAT     H274031   6.918   1.836   7.825
24597WAT      O74032   4.839   5.197   7.735
24597WAT     H174033   4.855   5.148   7.821
24597WAT     H274034   4.826   5.294   7.754
24598WAT      O74035   7.430   2.682   8.282
24598WAT     H174036   7.409   2.735   8.200
24598WAT     H274037   7.504   2.618   8.262
24599WAT      O74038   0.085   4.831   6.770
24599WAT     H174039   0.033   4.763   6.718
24599WAT     H274040   0.108   4.794   6.860
24600WAT      O74041   6.056   8.419   1.854
24600WAT     H174042   6.051   8.446   1.950
24600WAT     H274043   5.985   8.351   1.835
24601WAT      O74044   6.751   6.056   5.960
24601WAT     H174045   6.718   6.132   5.903
24601WAT     H274046   6.832   6.015   5.917
24602WAT      O74047   7.063   7.929   5.560
24602WAT     H174048   7.150   7.880   5.552
24602WAT     H274049   6.999   7.893   5.492
24603WAT      O74050   8.044   0.367   4.854
24603WAT     H174051   7.992   0.449   4.830
24603WAT     H274052   8.133   0.393   4.891
24604WAT      O74053   6.968   3.176   1.882
24604WAT     H174054   7.045   3.234   1.855
24604WAT     H274055   6.919   3.145   1.800
24605WAT      O74056   1.957   5.727   8.098
24605WAT     H174057   1.965   5.766   8.007
24605WAT     H274058   1.867   5.684   8.108
24606WAT      O74059   8.828   7.047   5.921
24606WAT     H174060   8.772   7.088   5.849
24606WAT     H274061   8.781   6.967   5.958
24607WAT      O74062   3.060   4.061   6.588
24607WAT     H174063   3.114   4.114   6.523
24607WAT     H274064   3.119   4.030   6.663
24608WAT      O74065   9.045   9.779   8.754
24608WAT     H174066   8.976   9.837   8.710
24608WAT     H274067   8.999   9.703   8.800
24609WAT      O74068   6.339   5.156   8.789
24609WAT     H174069   6.365   5.062   8.767
24609WAT     H274070   6.420   5.209   8.813
24610WAT      O74071   5.146   8.887   9.662
24610WAT     H174072   5.180   8.861   9.752
24610WAT     H274073   5.121   8.805   9.610
24611WAT      O74074   0.538   6.217   1.005
24611WAT     H174075   0.462   6.226   0.941
24611WAT     H274076   0.504   6.184   1.093
24612WAT      O74077   4.390   7.913   7.863
24612WAT     H174078   4.353   7.915   7.955
24612WAT     H274079   4.481   7.872   7.864
24613WAT      O74080   9.770   8.784   2.332
24613WAT     H174081   9.868   8.801   2.343
24613WAT     H274082   9.719   8.866   2.359
24614WAT      O74083   6.050   3.694   7.660
24614WAT     H174084   6.030   3.660   7.568
24614WAT     H274085   6.147   3.716   7.668
24615WAT      O74086   0.342   6.482   7.974
24615WAT     H174087   0.257   6.531   7.992
24615WAT     H274088   0.415   6.548   7.957
24616WAT      O74089   7.999   8.646   3.126
24616WAT     H174090   8.038   8.598   3.205
24616WAT     H274091   8.072   8.670   3.063
24617WAT      O74092   5.220   0.628   0.412
24617WAT     H174093   5.280   0.684   0.355
24617WAT     H274094   5.253   0.628   0.506
24618WAT      O74095   9.192   6.125   4.900
24618WAT     H174096   9.100   6.163   4.906
24618WAT     H274097   9.254   6.193   4.862
24619WAT      O74098   2.757   4.080   3.457
24619WAT     H174099   2.696   4.035   3.522
24619WAT     H274100   2.849   4.086   3.496
24620WAT      O74101   6.862   2.404   9.653
24620WAT     H174102   6.944   2.442   9.695
24620WAT     H274103   6.824   2.332   9.711
24621WAT      O74104   4.571   9.654   8.083
24621WAT     H174105   4.536   9.744   8.110
24621WAT     H274106   4.634   9.621   8.152
24622WAT      O74107   4.552   8.410   8.354
24622WAT     H174108   4.608   8.346   8.302
24622WAT     H274109   4.503   8.471   8.291
24623WAT      O74110   7.406   2.180   8.677
24623WAT     H174111   7.433   2.268   8.638
24623WAT     H274112   7.323   2.147   8.632
24624WAT      O74113   9.774   9.518   6.169
24624WAT     H174114   9.780   9.496   6.071
24624WAT     H274115   9.679   9.510   6.199
24625WAT      O74116   4.840   9.748   4.863
24625WAT     H174117   4.805   9.838   4.836
24625WAT     H274118   4.783   9.711   4.937
24626WAT      O74119   6.995   6.995   0.442
24626WAT     H174120   6.965   6.903   0.469
24626WAT     H274121   6.935   7.063   0.484
24627WAT      O74122   7.441   7.383   3.577
24627WAT     H174123   7.492   7.376   3.491
24627WAT     H274124   7.485   7.451   3.636
24628WAT      O74125   9.051   7.817   9.104
24628WAT     H174126   9.053   7.916   9.118
24628WAT     H274127   8.985   7.775   9.166
24629WAT      O74128   2.898   4.084   0.683
24629WAT     H174129   2.818   4.121   0.730
24629WAT     H274130   2.913   3.989   0.713
24630WAT      O74131   4.723   3.521   3.429
24630WAT     H174132   4.775   3.537   3.345
24630WAT     H274133   4.628   3.501   3.405
24631WAT      O74134   2.164   2.740   3.082
24631WAT     H174135   2.199   2.833   3.095
24631WAT     H274136   2.144   2.699   3.171
24632WAT      O74137   7.519   3.918   8.917
24632WAT     H174138   7.558   4.009   8.935
24632WAT     H274139   7.420   3.923   8.921
24633WAT      O74140   6.301   5.574   6.870
24633WAT     H174141   6.275   5.588   6.774
24633WAT     H274142   6.393   5.534   6.873
24634WAT      O74143   4.135   7.364   0.761
24634WAT     H174144   4.039   7.344   0.783
24634WAT     H274145   4.177   7.283   0.720
24635WAT      O74146   2.754   4.704   1.544
24635WAT     H174147   2.689   4.758   1.490
24635WAT     H274148   2.712   4.618   1.570
24636WAT      O74149   8.101   0.130   8.406
24636WAT     H174150   8.131   0.170   8.492
24636WAT     H274151   8.027   0.185   8.367
24637WAT      O74152   1.134   7.245   9.443
24637WAT     H174153   1.179   7.158   9.464
24637WAT     H274154   1.200   7.309   9.405
24638WAT      O74155   0.363   5.771   1.293
24638WAT     H174156   0.294   5.704   1.320
24638WAT     H274157   0.372   5.840   1.365
24639WAT      O74158   3.416   3.866   2.489
24639WAT     H174159   3.462   3.784   2.523
24639WAT     H274160   3.450   3.887   2.397
24640WAT      O74161   9.200   4.520   2.678
24640WAT     H174162   9.136   4.566   2.617
24640WAT     H274163   9.274   4.583   2.702
24641WAT      O74164   2.476   0.957   8.698
24641WAT     H174165   2.564   0.918   8.672
24641WAT     H274166   2.402   0.901   8.659
24642WAT      O74167   4.546   0.404   7.759
24642WAT     H174168   4.592   0.318   7.738
24642WAT     H274169   4.577   0.476   7.696
24643WAT      O74170   0.953   5.118   9.111
24643WAT     H174171   0.865   5.084   9.145
24643WAT     H274172   0.982   5.195   9.167
24644WAT      O74173   0.635   0.185   2.455
24644WAT     H174174   0.569   0.113   2.477
24644WAT     H274175   0.721   0.145   2.425
24645WAT      O74176   6.218   2.117   5.867
24645WAT     H174177   6.154   2.166   5.807
24645WAT     H274178   6.183   2.117   5.961
24646WAT      O74179   5.878   1.676   7.554
24646WAT     H174180   5.884   1.769   7.589
24646WAT     H274181   5.788   1.638   7.576
24647WAT      O74182   0.712   1.999   1.816
24647WAT     H174183   0.648   2.035   1.884
24647WAT     H274184   0.806   2.017   1.846
24648WAT      O74185   7.809   6.754   0.009
24648WAT     H174186   7.905   6.783   0.009
24648WAT     H274187   7.802   6.663  -0.033
24649WAT      O74188   2.522   5.942   5.934
24649WAT     H174189   2.588   5.872   5.962
24649WAT     H274190   2.571   6.017   5.890
24650WAT      O74191   1.043   5.283   3.546
24650WAT     H174192   1.006   5.285   3.638
24650WAT     H274193   1.143   5.285   3.550
24651WAT      O74194   4.189   8.533   4.938
24651WAT     H174195   4.130   8.483   5.001
24651WAT     H274196   4.132   8.579   4.869
24652WAT      O74197   4.904   5.865   1.271
24652WAT     H174198   4.932   5.805   1.347
24652WAT     H274199   4.974   5.935   1.256
24653WAT      O74200   5.882   1.639   5.325
24653WAT     H174201   5.846   1.624   5.233
24653WAT     H274202   5.943   1.718   5.326
24654WAT      O74203   2.952   9.181   8.067
24654WAT     H174204   3.001   9.246   8.009
24654WAT     H274205   2.854   9.188   8.050
24655WAT      O74206   5.926   2.925   8.389
24655WAT     H174207   5.996   2.997   8.398
24655WAT     H274208   5.969   2.836   8.401
24656WAT      O74209   4.273   7.710   1.873
24656WAT     H174210   4.209   7.786   1.864
24656WAT     H274211   4.222   7.627   1.895
24657WAT      O74212   1.816   2.383   2.403
24657WAT     H174213   1.818   2.353   2.498
24657WAT     H274214   1.899   2.435   2.383
24658WAT      O74215   1.602   0.254   0.364
24658WAT     H174216   1.656   0.296   0.290
24658WAT     H274217   1.624   0.157   0.369
24659WAT      O74218   6.151   5.761   9.223
24659WAT     H174219   6.065   5.740   9.178
24659WAT     H274220   6.154   5.716   9.313
24660WAT      O74221   2.245   0.521   0.839
24660WAT     H174222   2.344   0.527   0.842
24660WAT     H274223   2.206   0.564   0.920
24661WAT      O74224   5.435   3.889   2.216
24661WAT     H174225   5.533   3.889   2.194
24661WAT     H274226   5.383   3.857   2.137
24662WAT      O74227   6.198   5.194   3.834
24662WAT     H174228   6.225   5.280   3.879
24662WAT     H274229   6.219   5.200   3.737
24663WAT      O74230   0.931   7.168   6.179
24663WAT     H174231   0.856   7.118   6.223
24663WAT     H274232   0.991   7.103   6.132
24664WAT      O74233   7.205   0.296   9.687
24664WAT     H174234   7.240   0.311   9.595
24664WAT     H274235   7.280   0.297   9.753
24665WAT      O74236   9.724   2.273   4.201
24665WAT     H174237   9.804   2.277   4.260
24665WAT     H274238   9.673   2.189   4.219
24666WAT      O74239   5.932   2.051   5.473
24666WAT     H174240   5.857   2.018   5.531
24666WAT     H274241   5.985   2.119   5.524
24667WAT      O74242   6.331   5.572   0.206
24667WAT     H174243   6.235   5.546   0.215
24667WAT     H274244   6.376   5.565   0.295
24668WAT      O74245   4.291   7.096   1.634
24668WAT     H174246   4.371   7.141   1.673
24668WAT     H274247   4.316   7.053   1.547
24669WAT      O74248   4.472   9.214   7.862
24669WAT     H174249   4.546   9.174   7.917
24669WAT     H274250   4.431   9.290   7.913
24670WAT      O74251   5.885   2.584   1.352
24670WAT     H174252   5.819   2.655   1.377
24670WAT     H274253   5.874   2.562   1.255
24671WAT      O74254   6.138   4.321   2.329
24671WAT     H174255   6.212   4.255   2.336
24671WAT     H274256   6.126   4.368   2.416
24672WAT      O74257   5.746   8.141   2.658
24672WAT     H174258   5.788   8.148   2.748
24672WAT     H274259   5.788   8.207   2.596
24673WAT      O74260   2.335   4.270   5.415
24673WAT     H174261   2.377   4.194   5.364
24673WAT     H274262   2.403   4.310   5.476
24674WAT      O74263   5.285   8.441   6.629
24674WAT     H174264   5.349   8.446   6.553
24674WAT     H274265   5.335   8.432   6.715
24675WAT      O74266   8.675   2.404   0.266
24675WAT     H174267   8.668   2.408   0.366
24675WAT     H274268   8.644   2.490   0.226
24676WAT      O74269   7.714   1.080   1.755
24676WAT     H174270   7.640   1.048   1.814
24676WAT     H274271   7.735   1.175   1.777
24677WAT      O74272   3.404   0.649   9.664
24677WAT     H174273   3.374   0.686   9.576
24677WAT     H274274   3.412   0.550   9.657
24678WAT      O74275   4.145   6.309   1.853
24678WAT     H174276   4.161   6.374   1.778
24678WAT     H274277   4.231   6.266   1.878
24679WAT      O74278   1.608   8.384   9.024
24679WAT     H174279   1.515   8.354   9.047
24679WAT     H274280   1.669   8.305   9.025
24680WAT      O74281   0.534   2.902   5.328
24680WAT     H174282   0.595   2.946   5.393
24680WAT     H274283   0.584   2.832   5.277
24681WAT      O74284   8.687   0.716   8.202
24681WAT     H174285   8.699   0.779   8.125
24681WAT     H274286   8.591   0.689   8.209
24682WAT      O74287   4.434   8.158   1.295
24682WAT     H174288   4.454   8.063   1.271
24682WAT     H274289   4.356   8.190   1.241
24683WAT      O74290   8.929   5.014   6.733
24683WAT     H174291   8.887   5.070   6.805
24683WAT     H274292   8.895   5.044   6.644
24684WAT      O74293   9.324   1.310   8.367
24684WAT     H174294   9.416   1.331   8.336
24684WAT     H274295   9.324   1.225   8.420
24685WAT      O74296   3.798   3.400   7.277
24685WAT     H174297   3.867   3.332   7.249
24685WAT     H274298   3.732   3.357   7.338
24686WAT      O74299   4.741   6.826   7.509
24686WAT     H174300   4.673   6.897   7.526
24686WAT     H274301   4.831   6.858   7.537
24687WAT      O74302   0.379   7.170   9.221
24687WAT     H174303   0.378   7.076   9.253
24687WAT     H274304   0.416   7.229   9.293
24688WAT      O74305   8.313   1.647   1.617
24688WAT     H174306   8.291   1.572   1.554
24688WAT     H274307   8.350   1.724   1.566
24689WAT      O74308   4.864   0.378   7.996
24689WAT     H174309   4.921   0.396   8.076
24689WAT     H274310   4.774   0.420   8.008
24690WAT      O74311   9.025   6.710   7.932
24690WAT     H174312   9.049   6.766   7.853
24690WAT     H274313   8.931   6.678   7.922
24691WAT      O74314   9.788   0.401   3.096
24691WAT     H174315   9.798   0.347   3.013
24691WAT     H274316   9.741   0.486   3.074
24692WAT      O74317   7.030   8.777   9.183
24692WAT     H174318   7.004   8.778   9.087
24692WAT     H274319   7.088   8.857   9.203
24693WAT      O74320   7.827   6.171   7.869
24693WAT     H174321   7.777   6.220   7.941
24693WAT     H274322   7.919   6.208   7.861
24694WAT      O74323   4.901   6.184   7.049
24694WAT     H174324   4.977   6.246   7.032
24694WAT     H274325   4.815   6.229   7.026
24695WAT      O74326   8.757   1.752   3.433
24695WAT     H174327   8.750   1.764   3.334
24695WAT     H274328   8.678   1.795   3.477
24696WAT      O74329   2.488   6.738   0.285
24696WAT     H174330   2.558   6.674   0.254
24696WAT     H274331   2.398   6.696   0.273
24697WAT      O74332   7.493   5.791   0.305
24697WAT     H174333   7.482   5.694   0.330
24697WAT     H274334   7.590   5.813   0.302
24698WAT      O74335   6.560   4.116   9.052
24698WAT     H174336   6.557   4.215   9.070
24698WAT     H274337   6.612   4.099   8.969
24699WAT      O74338   0.868   6.744   5.619
24699WAT     H174339   0.892   6.823   5.563
24699WAT     H274340   0.799   6.770   5.686
24700WAT      O74341   3.337   7.047   1.636
24700WAT     H174342   3.362   7.114   1.566
24700WAT     H274343   3.382   6.960   1.615
24701WAT      O74344   0.388   7.197   0.329
24701WAT     H174345   0.474   7.244   0.352
24701WAT     H274346   0.402   7.143   0.247
24702WAT      O74347   9.399   5.709   8.221
24702WAT     H174348   9.359   5.680   8.308
24702WAT     H274349   9.343   5.677   8.145
24703WAT      O74350   4.100   8.567   2.895
24703WAT     H174351   4.074   8.520   2.811
24703WAT     H274352   4.134   8.658   2.873
24704WAT      O74353   2.834   8.611   0.273
24704WAT     H174354   2.927   8.576   0.283
24704WAT     H274355   2.829   8.669   0.191
24705WAT      O74356   5.960   0.190   3.010
24705WAT     H174357   6.034   0.232   2.959
24705WAT     H274358   5.987   0.099   3.040
24706WAT      O74359   5.890   6.727   3.752
24706WAT     H174360   5.958   6.668   3.795
24706WAT     H274361   5.839   6.776   3.822
24707WAT      O74362   0.362   1.084   7.464
24707WAT     H174363   0.364   0.992   7.502
24707WAT     H274364   0.407   1.084   7.374
24708WAT      O74365   2.921   3.942   5.914
24708WAT     H174366   2.863   4.011   5.872
24708WAT     H274367   2.937   3.965   6.010
24709WAT      O74368   7.420   7.525   5.847
24709WAT     H174369   7.484   7.558   5.777
24709WAT     H274370   7.448   7.434   5.877
24710WAT      O74371   5.112   6.163   9.178
24710WAT     H174372   5.014   6.175   9.163
24710WAT     H274373   5.141   6.219   9.256
24711WAT      O74374   0.506   2.264   3.196
24711WAT     H174375   0.430   2.288   3.135
24711WAT     H274376   0.567   2.343   3.206
24712WAT      O74377   5.304   6.768   6.167
24712WAT     H174378   5.366   6.817   6.105
24712WAT     H274379   5.259   6.694   6.116
24713WAT      O74380   5.143   3.222   5.609
24713WAT     H174381   5.076   3.181   5.548
24713WAT     H274382   5.103   3.301   5.655
24714WAT      O74383   6.343   2.748   1.923
24714WAT     H174384   6.414   2.806   1.962
24714WAT     H274385   6.305   2.689   1.995
24715WAT      O74386   8.963   6.180   6.296
24715WAT     H174387   9.058   6.156   6.315
24715WAT     H274388   8.956   6.278   6.281
24716WAT      O74389   2.132   1.210   4.082
24716WAT     H174390   2.201   1.262   4.133
24716WAT     H274391   2.041   1.238   4.110
24717WAT      O74392   0.764   4.390   9.426
24717WAT     H174393   0.675   4.413   9.464
24717WAT     H274394   0.835   4.404   9.495
24718WAT      O74395   4.451   4.061   8.578
24718WAT     H174396   4.448   3.986   8.643
24718WAT     H274397   4.411   4.032   8.491
24719WAT      O74398   5.780   0.046   0.431
24719WAT     H174399   5.834   0.057   0.514
24719WAT     H274400   5.840   0.054   0.351
24720WAT      O74401   5.524   4.535   8.547
24720WAT     H174402   5.564   4.608   8.492
24720WAT     H274403   5.554   4.446   8.513
24721WAT      O74404   3.916   4.693   1.398
24721WAT     H174405   3.886   4.607   1.355
24721WAT     H274406   3.969   4.746   1.333
24722WAT      O74407   7.618   9.361   5.795
24722WAT     H174408   7.623   9.461   5.794
24722WAT     H274409   7.536   9.332   5.845
24723WAT      O74410   0.604   2.532   6.401
24723WAT     H174411   0.511   2.560   6.425
24723WAT     H274412   0.619   2.547   6.303
24724WAT      O74413   5.099   2.253   7.345
24724WAT     H174414   5.047   2.308   7.279
24724WAT     H274415   5.195   2.250   7.318
24725WAT      O74416   1.965   6.634   9.497
24725WAT     H174417   1.908   6.664   9.421
24725WAT     H274418   1.916   6.650   9.583
24726WAT      O74419   4.129   2.619   3.220
24726WAT     H174420   4.215   2.664   3.195
24726WAT     H274421   4.100   2.560   3.145
24727WAT      O74422   5.208   5.137   9.428
24727WAT     H174423   5.216   5.215   9.490
24727WAT     H274424   5.163   5.061   9.476
24728WAT      O74425   1.503   5.798   2.667
24728WAT     H174426   1.511   5.891   2.702
24728WAT     H274427   1.522   5.797   2.569
24729WAT      O74428   1.518   7.728   9.132
24729WAT     H174429   1.528   7.813   9.080
24729WAT     H274430   1.470   7.661   9.076
24730WAT      O74431   5.080   4.942   2.725
24730WAT     H174432   5.086   4.899   2.635
24730WAT     H274433   5.139   4.894   2.790
24731WAT      O74434   3.814   9.452   5.031
24731WAT     H174435   3.898   9.432   4.980
24731WAT     H274436   3.784   9.370   5.080
24732WAT      O74437   3.502   2.173   8.099
24732WAT     H174438   3.557   2.112   8.041
24732WAT     H274439   3.555   2.199   8.179
24733WAT      O74440   2.801   3.228   1.100
24733WAT     H174441   2.810   3.291   1.023
24733WAT     H274442   2.891   3.210   1.140
24734WAT      O74443   8.422   2.167   0.719
24734WAT     H174444   8.324   2.187   0.725
24734WAT     H274445   8.448   2.157   0.623
24735WAT      O74446   8.241   7.987   8.733
24735WAT     H174447   8.314   7.998   8.666
24735WAT     H274448   8.177   8.064   8.727
24736WAT      O74449   6.939   9.798   5.249
24736WAT     H174450   6.900   9.771   5.337
24736WAT     H274451   6.999   9.725   5.215
24737WAT      O74452   7.923   0.252   8.743
24737WAT     H174453   7.908   0.272   8.839
24737WAT     H274454   7.864   0.310   8.687
24738WAT      O74455   2.708   1.891   0.361
24738WAT     H174456   2.757   1.811   0.394
24738WAT     H274457   2.740   1.915   0.269
24739WAT      O74458   1.191   6.371   3.766
24739WAT     H174459   1.164   6.453   3.816
24739WAT     H274460   1.290   6.360   3.769
24740WAT      O74461   1.586   6.617   0.122
24740WAT     H174462   1.665   6.574   0.080
24740WAT     H274463   1.613   6.661   0.208
24741WAT      O74464   3.423   6.800   2.974
24741WAT     H174465   3.329   6.772   2.994
24741WAT     H274466   3.475   6.805   3.060
24742WAT      O74467   0.828   7.630   1.624
24742WAT     H174468   0.861   7.689   1.698
24742WAT     H274469   0.901   7.619   1.556
24743WAT      O74470   3.604   7.301   7.042
24743WAT     H174471   3.686   7.332   6.993
24743WAT     H274472   3.594   7.203   7.030
24744WAT      O74473   8.212   0.893   2.041
24744WAT     H174474   8.145   0.957   2.006
24744WAT     H274475   8.264   0.854   1.965
24745WAT      O74476   2.070   0.274   9.684
24745WAT     H174477   2.156   0.260   9.733
24745WAT     H274478   2.045   0.189   9.637
24746WAT      O74479   5.884   8.332   2.556
24746WAT     H174480   5.973   8.310   2.516
24746WAT     H274481   5.822   8.364   2.484
24747WAT      O74482   3.094   8.562   6.790
24747WAT     H174483   3.049   8.642   6.751
24747WAT     H274484   3.077   8.482   6.733
24748WAT      O74485   2.351   5.210   9.726
24748WAT     H174486   2.353   5.200   9.626
24748WAT     H274487   2.319   5.124   9.767
24749WAT      O74488   5.355   0.395   5.818
24749WAT     H174489   5.270   0.349   5.843
24749WAT     H274490   5.335   0.469   5.754
24750WAT      O74491   5.307   1.749   3.932
24750WAT     H174492   5.320   1.661   3.978
24750WAT     H274493   5.346   1.744   3.840
24751WAT      O74494   1.866   8.153   8.259
24751WAT     H174495   1.921   8.202   8.326
24751WAT     H274496   1.785   8.115   8.304
24752WAT      O74497   6.332   2.874   8.117
24752WAT     H174498   6.313   2.819   8.199
24752WAT     H274499   6.374   2.817   8.047
24753WAT      O74500   1.046   5.676   7.703
24753WAT     H174501   1.014   5.582   7.706
24753WAT     H274502   1.145   5.678   7.688
24754WAT      O74503   6.597   0.076   2.012
24754WAT     H174504   6.522   0.121   1.964
24754WAT     H274505   6.560   0.003   2.070
24755WAT      O74506   1.434   3.073   6.337
24755WAT     H174507   1.385   3.101   6.419
24755WAT     H274508   1.381   3.098   6.256
24756WAT      O74509   6.788   9.776   2.209
24756WAT     H174510   6.815   9.857   2.157
24756WAT     H274511   6.688   9.769   2.211
24757WAT      O74512   8.689   4.493   6.238
24757WAT     H174513   8.680   4.592   6.227
24757WAT     H274514   8.649   4.465   6.325
24758WAT      O74515   3.243   1.535   9.672
24758WAT     H174516   3.322   1.510   9.727
24758WAT     H274517   3.262   1.622   9.625
24759WAT      O74518   0.833   3.669   8.858
24759WAT     H174519   0.908   3.612   8.824
24759WAT     H274520   0.754   3.660   8.796
24760WAT      O74521   8.130   8.714   6.548
24760WAT     H174522   8.208   8.678   6.496
24760WAT     H274523   8.150   8.807   6.577
24761WAT      O74524   3.647   8.687   9.589
24761WAT     H174525   3.673   8.676   9.493
24761WAT     H274526   3.575   8.621   9.612
24762WAT      O74527   2.578   0.283   2.450
24762WAT     H174528   2.639   0.359   2.430
24762WAT     H274529   2.485   0.318   2.464
24763WAT      O74530   7.329   5.112   1.043
24763WAT     H174531   7.267   5.053   0.991
24763WAT     H274532   7.384   5.056   1.105
24764WAT      O74533   6.944   2.044   9.481
24764WAT     H174534   6.847   2.067   9.476
24764WAT     H274535   6.998   2.117   9.439
24765WAT      O74536   2.481   3.422   7.393
24765WAT     H174537   2.463   3.345   7.454
24765WAT     H274538   2.435   3.406   7.306
24766WAT      O74539   7.641   5.077   0.215
24766WAT     H174540   7.711   5.125   0.267
24766WAT     H274541   7.681   5.037   0.132
24767WAT      O74542   1.357   0.926   0.381
24767WAT     H174543   1.305   1.006   0.411
24767WAT     H274544   1.327   0.899   0.290
24768WAT      O74545   7.646   8.633   1.039
24768WAT     H174546   7.683   8.704   0.981
24768WAT     H274547   7.700   8.627   1.123
24769WAT      O74548   3.296   4.293   1.594
24769WAT     H174549   3.329   4.214   1.541
24769WAT     H274550   3.265   4.364   1.531
24770WAT      O74551   7.926   6.991   2.843
24770WAT     H174552   7.865   6.952   2.912
24770WAT     H274553   7.913   6.943   2.756
24771WAT      O74554   4.522   5.209   5.820
24771WAT     H174555   4.487   5.266   5.894
24771WAT     H274556   4.445   5.171   5.768
24772WAT      O74557   0.206   4.110   1.742
24772WAT     H174558   0.110   4.120   1.771
24772WAT     H274559   0.250   4.041   1.798
24773WAT      O74560   7.073   9.095   2.991
24773WAT     H174561   7.055   9.053   2.902
24773WAT     H274562   7.152   9.155   2.984
24774WAT      O74563   5.339   0.792   6.027
24774WAT     H174564   5.416   0.748   5.982
24774WAT     H274565   5.323   0.882   5.985
24775WAT      O74566   6.707   6.036   2.737
24775WAT     H174567   6.782   5.985   2.694
24775WAT     H274568   6.664   5.979   2.807
24776WAT      O74569   2.971   0.632   7.896
24776WAT     H174570   2.915   0.695   7.842
24776WAT     H274571   2.926   0.614   7.984
24777WAT      O74572   7.055   7.646   1.313
24777WAT     H174573   7.036   7.713   1.384
24777WAT     H274574   7.129   7.586   1.343
24778WAT      O74575   3.658   0.368   3.198
24778WAT     H174576   3.700   0.440   3.253
24778WAT     H274577   3.689   0.279   3.229
24779WAT      O74578   3.204   9.024   8.839
24779WAT     H174579   3.283   9.066   8.883
24779WAT     H274580   3.137   9.095   8.815
24780WAT      O74581   1.778   4.902   0.457
24780WAT     H174582   1.688   4.941   0.439
24780WAT     H274583   1.848   4.963   0.422
24781WAT      O74584   0.022   7.590   6.832
24781WAT     H174585   0.018   7.629   6.924
24781WAT     H274586  -0.029   7.504   6.830
24782WAT      O74587   0.183   8.266   4.519
24782WAT     H174588   0.237   8.241   4.438
24782WAT     H274589   0.244   8.301   4.590
24783WAT      O74590   0.394   8.777   7.671
24783WAT     H174591   0.303   8.735   7.663
24783WAT     H274592   0.386   8.876   7.658
24784WAT      O74593   7.985   3.604   5.532
24784WAT     H174594   7.911   3.591   5.467
24784WAT     H274595   7.961   3.561   5.619
24785WAT      O74596   8.952   5.847   4.313
24785WAT     H174597   8.968   5.907   4.235
24785WAT     H274598   9.032   5.790   4.329
24786WAT      O74599   9.449   6.750   0.219
24786WAT     H174600   9.417   6.685   0.288
24786WAT     H274601   9.371   6.800   0.182
24787WAT      O74602   7.254   2.743   5.358
24787WAT     H174603   7.164   2.749   5.315
24787WAT     H274604   7.243   2.747   5.457
24788WAT      O74605   0.928   1.948   0.505
24788WAT     H174606   0.856   1.910   0.564
24788WAT     H274607   0.887   1.981   0.420
24789WAT      O74608   8.898   1.999   5.232
24789WAT     H174609   8.840   1.952   5.298
24789WAT     H274610   8.896   1.951   5.144
24790WAT      O74611   7.715   9.809   2.272
24790WAT     H174612   7.733   9.845   2.181
24790WAT     H274613   7.631   9.851   2.308
24791WAT      O74614   8.090   5.527   0.540
24791WAT     H174615   8.061   5.621   0.521
24791WAT     H274616   8.146   5.494   0.465
24792WAT      O74617   8.579   5.285   5.415
24792WAT     H174618   8.488   5.326   5.423
24792WAT     H274619   8.641   5.327   5.481
24793WAT      O74620   2.632   3.456   4.772
24793WAT     H174621   2.674   3.528   4.716
24793WAT     H274622   2.618   3.490   4.865
24794WAT      O74623   3.361   7.385   0.912
24794WAT     H174624   3.320   7.303   0.953
24794WAT     H274625   3.401   7.361   0.823
24795WAT      O74626   8.171   7.671   7.157
24795WAT     H174627   8.183   7.618   7.240
24795WAT     H274628   8.237   7.640   7.088
24796WAT      O74629   6.440   4.031   0.136
24796WAT     H174630   6.354   4.079   0.122
24796WAT     H274631   6.508   4.094   0.174
24797WAT      O74632   8.926   2.851   0.620
24797WAT     H174633   9.013   2.883   0.581
24797WAT     H274634   8.852   2.866   0.554
24798WAT      O74635   6.105   3.872   6.388
24798WAT     H174636   6.159   3.882   6.472
24798WAT     H274637   6.166   3.872   6.309
24799WAT      O74638   4.857   5.977   9.032
24799WAT     H174639   4.784   6.010   9.092
24799WAT     H274640   4.923   5.925   9.085
24800WAT      O74641   2.322   5.926   1.228
24800WAT     H174642   2.303   5.988   1.152
24800WAT     H274643   2.376   5.973   1.297
24801WAT      O74644   5.356   0.651   1.199
24801WAT     H174645   5.334   0.747   1.181
24801WAT     H274646   5.277   0.594   1.176
24802WAT      O74647   6.884   7.764   5.394
24802WAT     H174648   6.865   7.732   5.301
24802WAT     H274649   6.891   7.685   5.456
24803WAT      O74650   4.718   9.216   0.442
24803WAT     H174651   4.790   9.189   0.379
24803WAT     H274652   4.674   9.135   0.480
24804WAT      O74653   0.400   7.076   6.763
24804WAT     H174654   0.438   7.005   6.822
24804WAT     H274655   0.457   7.159   6.770
24805WAT      O74656   6.109   8.759   9.143
24805WAT     H174657   6.207   8.742   9.143
24805WAT     H274658   6.092   8.857   9.133
24806WAT      O74659   7.121   3.708   1.979
24806WAT     H174660   7.144   3.766   1.900
24806WAT     H274661   7.030   3.731   2.012
24807WAT      O74662   6.514   1.468   6.823
24807WAT     H174663   6.576   1.547   6.815
24807WAT     H274664   6.424   1.500   6.855
24808WAT      O74665   2.364   0.109   4.932
24808WAT     H174666   2.438   0.047   4.959
24808WAT     H274667   2.376   0.197   4.978
24809WAT      O74668   8.591   6.913   3.667
24809WAT     H174669   8.643   6.829   3.684
24809WAT     H274670   8.653   6.990   3.659
24810WAT      O74671   4.189   4.304   7.762
24810WAT     H174672   4.194   4.402   7.745
24810WAT     H274673   4.244   4.255   7.693
24811WAT      O74674   1.985   9.737   6.848
24811WAT     H174675   1.991   9.644   6.812
24811WAT     H274676   2.075   9.767   6.878
24812WAT      O74677   9.605   5.305   6.929
24812WAT     H174678   9.675   5.258   6.875
24812WAT     H274679   9.606   5.270   7.023
24813WAT      O74680   1.028   0.169   2.084
24813WAT     H174681   1.117   0.138   2.050
24813WAT     H274682   0.987   0.098   2.141
24814WAT      O74683   6.925   4.656   2.836
24814WAT     H174684   7.020   4.673   2.862
24814WAT     H274685   6.893   4.572   2.881
24815WAT      O74686   9.749   2.231   3.462
24815WAT     H174687   9.661   2.184   3.474
24815WAT     H274688   9.812   2.172   3.413
24816WAT      O74689   1.737   2.745   0.787
24816WAT     H174690   1.733   2.684   0.708
24816WAT     H274691   1.682   2.706   0.862
24817WAT      O74692   4.599   7.337   7.809
24817WAT     H174693   4.675   7.279   7.780
24817WAT     H274694   4.513   7.294   7.780
24818WAT      O74695   2.747   2.175   7.243
24818WAT     H174696   2.845   2.162   7.261
24818WAT     H274697   2.723   2.270   7.259
24819WAT      O74698   1.614   3.906   4.068
24819WAT     H174699   1.680   3.899   3.994
24819WAT     H274700   1.662   3.916   4.155
24820WAT      O74701   3.936   0.067   8.875
24820WAT     H174702   3.956   0.107   8.964
24820WAT     H274703   4.003  -0.003   8.854
24821WAT      O74704   8.888   3.313   9.060
24821WAT     H174705   8.926   3.286   9.148
24821WAT     H274706   8.949   3.282   8.986
24822WAT      O74707   8.451   8.833   7.504
24822WAT     H174708   8.477   8.765   7.572
24822WAT     H274709   8.502   8.818   7.420
24823WAT      O74710   2.174   0.703   4.044
24823WAT     H174711   2.225   0.635   3.992
24823WAT     H274712   2.153   0.782   3.986
24824WAT      O74713   7.872   2.850   6.723
24824WAT     H174714   7.948   2.817   6.779
24824WAT     H274715   7.859   2.948   6.739
24825WAT      O74716   0.590   8.978   6.141
24825WAT     H174717   0.574   9.017   6.050
24825WAT     H274718   0.587   9.052   6.209
24826WAT      O74719   8.681   8.206   4.257
24826WAT     H174720   8.635   8.293   4.273
24826WAT     H274721   8.692   8.158   4.344
24827WAT      O74722   2.291   8.208   3.117
24827WAT     H174723   2.365   8.186   3.181
24827WAT     H274724   2.270   8.306   3.123
24828WAT      O74725   3.807   8.302   3.572
24828WAT     H174726   3.784   8.351   3.488
24828WAT     H274727   3.736   8.317   3.640
24829WAT      O74728   7.145   6.070   5.232
24829WAT     H174729   7.194   6.124   5.164
24829WAT     H274730   7.196   6.070   5.318
24830WAT      O74731   1.472   1.303   6.929
24830WAT     H174732   1.487   1.252   7.013
24830WAT     H274733   1.548   1.367   6.915
24831WAT      O74734   6.106   5.535   0.631
24831WAT     H174735   6.029   5.510   0.573
24831WAT     H274736   6.091   5.502   0.724
24832WAT      O74737   2.143   1.326   7.094
24832WAT     H174738   2.104   1.387   7.025
24832WAT     H274739   2.242   1.322   7.083
24833WAT      O74740   7.401   6.780   2.524
24833WAT     H174741   7.334   6.852   2.505
24833WAT     H274742   7.354   6.700   2.562
24834WAT      O74743   1.876   6.038   8.940
24834WAT     H174744   1.939   5.960   8.938
24834WAT     H274745   1.838   6.049   9.031
24835WAT      O74746   6.248   6.778   9.437
24835WAT     H174747   6.328   6.718   9.435
24835WAT     H274748   6.249   6.836   9.355
24836WAT      O74749   8.397   0.680   3.976
24836WAT     H174750   8.464   0.749   4.002
24836WAT     H274751   8.431   0.627   3.898
24837WAT      O74752   4.645   4.833   4.044
24837WAT     H174753   4.650   4.753   3.984
24837WAT     H274754   4.705   4.905   4.008
24838WAT      O74755   9.779   4.463   1.258
24838WAT     H174756   9.708   4.402   1.293
24838WAT     H274757   9.841   4.412   1.199
24839WAT      O74758   4.202   7.274   4.319
24839WAT     H174759   4.266   7.199   4.335
24839WAT     H274760   4.110   7.246   4.347
24840WAT      O74761   7.340   7.966   1.966
24840WAT     H174762   7.327   8.057   2.006
24840WAT     H274763   7.254   7.915   1.972
24841WAT      O74764   8.013   8.651   8.552
24841WAT     H174765   8.100   8.629   8.596
24841WAT     H274766   8.012   8.749   8.529
24842WAT      O74767   0.023   4.310   4.247
24842WAT     H174768   0.033   4.408   4.265
24842WAT     H274769   0.033   4.260   4.333
24843WAT      O74770   7.542   8.135   6.856
24843WAT     H174771   7.506   8.147   6.764
24843WAT     H274772   7.469   8.103   6.916
24844WAT      O74773   4.312   1.299   2.692
24844WAT     H174774   4.220   1.285   2.653
24844WAT     H274775   4.319   1.392   2.728
24845WAT      O74776   6.112   8.038   5.415
24845WAT     H174777   6.138   8.068   5.507
24845WAT     H274778   6.163   8.090   5.347
24846WAT      O74779   2.838   1.063   0.798
24846WAT     H174780   2.876   1.155   0.802
24846WAT     H274781   2.776   1.056   0.720
24847WAT      O74782   7.842   9.609   5.281
24847WAT     H174783   7.777   9.685   5.280
24847WAT     H274784   7.854   9.575   5.188
24848WAT      O74785   5.348   5.949   5.744
24848WAT     H174786   5.329   5.899   5.660
24848WAT     H274787   5.446   5.945   5.764
24849WAT      O74788   0.717   8.607   2.660
24849WAT     H174789   0.674   8.696   2.643
24849WAT     H274790   0.698   8.545   2.584
24850WAT      O74791   2.679   5.318   5.854
24850WAT     H174792   2.617   5.239   5.855
24850WAT     H274793   2.638   5.391   5.800
24851WAT      O74794   7.076   4.673   9.115
24851WAT     H174795   7.088   4.580   9.151
24851WAT     H274796   7.094   4.739   9.188
24852WAT      O74797   5.624   4.523   9.452
24852WAT     H174798   5.548   4.463   9.476
24852WAT     H274799   5.594   4.618   9.460
24853WAT      O74800   9.090   1.533   7.030
24853WAT     H174801   9.107   1.528   7.129
24853WAT     H274802   9.012   1.475   7.007
24854WAT      O74803   2.669   3.651   2.851
24854WAT     H174804   2.762   3.670   2.882
24854WAT     H274805   2.620   3.738   2.837
24855WAT      O74806   5.004   4.775   8.286
24855WAT     H174807   4.973   4.692   8.240
24855WAT     H274808   4.963   4.780   8.377
24856WAT      O74809   9.857   6.576   2.477
24856WAT     H174810   9.838   6.594   2.573
24856WAT     H274811   9.894   6.483   2.467
24857WAT      O74812   6.333   2.532   2.198
24857WAT     H174813   6.343   2.433   2.189
24857WAT     H274814   6.384   2.563   2.278
24858WAT      O74815   7.060   4.911   3.376
24858WAT     H174816   7.137   4.901   3.313
24858WAT     H274817   7.024   5.004   3.370
24859WAT      O74818   6.431   2.361   7.780
24859WAT     H174819   6.379   2.307   7.714
24859WAT     H274820   6.463   2.445   7.736
24860WAT      O74821   5.160   3.785   9.113
24860WAT     H174822   5.245   3.826   9.079
24860WAT     H274823   5.128   3.715   9.049
24861WAT      O74824   1.674   4.614   1.288
24861WAT     H174825   1.756   4.563   1.313
24861WAT     H274826   1.605   4.602   1.360
24862WAT      O74827   3.655   9.279   9.606
24862WAT     H174828   3.589   9.246   9.673
24862WAT     H274829   3.672   9.207   9.538
24863WAT      O74830   2.605   6.632   3.167
24863WAT     H174831   2.547   6.570   3.115
24863WAT     H274832   2.563   6.722   3.172
24864WAT      O74833   8.599   1.841   0.197
24864WAT     H174834   8.625   1.937   0.187
24864WAT     H274835   8.548   1.829   0.283
24865WAT      O74836   6.633   7.910   8.110
24865WAT     H174837   6.597   7.885   8.020
24865WAT     H274838   6.558   7.933   8.171
24866WAT      O74839   1.900   6.605   3.337
24866WAT     H174840   1.918   6.644   3.247
24866WAT     H274841   1.986   6.576   3.379
24867WAT      O74842   0.994   4.800   1.598
24867WAT     H174843   1.066   4.815   1.666
24867WAT     H274844   0.918   4.752   1.640
24868WAT      O74845   5.876   6.601   7.101
24868WAT     H174846   5.797   6.636   7.051
24868WAT     H274847   5.902   6.512   7.063
24869WAT      O74848   8.093   9.030   0.704
24869WAT     H174849   8.103   9.105   0.638
24869WAT     H274850   8.170   8.967   0.694
24870WAT      O74851   0.839   0.790   3.319
24870WAT     H174852   0.921   0.753   3.277
24870WAT     H274853   0.772   0.812   3.248
24871WAT      O74854   0.557   2.303   1.278
24871WAT     H174855   0.639   2.256   1.311
24871WAT     H274856   0.580   2.356   1.196
24872WAT      O74857   9.596   4.718   8.565
24872WAT     H174858   9.498   4.723   8.545
24872WAT     H274859   9.632   4.810   8.581
24873WAT      O74860   0.668   3.129   7.085
24873WAT     H174861   0.647   3.101   7.179
24873WAT     H274862   0.658   3.228   7.078
24874WAT      O74863   3.238   7.128   0.970
24874WAT     H174864   3.233   7.031   0.992
24874WAT     H274865   3.197   7.145   0.881
24875WAT      O74866   3.036   8.170   7.384
24875WAT     H174867   3.007   8.254   7.337
24875WAT     H274868   2.999   8.091   7.335
24876WAT      O74869   0.151   8.775   6.328
24876WAT     H174870   0.139   8.837   6.405
24876WAT     H274871   0.246   8.744   6.325
24877WAT      O74872   6.379   9.179   3.984
24877WAT     H174873   6.343   9.089   4.011
24877WAT     H274874   6.453   9.166   3.918
24878WAT      O74875   9.176   9.117   6.644
24878WAT     H174876   9.207   9.023   6.658
24878WAT     H274877   9.237   9.164   6.581
24879WAT      O74878   5.216   1.271   2.000
24879WAT     H174879   5.153   1.247   1.926
24879WAT     H274880   5.260   1.187   2.034
24880WAT      O74881   5.873   1.090   6.851
24880WAT     H174882   5.915   1.091   6.942
24880WAT     H274883   5.922   1.152   6.790
24881WAT      O74884   7.347   3.775   2.124
24881WAT     H174885   7.266   3.743   2.075
24881WAT     H274886   7.410   3.699   2.137
24882WAT      O74887   5.189   8.730   4.400
24882WAT     H174888   5.285   8.755   4.401
24882WAT     H274889   5.134   8.808   4.431
24883WAT      O74890   6.219   2.482   7.418
24883WAT     H174891   6.188   2.436   7.501
24883WAT     H274892   6.196   2.579   7.422
24884WAT      O74893   0.316   8.596   5.216
24884WAT     H174894   0.385   8.615   5.146
24884WAT     H274895   0.289   8.499   5.212
24885WAT      O74896   4.099   1.533   4.226
24885WAT     H174897   4.001   1.518   4.234
24885WAT     H274898   4.131   1.586   4.305
24886WAT      O74899   9.738   8.576   3.809
24886WAT     H174900   9.679   8.508   3.853
24886WAT     H274901   9.683   8.655   3.782
24887WAT      O74902   2.702   3.042   0.746
24887WAT     H174903   2.745   2.957   0.717
24887WAT     H274904   2.701   3.107   0.670
24888WAT      O74905   3.615   9.744   0.646
24888WAT     H174906   3.587   9.648   0.636
24888WAT     H274907   3.713   9.749   0.661
24889WAT      O74908   5.070   5.123   4.259
24889WAT     H174909   5.043   5.048   4.319
24889WAT     H274910   5.164   5.150   4.280
24890WAT      O74911   9.272   7.831   2.635
24890WAT     H174912   9.213   7.910   2.616
24890WAT     H274913   9.218   7.760   2.680
24891WAT      O74914   1.184   8.621   6.419
24891WAT     H174915   1.198   8.673   6.335
24891WAT     H274916   1.251   8.547   6.425
24892WAT      O74917   0.025   4.638   0.303
24892WAT     H174918   0.047   4.732   0.281
24892WAT     H274919  -0.005   4.631   0.398
24893WAT      O74920   3.933   1.913   8.342
24893WAT     H174921   3.896   1.826   8.310
24893WAT     H274922   4.030   1.919   8.317
24894WAT      O74923   6.803   8.390   4.684
24894WAT     H174924   6.797   8.445   4.602
24894WAT     H274925   6.713   8.381   4.726
24895WAT      O74926   9.240   6.828   6.212
24895WAT     H174927   9.200   6.827   6.304
24895WAT     H274928   9.184   6.772   6.151
24896WAT      O74929   5.881   2.481   4.348
24896WAT     H174930   5.845   2.554   4.291
24896WAT     H274931   5.870   2.505   4.444
24897WAT      O74932   8.260   5.296   9.450
24897WAT     H174933   8.328   5.365   9.425
24897WAT     H274934   8.285   5.254   9.537
24898WAT      O74935   6.666   0.133   2.386
24898WAT     H174936   6.618   0.201   2.330
24898WAT     H274937   6.765   0.145   2.373
24899WAT      O74938   4.891   2.655   9.666
24899WAT     H174939   4.830   2.639   9.743
24899WAT     H274940   4.853   2.727   9.608
24900WAT      O74941   3.882   4.288   8.366
24900WAT     H174942   3.937   4.232   8.428
24900WAT     H274943   3.785   4.269   8.381
24901WAT      O74944   4.199   6.337   0.350
24901WAT     H174945   4.100   6.351   0.354
24901WAT     H274946   4.242   6.412   0.300
24902WAT      O74947   7.989   2.311   1.428
24902WAT     H174948   8.047   2.253   1.486
24902WAT     H274949   7.913   2.346   1.482
24903WAT      O74950   8.031   2.927   3.359
24903WAT     H174951   8.063   2.911   3.452
24903WAT     H274952   8.042   3.024   3.336
24904WAT      O74953   1.283   2.034   0.509
24904WAT     H174954   1.373   2.074   0.522
24904WAT     H274955   1.292   1.940   0.474
24905WAT      O74956   3.640   4.840   9.849
24905WAT     H174957   3.675   4.886   9.931
24905WAT     H274958   3.553   4.881   9.823
24906WAT      O74959   6.257   4.012   9.357
24906WAT     H174960   6.212   4.101   9.347
24906WAT     H274961   6.356   4.025   9.363
24907WAT      O74962   3.096   5.322   9.872
24907WAT     H174963   3.117   5.272   9.788
24907WAT     H274964   3.165   5.300   9.942
24908WAT      O74965   1.888   5.458   4.116
24908WAT     H174966   1.893   5.557   4.099
24908WAT     H274967   1.833   5.441   4.198
24909WAT      O74968   4.669   5.717   7.656
24909WAT     H174969   4.663   5.625   7.695
24909WAT     H274970   4.763   5.751   7.663
24910WAT      O74971   7.542   3.536   5.890
24910WAT     H174972   7.501   3.459   5.940
24910WAT     H274973   7.602   3.587   5.952
24911WAT      O74974   9.035   7.979   2.605
24911WAT     H174975   9.035   7.969   2.704
24911WAT     H274976   8.942   7.994   2.573
24912WAT      O74977   7.243   1.856   8.015
24912WAT     H174978   7.164   1.870   8.074
24912WAT     H274979   7.324   1.841   8.072
24913WAT      O74980   6.259   5.176   2.421
24913WAT     H174981   6.334   5.150   2.482
24913WAT     H274982   6.195   5.235   2.470
24914WAT      O74983   4.750   6.008   4.231
24914WAT     H174984   4.658   6.041   4.211
24914WAT     H274985   4.750   5.908   4.233
24915WAT      O74986   4.997   5.355   8.484
24915WAT     H174987   4.937   5.427   8.519
24915WAT     H274988   5.063   5.329   8.555
24916WAT      O74989   0.870   0.421   7.694
24916WAT     H174990   0.890   0.385   7.785
24916WAT     H274991   0.940   0.390   7.630
24917WAT      O74992   7.172   3.202   5.036
24917WAT     H174993   7.186   3.301   5.029
24917WAT     H274994   7.238   3.163   5.100
24918WAT      O74995   2.992   8.363   4.194
24918WAT     H174996   2.974   8.337   4.099
24918WAT     H274997   2.989   8.281   4.252
24919WAT      O74998   0.102   6.367   1.172
24919WAT     H174999   0.193   6.400   1.198
24919WAT     H275000   0.035   6.440   1.186
24920WAT      O75001   1.683   7.519   8.918
24920WAT     H175002   1.715   7.425   8.914
24920WAT     H275003   1.760   7.581   8.908
24921WAT      O75004   8.234   0.217   3.512
24921WAT     H175005   8.241   0.238   3.609
24921WAT     H275006   8.183   0.132   3.499
24922WAT      O75007   8.641   5.784   0.363
24922WAT     H175008   8.704   5.805   0.289
24922WAT     H275009   8.598   5.868   0.396
24923WAT      O75010   2.907   7.538   1.391
24923WAT     H175011   2.815   7.572   1.409
24923WAT     H275012   2.965   7.613   1.360
24924WAT      O75013   2.919   1.826   6.858
24924WAT     H175014   2.902   1.912   6.907
24924WAT     H275015   2.984   1.842   6.784
24925WAT      O75016   0.728   9.540   9.306
24925WAT     H175017   0.808   9.597   9.321
24925WAT     H275018   0.683   9.567   9.221
24926WAT      O75019   7.837   6.642   7.543
24926WAT     H175020   7.878   6.601   7.461
24926WAT     H275021   7.893   6.719   7.573
24927WAT      O75022   6.846   3.386   2.729
24927WAT     H175023   6.938   3.424   2.727
24927WAT     H275024   6.840   3.310   2.664
24928WAT      O75025   2.969   8.346   0.077
24928WAT     H175026   3.020   8.377   0.157
24928WAT     H275027   2.881   8.308   0.106
24929WAT      O75028   8.326   9.423   0.980
24929WAT     H175029   8.305   9.326   0.968
24929WAT     H275030   8.425   9.435   0.985
24930WAT      O75031   3.021   6.265   0.122
24930WAT     H175032   3.004   6.361   0.098
24930WAT     H275033   3.019   6.209   0.039
24931WAT      O75034   5.748   9.592   4.917
24931WAT     H175035   5.788   9.515   4.967
24931WAT     H275036   5.751   9.674   4.974
24932WAT      O75037   4.387   8.469   6.569
24932WAT     H175038   4.315   8.536   6.582
24932WAT     H275039   4.354   8.396   6.509
24933WAT      O75040   9.537   2.230   7.665
24933WAT     H175041   9.621   2.203   7.619
24933WAT     H275042   9.548   2.323   7.701
24934WAT      O75043   1.152   0.397   2.567
24934WAT     H175044   1.208   0.441   2.497
24934WAT     H275045   1.055   0.413   2.548
24935WAT      O75046   4.245   5.327   5.305
24935WAT     H175047   4.297   5.243   5.291
24935WAT     H275048   4.280   5.375   5.385
24936WAT      O75049   7.833   1.664   4.144
24936WAT     H175050   7.903   1.693   4.209
24936WAT     H275051   7.749   1.641   4.194
24937WAT      O75052   0.756   6.904   4.734
24937WAT     H175053   0.826   6.935   4.799
24937WAT     H275054   0.745   6.973   4.662
24938WAT      O75055   5.504   1.719   6.908
24938WAT     H175056   5.466   1.802   6.946
24938WAT     H275057   5.603   1.730   6.895
24939WAT      O75058   6.507   4.805   4.157
24939WAT     H175059   6.562   4.781   4.078
24939WAT     H275060   6.564   4.805   4.239
24940WAT      O75061   6.618   9.001   5.176
24940WAT     H175062   6.650   9.087   5.137
24940WAT     H275063   6.595   9.014   5.273
24941WAT      O75064   4.959   7.870   7.811
24941WAT     H175065   4.964   7.958   7.859
24941WAT     H275066   4.925   7.885   7.718
24942WAT      O75067   1.114   8.019   7.690
24942WAT     H175068   1.160   7.954   7.629
24942WAT     H275069   1.084   8.098   7.638
24943WAT      O75070   7.920   7.334   7.081
24943WAT     H175071   7.950   7.404   7.016
24943WAT     H275072   7.956   7.245   7.053
24944WAT      O75073   6.251   4.169   9.645
24944WAT     H175074   6.248   4.269   9.656
24944WAT     H275075   6.343   4.137   9.667
24945WAT      O75076   7.183   7.263   3.319
24945WAT     H175077   7.191   7.226   3.227
24945WAT     H275078   7.101   7.321   3.325
24946WAT      O75079   0.577   6.544   2.768
24946WAT     H175080   0.556   6.539   2.670
24946WAT     H275081   0.520   6.479   2.818
24947WAT      O75082   8.814   3.072   1.102
24947WAT     H175083   8.871   3.045   1.026
24947WAT     H275084   8.773   3.162   1.083
24948WAT      O75085   4.128   6.976   7.251
24948WAT     H175086   4.090   6.888   7.225
24948WAT     H275087   4.221   6.963   7.286
24949WAT      O75088   2.758   4.149   3.200
24949WAT     H175089   2.787   4.132   3.294
24949WAT     H275090   2.682   4.088   3.178
24950WAT      O75091   3.077   0.628   4.092
24950WAT     H175092   3.005   0.661   4.032
24950WAT     H275093   3.130   0.705   4.127
24951WAT      O75094   2.737   0.580   9.086
24951WAT     H175095   2.802   0.517   9.043
24951WAT     H275096   2.709   0.544   9.175
24952WAT      O75097   0.680   5.978   7.338
24952WAT     H175098   0.595   5.935   7.370
24952WAT     H275099   0.738   5.997   7.417
24953WAT      O75100   2.544   2.128   6.462
24953WAT     H175101   2.510   2.066   6.533
24953WAT     H275102   2.470   2.150   6.399
24954WAT      O75103   8.084   9.682   9.530
24954WAT     H175104   8.136   9.742   9.590
24954WAT     H275105   8.042   9.609   9.585
24955WAT      O75106   3.478   5.993   1.332
24955WAT     H175107   3.444   5.951   1.247
24955WAT     H275108   3.419   5.966   1.408
24956WAT      O75109   1.550   3.081   3.628
24956WAT     H175110   1.463   3.129   3.619
24956WAT     H275111   1.535   2.996   3.678
24957WAT      O75112   2.027   3.717   3.417
24957WAT     H175113   1.960   3.648   3.391
24957WAT     H275114   2.096   3.726   3.344
24958WAT      O75115   9.217   7.753   9.381
24958WAT     H175116   9.164   7.742   9.297
24958WAT     H275117   9.160   7.732   9.460
24959WAT      O75118   7.353   9.693   7.506
24959WAT     H175119   7.443   9.650   7.510
24959WAT     H275120   7.317   9.703   7.598
24960WAT      O75121   8.972   7.283   2.994
24960WAT     H175122   9.017   7.343   3.061
24960WAT     H275123   8.889   7.327   2.960
24961WAT      O75124   5.549   2.981   8.931
24961WAT     H175125   5.601   3.067   8.934
24961WAT     H275126   5.592   2.914   8.991
24962WAT      O75127   9.811   6.001   2.053
24962WAT     H175128   9.898   6.044   2.076
24962WAT     H275129   9.741   6.071   2.039
24963WAT      O75130   9.789   5.138   6.811
24963WAT     H175131   9.872   5.163   6.860
24963WAT     H275132   9.811   5.073   6.738
24964WAT      O75133   6.227   6.932   1.585
24964WAT     H175134   6.206   6.882   1.501
24964WAT     H275135   6.241   6.867   1.659
24965WAT      O75136   4.351   3.749   1.289
24965WAT     H175137   4.386   3.767   1.381
24965WAT     H275138   4.326   3.836   1.245
24966WAT      O75139   6.262   6.064   7.075
24966WAT     H175140   6.246   5.966   7.067
24966WAT     H275141   6.267   6.105   6.984
24967WAT      O75142   0.605   3.468   4.391
24967WAT     H175143   0.613   3.520   4.477
24967WAT     H275144   0.636   3.526   4.315
24968WAT      O75145   1.870   1.679   9.323
24968WAT     H175146   1.831   1.620   9.393
24968WAT     H275147   1.903   1.622   9.247
24969WAT      O75148   9.388   5.666   6.061
24969WAT     H175149   9.388   5.570   6.091
24969WAT     H275150   9.334   5.721   6.125
24970WAT      O75151   4.521   6.112   2.537
24970WAT     H175152   4.512   6.178   2.611
24970WAT     H275153   4.435   6.108   2.485
24971WAT      O75154   2.466   9.401   0.327
24971WAT     H175155   2.485   9.303   0.318
24971WAT     H275156   2.371   9.413   0.355
24972WAT      O75157   1.315   3.770   9.569
24972WAT     H175158   1.322   3.842   9.501
24972WAT     H275159   1.331   3.808   9.660
24973WAT      O75160   4.499   6.315   1.373
24973WAT     H175161   4.440   6.382   1.328
24973WAT     H275162   4.546   6.260   1.304
24974WAT      O75163   7.491   1.071   5.212
24974WAT     H175164   7.531   1.003   5.273
24974WAT     H275165   7.563   1.133   5.180
24975WAT      O75166   7.758   8.032   2.794
24975WAT     H175167   7.828   8.104   2.795
24975WAT     H275168   7.671   8.070   2.824
24976WAT      O75169   6.556   8.427   3.251
24976WAT     H175170   6.546   8.328   3.263
24976WAT     H275171   6.604   8.465   3.330
24977WAT      O75172   9.400   7.772   0.033
24977WAT     H175173   9.346   7.749   0.114
24977WAT     H275174   9.371   7.715  -0.044
24978WAT      O75175   5.810   9.143   2.534
24978WAT     H175176   5.819   9.217   2.601
24978WAT     H275177   5.886   9.079   2.543
24979WAT      O75178   4.581   3.570   3.890
24979WAT     H175179   4.566   3.501   3.961
24979WAT     H275180   4.650   3.537   3.825
24980WAT      O75181   9.080   5.642   3.527
24980WAT     H175182   9.080   5.542   3.528
24980WAT     H275183   9.004   5.675   3.470
24981WAT      O75184   4.338   9.708   2.255
24981WAT     H175185   4.350   9.661   2.342
24981WAT     H275186   4.427   9.738   2.221
24982WAT      O75187   1.794   2.022   6.408
24982WAT     H175188   1.738   2.027   6.491
24982WAT     H275189   1.782   2.105   6.354
24983WAT      O75190   5.376   5.972   6.364
24983WAT     H175191   5.325   6.058   6.359
24983WAT     H275192   5.359   5.918   6.281
24984WAT      O75193   3.961   6.237   5.547
24984WAT     H175194   4.047   6.186   5.549
24984WAT     H275195   3.941   6.264   5.453
24985WAT      O75196   1.193   6.339   4.693
24985WAT     H175197   1.229   6.296   4.776
24985WAT     H275198   1.172   6.435   4.711
24986WAT      O75199   5.602   2.286   7.089
24986WAT     H175200   5.606   2.211   7.024
24986WAT     H275201   5.693   2.302   7.128
24987WAT      O75202   5.520   8.183   6.891
24987WAT     H175203   5.611   8.142   6.894
24987WAT     H275204   5.455   8.116   6.856
24988WAT      O75205   1.436   6.428   4.238
24988WAT     H175206   1.377   6.416   4.317
24988WAT     H275207   1.509   6.359   4.240
24989WAT      O75208   9.529   6.346   2.739
24989WAT     H175209   9.457   6.397   2.691
24989WAT     H275210   9.548   6.388   2.827
24990WAT      O75211   4.752   8.670   4.553
24990WAT     H175212   4.752   8.689   4.454
24990WAT     H275213   4.827   8.608   4.574
24991WAT      O75214   3.716   3.471   5.280
24991WAT     H175215   3.656   3.408   5.329
24991WAT     H275216   3.809   3.434   5.277
24992WAT      O75217   7.833   5.556   3.073
24992WAT     H175218   7.816   5.651   3.046
24992WAT     H275219   7.843   5.551   3.173
24993WAT      O75220   0.605   9.357   7.613
24993WAT     H175221   0.685   9.412   7.634
24993WAT     H275222   0.523   9.415   7.617
24994WAT      O75223   4.075   5.704   5.666
24994WAT     H175224   4.030   5.769   5.605
24994WAT     H275225   4.065   5.611   5.630
24995WAT      O75226   3.031   0.230   5.970
24995WAT     H175227   3.108   0.282   5.933
24995WAT     H275228   2.948   0.255   5.921
24996WAT      O75229   1.248   2.305   8.246
24996WAT     H175230   1.152   2.331   8.239
24996WAT     H275231   1.270   2.239   8.174
24997WAT      O75232   7.515   7.781   8.848
24997WAT     H175233   7.593   7.826   8.892
24997WAT     H275234   7.460   7.848   8.799
24998WAT      O75235   1.647   5.569   7.940
24998WAT     H175236   1.595   5.549   7.856
24998WAT     H275237   1.734   5.521   7.937
24999WAT      O75238   7.042   0.080   6.806
24999WAT     H175239   7.063   0.054   6.712
24999WAT     H275240   7.105   0.153   6.835
25000WAT      O75241   9.297   4.043   3.562
25000WAT     H175242   9.294   3.944   3.551
25000WAT     H275243   9.272   4.086   3.475
25001WAT      O75244   6.123   8.131   0.958
25001WAT     H175245   6.065   8.183   0.895
25001WAT     H275246   6.098   8.035   0.955
25002WAT      O75247   8.933   6.668   6.370
25002WAT     H175248   8.858   6.734   6.372
25002WAT     H275249   9.020   6.716   6.379
25003WAT      O75250   0.089   0.180   6.324
25003WAT     H175251   0.004   0.139   6.290
25003WAT     H275252   0.138   0.224   6.249
25004WAT      O75253   7.006   1.031   4.915
25004WAT     H175254   7.070   1.063   4.845
25004WAT     H275255   6.913   1.054   4.889
25005WAT      O75256   1.495   8.287   0.563
25005WAT     H175257   1.532   8.286   0.656
25005WAT     H275258   1.567   8.315   0.499
25006WAT      O75259   3.329   9.320   4.381
25006WAT     H175260   3.322   9.233   4.428
25006WAT     H275261   3.411   9.321   4.324
25007WAT      O75262   1.895   2.923   7.422
25007WAT     H175263   1.852   2.834   7.410
25007WAT     H275264   1.867   2.984   7.347
25008WAT      O75265   4.374   1.421   3.317
25008WAT     H175266   4.442   1.351   3.298
25008WAT     H275267   4.359   1.477   3.235
25009WAT      O75268   3.873   2.943   3.481
25009WAT     H175269   3.946   2.878   3.505
25009WAT     H275270   3.827   2.972   3.565
25010WAT      O75271   2.519   0.998   1.657
25010WAT     H175272   2.427   0.984   1.692
25010WAT     H275273   2.583   0.942   1.710
25011WAT      O75274   7.033   4.340   2.816
25011WAT     H175275   7.030   4.413   2.747
25011WAT     H275276   7.128   4.325   2.844
25012WAT      O75277   0.091   5.799   8.542
25012WAT     H175278   0.140   5.873   8.588
25012WAT     H275279   0.151   5.757   8.474
25013WAT      O75280   1.305   4.579   6.457
25013WAT     H175281   1.248   4.527   6.393
25013WAT     H275282   1.275   4.674   6.458
25014WAT      O75283   7.229   2.542   7.625
25014WAT     H175284   7.187   2.458   7.591
25014WAT     H275285   7.176   2.575   7.704
25015WAT      O75286   1.343   4.471   5.353
25015WAT     H175287   1.422   4.482   5.413
25015WAT     H275288   1.338   4.549   5.290
25016WAT      O75289   9.564   5.807   0.894
25016WAT     H175290   9.614   5.722   0.909
25016WAT     H275291   9.628   5.883   0.882
25017WAT      O75292   0.237   4.070   0.833
25017WAT     H175293   0.273   4.016   0.909
25017WAT     H275294   0.144   4.040   0.812
25018WAT      O75295   5.996   3.086   4.874
25018WAT     H175296   6.062   3.156   4.900
25018WAT     H275297   6.014   3.056   4.780
25019WAT      O75298   6.226   6.959   7.917
25019WAT     H175299   6.190   7.028   7.853
25019WAT     H275300   6.156   6.890   7.933
25020WAT      O75301   7.426   8.483   4.164
25020WAT     H175302   7.486   8.481   4.244
25020WAT     H275303   7.351   8.418   4.177
25021WAT      O75304   2.882   9.414   2.565
25021WAT     H175305   2.785   9.435   2.571
25021WAT     H275306   2.895   9.324   2.525
25022WAT      O75307   2.103   3.611   1.430
25022WAT     H175308   2.069   3.533   1.378
25022WAT     H275309   2.030   3.677   1.443
25023WAT      O75310   0.661   1.078   5.055
25023WAT     H175311   0.679   1.161   5.108
25023WAT     H275312   0.605   1.015   5.110
25024WAT      O75313   8.661   6.404   8.416
25024WAT     H175314   8.580   6.361   8.456
25024WAT     H275315   8.728   6.334   8.394
25025WAT      O75316   9.108   6.364   0.302
25025WAT     H175317   9.159   6.365   0.388
25025WAT     H275318   9.028   6.423   0.310
25026WAT      O75319   0.131   6.160   9.879
25026WAT     H175320   0.211   6.100   9.873
25026WAT     H275321   0.048   6.107   9.864
25027WAT      O75322   7.246   2.515   8.726
25027WAT     H175323   7.315   2.495   8.657
25027WAT     H275324   7.266   2.603   8.768
25028WAT      O75325   1.542   4.370   4.934
25028WAT     H175326   1.524   4.351   4.838
25028WAT     H275327   1.616   4.437   4.942
25029WAT      O75328   1.630   6.929   2.085
25029WAT     H175329   1.562   6.965   2.021
25029WAT     H275330   1.630   6.984   2.168
25030WAT      O75331   8.666   4.812   3.440
25030WAT     H175332   8.676   4.782   3.345
25030WAT     H275333   8.625   4.903   3.441
25031WAT      O75334   8.564   8.802   0.096
25031WAT     H175335   8.575   8.772   0.001
25031WAT     H275336   8.510   8.886   0.098
25032WAT      O75337   5.280   3.567   5.589
25032WAT     H175338   5.315   3.499   5.524
25032WAT     H275339   5.326   3.555   5.677
25033WAT      O75340   5.053   2.246   6.792
25033WAT     H175341   4.976   2.273   6.850
25033WAT     H275342   5.084   2.324   6.739
25034WAT      O75343   7.837   4.075   8.097
25034WAT     H175344   7.743   4.063   8.064
25034WAT     H275345   7.849   4.168   8.132
25035WAT      O75346   8.447   8.748   2.400
25035WAT     H175347   8.489   8.827   2.444
25035WAT     H275348   8.409   8.687   2.469
25036WAT      O75349   3.851   8.872   6.335
25036WAT     H175350   3.809   8.819   6.409
25036WAT     H275351   3.780   8.907   6.274
25037WAT      O75352   1.643   1.294   4.109
25037WAT     H175353   1.652   1.212   4.165
25037WAT     H275354   1.572   1.354   4.147
25038WAT      O75355   8.600   7.772   5.261
25038WAT     H175356   8.588   7.753   5.164
25038WAT     H275357   8.671   7.712   5.298
25039WAT      O75358   3.036   5.778   1.902
25039WAT     H175359   2.988   5.703   1.947
25039WAT     H275360   3.069   5.842   1.970
25040WAT      O75361   2.986   2.881   5.549
25040WAT     H175362   3.015   2.844   5.637
25040WAT     H275363   3.035   2.834   5.475
25041WAT      O75364   6.066   3.567   2.039
25041WAT     H175365   5.978   3.538   2.003
25041WAT     H275366   6.137   3.502   2.010
25042WAT      O75367   2.079   8.602   3.909
25042WAT     H175368   2.135   8.681   3.934
25042WAT     H275369   2.077   8.594   3.809
25043WAT      O75370   3.870   5.187   0.859
25043WAT     H175371   3.796   5.246   0.891
25043WAT     H275372   3.944   5.187   0.926
25044WAT      O75373   8.404   8.150   1.314
25044WAT     H175374   8.480   8.191   1.364
25044WAT     H275375   8.439   8.075   1.257
25045WAT      O75376   6.075   8.808   3.672
25045WAT     H175377   6.102   8.854   3.587
25045WAT     H275378   6.011   8.867   3.722
25046WAT      O75379   7.966   4.485   1.687
25046WAT     H175380   8.048   4.515   1.735
25046WAT     H275381   7.923   4.564   1.643
25047WAT      O75382   4.859   2.536   1.536
25047WAT     H175383   4.775   2.527   1.482
25047WAT     H275384   4.938   2.537   1.476
25048WAT      O75385   0.669   5.759   7.760
25048WAT     H175386   0.708   5.717   7.842
25048WAT     H275387   0.569   5.756   7.766
25049WAT      O75388   1.488   3.914   1.385
25049WAT     H175389   1.400   3.866   1.376
25049WAT     H275390   1.502   3.942   1.480
25050WAT      O75391   1.462   6.427   1.844
25050WAT     H175392   1.525   6.350   1.840
25050WAT     H275393   1.428   6.438   1.937
25051WAT      O75394   7.619   2.390   8.882
25051WAT     H175395   7.529   2.433   8.892
25051WAT     H275396   7.608   2.291   8.870
25052WAT      O75397   3.782   8.691   0.353
25052WAT     H175398   3.828   8.709   0.440
25052WAT     H275399   3.729   8.606   0.360
25053WAT      O75400   2.857   2.645   4.433
25053WAT     H175401   2.863   2.559   4.485
25053WAT     H275402   2.857   2.722   4.497
25054WAT      O75403   0.788   9.008   6.401
25054WAT     H175404   0.785   9.094   6.351
25054WAT     H275405   0.879   8.967   6.394
25055WAT      O75406   6.299   2.293   2.358
25055WAT     H175407   6.382   2.294   2.413
25055WAT     H275408   6.227   2.343   2.406
25056WAT      O75409   9.662   9.323   7.517
25056WAT     H175410   9.629   9.414   7.541
25056WAT     H275411   9.689   9.321   7.421
25057WAT      O75412   8.253   5.245   3.413
25057WAT     H175413   8.155   5.261   3.415
25057WAT     H275414   8.302   5.331   3.429
25058WAT      O75415   2.637   8.905   8.379
25058WAT     H175416   2.728   8.923   8.341
25058WAT     H275417   2.647   8.870   8.472
25059WAT      O75418   5.518   7.632   7.452
25059WAT     H175419   5.532   7.552   7.395
25059WAT     H275420   5.571   7.623   7.536
25060WAT      O75421   9.343   1.623   9.011
25060WAT     H175422   9.354   1.542   8.953
25060WAT     H275423   9.246   1.638   9.029
25061WAT      O75424   4.163   3.574   3.881
25061WAT     H175425   4.191   3.648   3.942
25061WAT     H275426   4.232   3.501   3.884
25062WAT      O75427   1.083   9.304   3.379
25062WAT     H175428   1.051   9.398   3.363
25062WAT     H275429   1.053   9.245   3.305
25063WAT      O75430   4.215   3.703   8.259
25063WAT     H175431   4.162   3.788   8.262
25063WAT     H275432   4.278   3.706   8.181
25064WAT      O75433   1.290   1.030   2.422
25064WAT     H175434   1.261   1.119   2.456
25064WAT     H275435   1.386   1.014   2.447
25065WAT      O75436   5.029   7.787   2.976
25065WAT     H175437   5.060   7.845   2.901
25065WAT     H275438   5.034   7.691   2.949
25066WAT      O75439   9.084   2.234   3.373
25066WAT     H175440   9.140   2.204   3.450
25066WAT     H275441   9.065   2.156   3.313
25067WAT      O75442   2.971   4.287   4.035
25067WAT     H175443   2.953   4.225   4.111
25067WAT     H275444   3.041   4.353   4.062
25068WAT      O75445   4.829   2.226   9.228
25068WAT     H175446   4.806   2.129   9.240
25068WAT     H275447   4.748   2.275   9.195
25069WAT      O75448   4.193   2.758   7.741
25069WAT     H175449   4.276   2.723   7.699
25069WAT     H275450   4.196   2.743   7.840
25070WAT      O75451   5.845   4.383   4.563
25070WAT     H175452   5.887   4.354   4.649
25070WAT     H275453   5.746   4.367   4.566
25071WAT      O75454   7.790   3.256   2.261
25071WAT     H175455   7.852   3.251   2.183
25071WAT     H275456   7.727   3.332   2.249
25072WAT      O75457   0.367   8.549   7.385
25072WAT     H175458   0.271   8.551   7.413
25072WAT     H275459   0.392   8.637   7.347
25073WAT      O75460   4.376   5.031   2.638
25073WAT     H175461   4.319   5.017   2.557
25073WAT     H275462   4.404   5.127   2.643
25074WAT      O75463   1.912   5.299   5.263
25074WAT     H175464   1.988   5.359   5.290
25074WAT     H275465   1.835   5.313   5.324
25075WAT      O75466   2.992   6.601   7.214
25075WAT     H175467   3.033   6.615   7.304
25075WAT     H275468   2.897   6.571   7.226
25076WAT      O75469   0.752   1.653   8.134
25076WAT     H175470   0.697   1.666   8.217
25076WAT     H275471   0.846   1.630   8.160
25077WAT      O75472   9.235   6.689   4.542
25077WAT     H175473   9.183   6.608   4.568
25077WAT     H275474   9.178   6.771   4.553
25078WAT      O75475   5.247   5.210   2.469
25078WAT     H175476   5.268   5.233   2.564
25078WAT     H275477   5.273   5.115   2.451
25079WAT      O75478   8.002   2.634   3.529
25079WAT     H175479   7.957   2.711   3.574
25079WAT     H275480   8.025   2.659   3.435
25080WAT      O75481   9.753   7.729   3.634
25080WAT     H175482   9.672   7.677   3.606
25080WAT     H275483   9.763   7.809   3.576
25081WAT      O75484   4.431   2.869   9.539
25081WAT     H175485   4.505   2.911   9.487
25081WAT     H275486   4.424   2.914   9.628
25082WAT      O75487   1.417   9.706   8.553
25082WAT     H175488   1.421   9.751   8.464
25082WAT     H275489   1.501   9.654   8.568
25083WAT      O75490   9.315   3.534   6.983
25083WAT     H175491   9.364   3.615   7.016
25083WAT     H275492   9.302   3.542   6.884
25084WAT      O75493   7.173   2.114   9.077
25084WAT     H175494   7.192   2.016   9.075
25084WAT     H275495   7.100   2.136   9.012
25085WAT      O75496   2.460   1.133   9.300
25085WAT     H175497   2.420   1.116   9.210
25085WAT     H275498   2.434   1.225   9.331
25086WAT      O75499   1.751   9.090   2.473
25086WAT     H175500   1.849   9.072   2.483
25086WAT     H275501   1.725   9.084   2.377
25087WAT      O75502   4.621   3.754   0.926
25087WAT     H175503   4.605   3.662   0.890
25087WAT     H275504   4.626   3.750   1.026
25088WAT      O75505   7.434   0.811   1.553
25088WAT     H175506   7.488   0.896   1.548
25088WAT     H275507   7.364   0.820   1.623
25089WAT      O75508   4.276   5.351   8.749
25089WAT     H175509   4.265   5.351   8.848
25089WAT     H275510   4.270   5.257   8.715
25090WAT      O75511   6.032   5.135   6.405
25090WAT     H175512   6.033   5.179   6.315
25090WAT     H275513   5.965   5.061   6.405
25091WAT      O75514   1.329   0.617   5.959
25091WAT     H175515   1.273   0.671   5.895
25091WAT     H275516   1.301   0.521   5.954
25092WAT      O75517   6.556   1.315   4.644
25092WAT     H175518   6.537   1.308   4.742
25092WAT     H275519   6.493   1.256   4.594
25093WAT      O75520   1.041   9.672   5.997
25093WAT     H175521   1.029   9.770   6.006
25093WAT     H275522   1.138   9.651   5.986
25094WAT      O75523   5.557   6.418   7.580
25094WAT     H175524   5.466   6.387   7.605
25094WAT     H275525   5.591   6.364   7.503
25095WAT      O75526   6.619   9.447   2.947
25095WAT     H175527   6.553   9.409   2.883
25095WAT     H275528   6.703   9.392   2.946
25096WAT      O75529   6.263   8.200   7.042
25096WAT     H175530   6.260   8.152   6.954
25096WAT     H275531   6.175   8.190   7.088
25097WAT      O75532   4.925   3.634   5.561
25097WAT     H175533   4.956   3.570   5.631
25097WAT     H275534   4.986   3.713   5.559
25098WAT      O75535   8.884   7.535   8.286
25098WAT     H175536   8.842   7.596   8.218
25098WAT     H275537   8.889   7.581   8.374
25099WAT      O75538   6.282   7.627   5.466
25099WAT     H175539   6.220   7.694   5.424
25099WAT     H275540   6.280   7.638   5.565
25100WAT      O75541   5.350   6.669   5.066
25100WAT     H175542   5.367   6.690   5.162
25100WAT     H275543   5.430   6.624   5.026
25101WAT      O75544   7.661   6.637   2.900
25101WAT     H175545   7.615   6.713   2.854
25101WAT     H275546   7.760   6.654   2.902
25102WAT      O75547   3.596   6.842   1.283
25102WAT     H175548   3.624   6.934   1.256
25102WAT     H275549   3.568   6.842   1.378
25103WAT      O75550   4.145   2.874   1.387
25103WAT     H175551   4.201   2.927   1.323
25103WAT     H275552   4.204   2.811   1.438
25104WAT      O75553   4.673   7.206   3.959
25104WAT     H175554   4.745   7.168   4.017
25104WAT     H275555   4.602   7.248   4.016
25105WAT      O75556   0.189   6.588   8.312
25105WAT     H175557   0.252   6.511   8.301
25105WAT     H275558   0.175   6.606   8.409
25106WAT      O75559   3.571   7.387   0.152
25106WAT     H175560   3.517   7.417   0.073
25106WAT     H275561   3.646   7.328   0.120
25107WAT      O75562   5.374   8.506   2.880
25107WAT     H175563   5.437   8.447   2.829
25107WAT     H275564   5.298   8.451   2.915
25108WAT      O75565   6.615   2.306   1.480
25108WAT     H175566   6.571   2.250   1.411
25108WAT     H275567   6.558   2.387   1.498
25109WAT      O75568   2.552   9.406   7.976
25109WAT     H175569   2.542   9.385   7.879
25109WAT     H275570   2.465   9.441   8.011
25110WAT      O75571   8.065   3.111   1.952
25110WAT     H175572   8.083   3.140   2.047
25110WAT     H275573   8.024   3.187   1.902
25111WAT      O75574   8.619   4.149   8.709
25111WAT     H175575   8.549   4.090   8.669
25111WAT     H275576   8.684   4.093   8.761
25112WAT      O75577   6.413   2.377   4.773
25112WAT     H175578   6.369   2.396   4.861
25112WAT     H275579   6.355   2.410   4.699
25113WAT      O75580   9.306   7.592   0.793
25113WAT     H175581   9.312   7.690   0.771
25113WAT     H275582   9.393   7.562   0.833
25114WAT      O75583   0.477   9.785   9.461
25114WAT     H175584   0.393   9.753   9.418
25114WAT     H275585   0.543   9.812   9.390
25115WAT      O75586   8.042   2.149   5.979
25115WAT     H175587   7.979   2.165   5.904
25115WAT     H275588   8.080   2.056   5.973
25116WAT      O75589   1.516   8.910   4.549
25116WAT     H175590   1.495   9.007   4.553
25116WAT     H275591   1.614   8.897   4.533
25117WAT      O75592   5.670   3.213   1.794
25117WAT     H175593   5.604   3.152   1.838
25117WAT     H275594   5.626   3.300   1.772
25118WAT      O75595   3.365   4.246   9.039
25118WAT     H175596   3.394   4.160   9.080
25118WAT     H275597   3.415   4.322   9.082
25119WAT      O75598   4.099   4.590   7.424
25119WAT     H175599   4.144   4.504   7.449
25119WAT     H275600   4.158   4.641   7.362
25120WAT      O75601   6.538   9.350   3.269
25120WAT     H175602   6.612   9.302   3.316
25120WAT     H275603   6.483   9.399   3.337
25121WAT      O75604   5.091   1.136   7.976
25121WAT     H175605   5.040   1.221   7.977
25121WAT     H275606   5.106   1.107   7.881
25122WAT      O75607   5.908   9.641   6.581
25122WAT     H175608   5.977   9.581   6.543
25122WAT     H275609   5.834   9.655   6.515
25123WAT      O75610   5.350   6.319   7.910
25123WAT     H175611   5.270   6.275   7.868
25123WAT     H275612   5.323   6.406   7.949
25124WAT      O75613   1.780   4.474   9.487
25124WAT     H175614   1.752   4.507   9.577
25124WAT     H275615   1.799   4.552   9.428
25125WAT      O75616   4.539   1.714   9.376
25125WAT     H175617   4.505   1.702   9.469
25125WAT     H275618   4.468   1.758   9.320
25126WAT      O75619   7.433   8.101   2.822
25126WAT     H175620   7.473   8.193   2.829
25126WAT     H275621   7.401   8.072   2.912
25127WAT      O75622   3.648   6.583   9.212
25127WAT     H175623   3.656   6.537   9.123
25127WAT     H275624   3.710   6.541   9.278
25128WAT      O75625   1.970   7.399   6.729
25128WAT     H175626   1.974   7.310   6.775
25128WAT     H275627   1.923   7.464   6.789
25129WAT      O75628   2.663   6.992   7.440
25129WAT     H175629   2.682   7.077   7.491
25129WAT     H275630   2.649   6.918   7.505
25130WAT      O75631   6.055   0.356   0.172
25130WAT     H175632   6.008   0.413   0.240
25130WAT     H275633   6.115   0.413   0.117
25131WAT      O75634   6.321   9.599   3.152
25131WAT     H175635   6.346   9.609   3.248
25131WAT     H275636   6.404   9.596   3.096
25132WAT      O75637   3.119   9.660   3.647
25132WAT     H175638   3.074   9.581   3.605
25132WAT     H275639   3.078   9.744   3.611
25133WAT      O75640   2.311   5.515   5.417
25133WAT     H175641   2.298   5.534   5.514
25133WAT     H275642   2.321   5.416   5.403
25134WAT      O75643   9.755   0.370   7.328
25134WAT     H175644   9.724   0.401   7.239
25134WAT     H275645   9.711   0.425   7.400
25135WAT      O75646   6.749   3.991   2.455
25135WAT     H175647   6.734   4.076   2.505
25135WAT     H275648   6.692   3.918   2.494
25136WAT      O75649   9.667   9.640   3.155
25136WAT     H175650   9.649   9.542   3.144
25136WAT     H275651   9.680   9.682   3.065
25137WAT      O75652   5.142   4.673   9.478
25137WAT     H175653   5.117   4.602   9.543
25137WAT     H275654   5.159   4.632   9.388
25138WAT      O75655   1.485   0.126   5.995
25138WAT     H175656   1.421   0.201   6.009
25138WAT     H275657   1.492   0.072   6.078
25139WAT      O75658   9.774   8.202   5.542
25139WAT     H175659   9.736   8.133   5.481
25139WAT     H275660   9.703   8.230   5.608
25140WAT      O75661   0.652   4.951   7.388
25140WAT     H175662   0.644   4.904   7.300
25140WAT     H275663   0.662   4.884   7.461
25141WAT      O75664   1.597   0.362   3.567
25141WAT     H175665   1.511   0.397   3.604
25141WAT     H275666   1.628   0.421   3.493
25142WAT      O75667   2.075   3.893   2.116
25142WAT     H175668   2.078   3.941   2.203
25142WAT     H275669   2.143   3.932   2.054
25143WAT      O75670   1.889   4.066   8.667
25143WAT     H175671   1.842   4.153   8.671
25143WAT     H275672   1.959   4.063   8.739
25144WAT      O75673   4.889   5.588   8.097
25144WAT     H175674   4.820   5.566   8.165
25144WAT     H275675   4.975   5.611   8.143
25145WAT      O75676   9.186   7.827   4.526
25145WAT     H175677   9.114   7.768   4.560
25145WAT     H275678   9.212   7.799   4.433
25146WAT      O75679   4.688   2.455   6.439
25146WAT     H175680   4.714   2.546   6.406
25146WAT     H275681   4.638   2.406   6.368
25147WAT      O75682   0.220   7.930   9.477
25147WAT     H175683   0.148   7.990   9.444
25147WAT     H275684   0.182   7.840   9.500
25148WAT      O75685   6.829   2.206   7.748
25148WAT     H175686   6.750   2.209   7.810
25148WAT     H275687   6.913   2.204   7.802
25149WAT      O75688   5.836   3.137   1.532
25149WAT     H175689   5.744   3.168   1.506
25149WAT     H275690   5.840   3.123   1.631
25150WAT      O75691   2.652   3.923   3.660
25150WAT     H175692   2.611   3.985   3.727
25150WAT     H275693   2.728   3.874   3.703
25151WAT      O75694   4.726   8.420   3.898
25151WAT     H175695   4.786   8.371   3.961
25151WAT     H275696   4.689   8.356   3.831
25152WAT      O75697   4.829   8.666   3.744
25152WAT     H175698   4.784   8.752   3.765
25152WAT     H275699   4.793   8.594   3.804
25153WAT      O75700   9.579   4.725   6.665
25153WAT     H175701   9.677   4.720   6.649
25153WAT     H275702   9.552   4.821   6.675
25154WAT      O75703   8.394   4.523   6.436
25154WAT     H175704   8.312   4.495   6.486
25154WAT     H275705   8.470   4.534   6.500
25155WAT      O75706   1.540   8.337   1.040
25155WAT     H175707   1.576   8.268   1.103
25155WAT     H275708   1.533   8.425   1.086
25156WAT      O75709   2.089   5.337   0.432
25156WAT     H175710   2.067   5.289   0.517
25156WAT     H275711   2.176   5.304   0.396
25157WAT      O75712   2.873   6.541   8.637
25157WAT     H175713   2.896   6.465   8.576
25157WAT     H275714   2.784   6.524   8.680
25158WAT      O75715   7.580   4.152   7.659
25158WAT     H175716   7.628   4.182   7.576
25158WAT     H275717   7.606   4.210   7.736
25159WAT      O75718   3.244   5.138   8.319
25159WAT     H175719   3.322   5.200   8.315
25159WAT     H275720   3.265   5.055   8.267
25160WAT      O75721   9.156   4.075   5.186
25160WAT     H175722   9.183   4.126   5.267
25160WAT     H275723   9.082   4.012   5.209
25161WAT      O75724   7.515   0.835   9.229
25161WAT     H175725   7.577   0.869   9.300
25161WAT     H275726   7.481   0.744   9.256
25162WAT      O75727   8.093   7.021   3.134
25162WAT     H175728   8.007   7.015   3.184
25162WAT     H275729   8.075   7.015   3.036
25163WAT      O75730   2.869   7.060   5.317
25163WAT     H175731   2.842   7.026   5.227
25163WAT     H275732   2.840   7.155   5.327
25164WAT      O75733   8.818   8.090   1.201
25164WAT     H175734   8.765   8.082   1.116
25164WAT     H275735   8.913   8.114   1.179
25165WAT      O75736   3.666   4.610   5.637
25165WAT     H175737   3.745   4.605   5.698
25165WAT     H275738   3.603   4.535   5.658
25166WAT      O75739   6.783   9.024   3.664
25166WAT     H175740   6.882   9.026   3.657
25166WAT     H275741   6.743   9.045   3.575
25167WAT      O75742   7.016   6.375   0.400
25167WAT     H175743   6.983   6.346   0.490
25167WAT     H275744   6.939   6.377   0.335
25168WAT      O75745   0.729   4.244   8.404
25168WAT     H175746   0.785   4.312   8.451
25168WAT     H275747   0.650   4.288   8.362
25169WAT      O75748   3.368   3.993   9.430
25169WAT     H175749   3.314   3.909   9.419
25169WAT     H275750   3.465   3.969   9.440
25170WAT      O75751   8.304   3.482   8.530
25170WAT     H175752   8.241   3.531   8.589
25170WAT     H275753   8.360   3.547   8.478
25171WAT      O75754   8.811   4.384   6.688
25171WAT     H175755   8.869   4.362   6.609
25171WAT     H275756   8.772   4.300   6.725
25172WAT      O75757   1.315   7.622   9.848
25172WAT     H175758   1.292   7.644   9.753
25172WAT     H275759   1.232   7.594   9.896
25173WAT      O75760   2.818   7.544   2.648
25173WAT     H175761   2.845   7.542   2.744
25173WAT     H275762   2.875   7.480   2.596
25174WAT      O75763   0.226   9.012   8.576
25174WAT     H175764   0.191   9.034   8.667
25174WAT     H275765   0.240   8.914   8.568
25175WAT      O75766   3.245   1.860   4.209
25175WAT     H175767   3.296   1.910   4.278
25175WAT     H275768   3.304   1.790   4.168
25176WAT      O75769   3.663   7.642   5.488
25176WAT     H175770   3.760   7.669   5.481
25176WAT     H275771   3.646   7.563   5.430
25177WAT      O75772   6.272   7.157   2.614
25177WAT     H175773   6.321   7.196   2.536
25177WAT     H275774   6.337   7.117   2.678
25178WAT      O75775   2.093   6.765   7.153
25178WAT     H175776   2.021   6.726   7.096
25178WAT     H275777   2.108   6.860   7.128
25179WAT      O75778   0.902   9.561   8.540
25179WAT     H175779   0.837   9.611   8.482
25179WAT     H275780   0.966   9.510   8.482
25180WAT      O75781   2.364   9.173   3.806
25180WAT     H175782   2.419   9.250   3.773
25180WAT     H275783   2.282   9.164   3.749
25181WAT      O75784   7.337   3.235   8.608
25181WAT     H175785   7.302   3.207   8.697
25181WAT     H275786   7.261   3.267   8.551
25182WAT      O75787   5.229   5.842   2.950
25182WAT     H175788   5.183   5.773   2.895
25182WAT     H275789   5.269   5.799   3.031
25183WAT      O75790   5.668   6.780   9.496
25183WAT     H175791   5.659   6.863   9.550
25183WAT     H275792   5.729   6.716   9.543
25184WAT      O75793   2.993   5.676   8.009
25184WAT     H175794   2.972   5.603   8.074
25184WAT     H275795   2.971   5.764   8.050
25185WAT      O75796   6.188   4.639   5.601
25185WAT     H175797   6.139   4.712   5.649
25185WAT     H275798   6.287   4.653   5.610
25186WAT      O75799   2.191   5.565   0.692
25186WAT     H175800   2.273   5.595   0.642
25186WAT     H275801   2.112   5.572   0.631
25187WAT      O75802   4.596   9.627   0.916
25187WAT     H175803   4.585   9.528   0.917
25187WAT     H275804   4.507   9.671   0.912
25188WAT      O75805   5.819   6.778   2.985
25188WAT     H175806   5.885   6.706   2.966
25188WAT     H275807   5.742   6.770   2.922
25189WAT      O75808   1.999   7.409   3.292
25189WAT     H175809   1.909   7.368   3.307
25189WAT     H275810   1.993   7.508   3.306
25190WAT      O75811   2.430   1.611   4.277
25190WAT     H175812   2.451   1.579   4.185
25190WAT     H275813   2.382   1.699   4.272
25191WAT      O75814   2.902   0.948   4.644
25191WAT     H175815   2.989   0.987   4.675
25191WAT     H275816   2.885   0.976   4.549
25192WAT      O75817   8.177   5.816   3.903
25192WAT     H175818   8.232   5.733   3.909
25192WAT     H275819   8.237   5.896   3.909
25193WAT      O75820   1.522   5.811   7.745
25193WAT     H175821   1.597   5.843   7.803
25193WAT     H275822   1.525   5.858   7.657
25194WAT      O75823   0.718   2.343   1.611
25194WAT     H175824   0.765   2.313   1.528
25194WAT     H275825   0.649   2.275   1.637
25195WAT      O75826   4.233   1.437   1.870
25195WAT     H175827   4.232   1.407   1.966
25195WAT     H275828   4.301   1.509   1.859
25196WAT      O75829   2.405   0.272   6.188
25196WAT     H175830   2.407   0.349   6.251
25196WAT     H275831   2.497   0.235   6.177
25197WAT      O75832   5.737   8.471   8.498
25197WAT     H175833   5.685   8.396   8.456
25197WAT     H275834   5.728   8.553   8.443
25198WAT      O75835   2.558   7.822   1.443
25198WAT     H175836   2.512   7.785   1.524
25198WAT     H275837   2.559   7.753   1.371
25199WAT      O75838   3.266   7.212   2.955
25199WAT     H175839   3.361   7.184   2.966
25199WAT     H275840   3.221   7.215   3.044
25200WAT      O75841   7.492   6.381   6.092
25200WAT     H175842   7.591   6.395   6.095
25200WAT     H275843   7.464   6.324   6.169
25201WAT      O75844   2.204   7.197   1.978
25201WAT     H175845   2.164   7.288   1.985
25201WAT     H275846   2.303   7.202   1.996
25202WAT      O75847   5.460   6.870   3.832
25202WAT     H175848   5.493   6.878   3.926
25202WAT     H275849   5.504   6.792   3.788
25203WAT      O75850   7.949   0.445   2.676
25203WAT     H175851   7.995   0.451   2.588
25203WAT     H275852   8.017   0.447   2.749
25204WAT      O75853   0.931   3.351   1.718
25204WAT     H175854   0.837   3.378   1.733
25204WAT     H275855   0.964   3.300   1.797
25205WAT      O75856   8.529   2.702   3.160
25205WAT     H175857   8.557   2.785   3.209
25205WAT     H275858   8.606   2.639   3.156
25206WAT      O75859   2.758   1.241   8.284
25206WAT     H175860   2.842   1.296   8.291
25206WAT     H275861   2.739   1.223   8.188
25207WAT      O75862   1.527   4.145   4.674
25207WAT     H175863   1.513   4.132   4.576
25207WAT     H275864   1.543   4.057   4.718
25208WAT      O75865   2.139   7.724   3.216
25208WAT     H175866   2.223   7.706   3.266
25208WAT     H275867   2.144   7.815   3.175
25209WAT      O75868   3.714   2.551   7.986
25209WAT     H175869   3.764   2.554   8.073
25209WAT     H275870   3.624   2.509   8.000
25210WAT      O75871   5.415   0.565   1.859
25210WAT     H175872   5.467   0.586   1.942
25210WAT     H275873   5.425   0.641   1.794
25211WAT      O75874   7.698   8.412   0.335
25211WAT     H175875   7.677   8.329   0.387
25211WAT     H275876   7.629   8.482   0.354
25212WAT      O75877   2.137   2.065   6.259
25212WAT     H175878   2.171   2.127   6.330
25212WAT     H275879   2.095   1.985   6.301
25213WAT      O75880   3.531   1.868   2.601
25213WAT     H175881   3.625   1.841   2.619
25213WAT     H275882   3.513   1.956   2.646
25214WAT      O75883   0.272   7.192   4.122
25214WAT     H175884   0.291   7.284   4.089
25214WAT     H275885   0.238   7.195   4.216
25215WAT      O75886   0.208   9.123   0.918
25215WAT     H175887   0.146   9.183   0.967
25215WAT     H275888   0.218   9.154   0.823
25216WAT      O75889   3.909   4.589   6.057
25216WAT     H175890   3.821   4.547   6.081
25216WAT     H275891   3.983   4.533   6.094
25217WAT      O75892   6.123   0.860   8.222
25217WAT     H175893   6.158   0.781   8.172
25217WAT     H275894   6.190   0.889   8.290
25218WAT      O75895   9.634   1.488   0.061
25218WAT     H175896   9.673   1.505   0.152
25218WAT     H275897   9.628   1.390   0.045
25219WAT      O75898   0.878   0.010   1.458
25219WAT     H175899   0.828  -0.024   1.378
25219WAT     H275900   0.972   0.029   1.432
25220WAT      O75901   9.601   9.065   2.109
25220WAT     H175902   9.690   9.071   2.064
25220WAT     H275903   9.548   9.147   2.089
25221WAT      O75904   1.937   1.124   3.123
25221WAT     H175905   1.906   1.208   3.169
25221WAT     H275906   1.940   1.049   3.190
25222WAT      O75907   8.782   9.125   1.979
25222WAT     H175908   8.878   9.107   2.002
25222WAT     H275909   8.777   9.207   1.922
25223WAT      O75910   3.628   0.866   8.090
25223WAT     H175911   3.537   0.828   8.076
25223WAT     H275912   3.676   0.871   8.002
25224WAT      O75913   8.151   0.421   6.392
25224WAT     H175914   8.051   0.417   6.398
25224WAT     H275915   8.183   0.508   6.429
25225WAT      O75916   4.640   2.033   1.695
25225WAT     H175917   4.672   1.954   1.643
25225WAT     H275918   4.619   2.109   1.633
25226WAT      O75919   8.825   6.494   5.434
25226WAT     H175920   8.774   6.511   5.350
25226WAT     H275921   8.803   6.565   5.501
25227WAT      O75922   4.053   4.985   1.101
25227WAT     H175923   3.999   5.043   1.162
25227WAT     H275924   4.083   4.903   1.151
25228WAT      O75925   1.681   0.526   4.917
25228WAT     H175926   1.739   0.459   4.963
25228WAT     H275927   1.656   0.491   4.826
25229WAT      O75928   2.400   6.729   6.190
25229WAT     H175929   2.488   6.765   6.160
25229WAT     H275930   2.385   6.638   6.150
25230WAT      O75931   3.218   4.724   1.886
25230WAT     H175932   3.269   4.670   1.819
25230WAT     H275933   3.268   4.808   1.907
25231WAT      O75934   2.876   7.880   7.616
25231WAT     H175935   2.862   7.828   7.700
25231WAT     H275936   2.958   7.846   7.569
25232WAT      O75937   1.045   5.210   3.046
25232WAT     H175938   1.061   5.116   3.016
25232WAT     H275939   1.015   5.266   2.969
25233WAT      O75940   4.744   0.303   2.442
25233WAT     H175941   4.839   0.305   2.475
25233WAT     H275942   4.736   0.362   2.363
25234WAT      O75943   9.408   3.834   8.873
25234WAT     H175944   9.400   3.736   8.856
25234WAT     H275945   9.380   3.854   8.967
25235WAT      O75946   2.509   6.615   7.410
25235WAT     H175947   2.514   6.686   7.481
25235WAT     H275948   2.568   6.538   7.437
25236WAT      O75949   5.291   4.231   2.365
25236WAT     H175950   5.340   4.155   2.408
25236WAT     H275951   5.295   4.311   2.425
25237WAT      O75952   6.877   3.546   6.549
25237WAT     H175953   6.836   3.455   6.539
25237WAT     H275954   6.807   3.610   6.581
25238WAT      O75955   7.049   3.062   0.626
25238WAT     H175956   7.087   2.987   0.679
25238WAT     H275957   7.002   3.026   0.545
25239WAT      O75958   9.535   5.600   2.606
25239WAT     H175959   9.594   5.565   2.533
25239WAT     H275960   9.486   5.523   2.648
25240WAT      O75961   6.025   5.382   8.165
25240WAT     H175962   6.070   5.295   8.187
25240WAT     H275963   6.004   5.430   8.250
25241WAT      O75964   2.311   5.721   9.257
25241WAT     H175965   2.351   5.647   9.204
25241WAT     H275966   2.277   5.686   9.344
25242WAT      O75967   6.742   3.098   9.357
25242WAT     H175968   6.761   3.012   9.405
25242WAT     H275969   6.676   3.081   9.284
25243WAT      O75970   3.115   3.453   8.949
25243WAT     H175971   3.187   3.437   8.881
25243WAT     H275972   3.049   3.518   8.913
25244WAT      O75973   4.713   7.703   3.799
25244WAT     H175974   4.657   7.626   3.769
25244WAT     H275975   4.809   7.675   3.804
25245WAT      O75976   9.149   8.112   0.570
25245WAT     H175977   9.139   8.199   0.619
25245WAT     H275978   9.073   8.101   0.506
25246WAT      O75979   3.532   1.282   2.675
25246WAT     H175980   3.460   1.307   2.610
25246WAT     H275981   3.492   1.233   2.752
25247WAT      O75982   4.976   7.710   4.058
25247WAT     H175983   4.904   7.646   4.085
25247WAT     H275984   5.055   7.699   4.118
25248WAT      O75985   1.714   5.644   8.232
25248WAT     H175986   1.622   5.667   8.265
25248WAT     H275987   1.722   5.545   8.223
25249WAT      O75988   9.883   3.729   0.165
25249WAT     H175989   9.849   3.635   0.165
25249WAT     H275990   9.983   3.729   0.171
25250WAT      O75991   5.545   3.286   7.525
25250WAT     H175992   5.535   3.246   7.433
25250WAT     H275993   5.529   3.384   7.520
25251WAT      O75994   2.033   7.179   0.163
25251WAT     H175995   2.072   7.088   0.179
25251WAT     H275996   1.965   7.198   0.234
25252WAT      O75997   3.479   4.394   4.273
25252WAT     H175998   3.464   4.451   4.354
25252WAT     H275999   3.391   4.370   4.233
25253WAT      O76000   6.642   2.790   5.106
25253WAT     H176001   6.619   2.871   5.159
25253WAT     H276002   6.701   2.816   5.029
25254WAT      O76003   1.358   7.737   5.517
25254WAT     H176004   1.357   7.679   5.598
25254WAT     H276005   1.337   7.831   5.544
25255WAT      O76006   9.152   8.701   3.053
25255WAT     H176007   9.194   8.786   3.020
25255WAT     H276008   9.190   8.624   3.002
25256WAT      O76009   8.450   1.391   0.660
25256WAT     H176010   8.455   1.490   0.675
25256WAT     H276011   8.457   1.371   0.563
25257WAT      O76012   5.906   5.689   4.056
25257WAT     H176013   5.849   5.728   4.129
25257WAT     H276014   5.847   5.651   3.985
25258WAT      O76015   6.725   3.165   2.597
25258WAT     H176016   6.692   3.116   2.678
25258WAT     H276017   6.780   3.104   2.542
25259WAT      O76018   5.639   2.719   8.496
25259WAT     H176019   5.576   2.698   8.421
25259WAT     H276020   5.683   2.635   8.528
25260WAT      O76021   2.811   9.249   0.271
25260WAT     H176022   2.866   9.178   0.314
25260WAT     H276023   2.811   9.236   0.172
25261WAT      O76024   0.619   5.674   1.331
25261WAT     H176025   0.524   5.701   1.318
25261WAT     H276026   0.672   5.697   1.250
25262WAT      O76027   1.366   6.372   2.608
25262WAT     H176028   1.408   6.446   2.556
25262WAT     H276029   1.266   6.383   2.606
25263WAT      O76030   4.023   8.029   5.688
25263WAT     H176031   4.101   8.063   5.739
25263WAT     H276032   4.044   8.026   5.591
25264WAT      O76033   2.934   6.814   2.842
25264WAT     H176034   2.926   6.910   2.818
25264WAT     H276035   3.010   6.773   2.792
25265WAT      O76036   3.667   7.458   4.191
25265WAT     H176037   3.669   7.513   4.274
25265WAT     H276038   3.602   7.498   4.126
25266WAT      O76039   6.184   1.039   8.696
25266WAT     H176040   6.142   1.097   8.766
25266WAT     H276041   6.254   1.092   8.647
25267WAT      O76042   3.829   9.791   6.544
25267WAT     H176043   3.877   9.822   6.626
25267WAT     H276044   3.863   9.841   6.464
25268WAT      O76045   7.251   6.061   6.550
25268WAT     H176046   7.309   5.980   6.544
25268WAT     H276047   7.282   6.120   6.624
25269WAT      O76048   6.137   5.840   5.045
25269WAT     H176049   6.203   5.773   5.010
25269WAT     H276050   6.114   5.817   5.139
25270WAT      O76051   6.537   1.533   9.708
25270WAT     H176052   6.605   1.471   9.748
25270WAT     H276053   6.522   1.509   9.612
25271WAT      O76054   7.925   1.468   9.177
25271WAT     H176055   7.900   1.500   9.268
25271WAT     H276056   7.936   1.369   9.177
25272WAT      O76057   6.035   2.746   1.679
25272WAT     H176058   5.952   2.752   1.624
25272WAT     H276059   6.112   2.786   1.629
25273WAT      O76060   2.840   4.149   4.235
25273WAT     H176061   2.918   4.118   4.289
25273WAT     H276062   2.769   4.185   4.296
25274WAT      O76063   2.888   6.624   4.979
25274WAT     H176064   2.869   6.625   5.077
25274WAT     H276065   2.925   6.712   4.951
25275WAT      O76066   1.779   8.863   7.632
25275WAT     H176067   1.864   8.897   7.673
25275WAT     H276068   1.797   8.831   7.539
25276WAT      O76069   9.694   4.584   2.263
25276WAT     H176070   9.639   4.597   2.345
25276WAT     H276071   9.680   4.492   2.227
25277WAT      O76072   9.878   6.405   0.115
25277WAT     H176073   9.804   6.389   0.049
25277WAT     H276074   9.860   6.352   0.198
25278WAT      O76075   2.259   4.095   1.558
25278WAT     H176076   2.219   4.168   1.614
25278WAT     H276077   2.303   4.028   1.618
25279WAT      O76078   3.637   7.420   7.581
25279WAT     H176079   3.619   7.409   7.484
25279WAT     H276080   3.703   7.351   7.610
25280WAT      O76081   2.101   5.936   3.091
25280WAT     H176082   2.142   5.847   3.110
25280WAT     H276083   2.089   5.986   3.177
25281WAT      O76084   8.208   8.560   3.966
25281WAT     H176085   8.127   8.502   3.955
25281WAT     H276086   8.186   8.637   4.026
25282WAT      O76087   3.046   7.512   8.396
25282WAT     H176088   3.103   7.456   8.456
25282WAT     H276089   2.986   7.453   8.342
25283WAT      O76090   9.476   7.367   1.738
25283WAT     H176091   9.450   7.357   1.642
25283WAT     H276092   9.507   7.279   1.774
25284WAT      O76093   2.411   6.157   1.755
25284WAT     H176094   2.339   6.120   1.695
25284WAT     H276095   2.463   6.081   1.795
25285WAT      O76096   9.093   1.471   5.677
25285WAT     H176097   9.188   1.461   5.707
25285WAT     H276098   9.046   1.383   5.686
25286WAT      O76099   6.621   2.305   9.340
25286WAT     H176100   6.694   2.371   9.322
25286WAT     H276101   6.660   2.217   9.365
25287WAT      O76102   4.097   7.378   2.550
25287WAT     H176103   4.070   7.446   2.618
25287WAT     H276104   4.173   7.413   2.495
25288WAT      O76105   0.885   5.473   0.138
25288WAT     H176106   0.878   5.385   0.186
25288WAT     H276107   0.845   5.545   0.195
25289WAT      O76108   4.619   0.754   4.982
25289WAT     H176109   4.679   0.834   4.990
25289WAT     H276110   4.615   0.707   5.070
25290WAT      O76111   8.408   0.281   4.290
25290WAT     H176112   8.450   0.206   4.238
25290WAT     H276113   8.391   0.358   4.230
25291WAT      O76114   3.914   5.389   6.357
25291WAT     H176115   3.830   5.438   6.333
25291WAT     H276116   3.894   5.292   6.371
25292WAT      O76117   1.144   0.818   8.047
25292WAT     H176118   1.205   0.742   8.022
25292WAT     H276119   1.183   0.870   8.122
25293WAT      O76120   1.232   0.398   9.451
25293WAT     H176121   1.172   0.461   9.401
25293WAT     H276122   1.214   0.405   9.549
25294WAT      O76123   2.034   5.685   6.591
25294WAT     H176124   2.097   5.628   6.538
25294WAT     H276125   2.081   5.767   6.622
25295WAT      O76126   7.250   7.962   8.165
25295WAT     H176127   7.320   7.909   8.212
25295WAT     H276128   7.238   8.050   8.212
25296WAT      O76129   7.121   7.572   2.630
25296WAT     H176130   7.158   7.664   2.644
25296WAT     H276131   7.050   7.575   2.559
25297WAT      O76132   3.048   7.177   4.253
25297WAT     H176133   2.962   7.130   4.274
25297WAT     H276134   3.036   7.234   4.172
25298WAT      O76135   6.539   0.538   2.113
25298WAT     H176136   6.511   0.533   2.017
25298WAT     H276137   6.508   0.625   2.152
25299WAT      O76138   9.072   2.934   0.171
25299WAT     H176139   9.152   2.906   0.223
25299WAT     H276140   9.040   2.858   0.114
25300WAT      O76141   8.789   7.797   0.889
25300WAT     H176142   8.771   7.794   0.987
25300WAT     H276143   8.803   7.705   0.854
25301WAT      O76144   0.270   6.222   3.743
25301WAT     H176145   0.297   6.281   3.667
25301WAT     H276146   0.230   6.137   3.708
25302WAT      O76147   0.478   2.310   6.646
25302WAT     H176148   0.397   2.352   6.604
25302WAT     H276149   0.548   2.379   6.660
25303WAT      O76150   3.033   4.267   9.885
25303WAT     H176151   2.948   4.216   9.872
25303WAT     H276152   3.013   4.365   9.895
25304WAT      O76153   0.997   4.376   9.284
25304WAT     H176154   0.972   4.391   9.188
25304WAT     H276155   0.915   4.383   9.342
25305WAT      O76156   9.680   8.939   0.286
25305WAT     H176157   9.650   9.022   0.333
25305WAT     H276158   9.777   8.922   0.304
25306WAT      O76159   8.529   5.923   6.021
25306WAT     H176160   8.499   5.890   6.110
25306WAT     H276161   8.559   5.846   5.965
25307WAT      O76162   0.024   7.905   0.777
25307WAT     H176163  -0.032   7.913   0.860
25307WAT     H276164   0.120   7.893   0.802
25308WAT      O76165   0.719   7.519   0.571
25308WAT     H176166   0.755   7.454   0.637
25308WAT     H276167   0.740   7.612   0.600
25309WAT      O76168   6.669   0.918   3.314
25309WAT     H176169   6.692   0.834   3.266
25309WAT     H276170   6.595   0.964   3.265
25310WAT      O76171   3.312   5.315   5.036
25310WAT     H176172   3.222   5.288   5.070
25310WAT     H276173   3.302   5.385   4.965
25311WAT      O76174   9.116   1.322   2.088
25311WAT     H176175   9.159   1.260   2.023
25311WAT     H276176   9.146   1.300   2.181
25312WAT      O76177   6.367   2.433   0.107
25312WAT     H176178   6.420   2.349   0.118
25312WAT     H276179   6.368   2.460   0.011
25313WAT      O76180   0.375   2.505   4.463
25313WAT     H176181   0.283   2.524   4.498
25313WAT     H276182   0.393   2.564   4.384
25314WAT      O76183   4.158   9.345   2.346
25314WAT     H176184   4.173   9.433   2.390
25314WAT     H276185   4.245   9.311   2.309
25315WAT      O76186   5.867   0.370   0.649
25315WAT     H176187   5.927   0.292   0.630
25315WAT     H276188   5.817   0.353   0.734
25316WAT      O76189   1.607   5.325   2.741
25316WAT     H176190   1.660   5.271   2.807
25316WAT     H276191   1.511   5.298   2.746
25317WAT      O76192   2.072   4.242   5.504
25317WAT     H176193   2.170   4.242   5.487
25317WAT     H276194   2.024   4.206   5.423
25318WAT      O76195   8.640   5.733   9.601
25318WAT     H176196   8.693   5.797   9.657
25318WAT     H276197   8.698   5.696   9.529
25319WAT      O76198   3.961   4.442   0.490
25319WAT     H176199   3.927   4.403   0.576
25319WAT     H276200   3.903   4.519   0.463
25320WAT      O76201   0.209   9.363   5.737
25320WAT     H176202   0.236   9.266   5.740
25320WAT     H276203   0.130   9.378   5.797
25321WAT      O76204   3.828   3.604   7.002
25321WAT     H176205   3.762   3.613   7.076
25321WAT     H276206   3.877   3.690   6.990
25322WAT      O76207   0.164   9.460   8.392
25322WAT     H176208   0.141   9.554   8.416
25322WAT     H276209   0.240   9.459   8.328
25323WAT      O76210   7.833   7.372   1.832
25323WAT     H176211   7.815   7.385   1.929
25323WAT     H276212   7.777   7.295   1.798
25324WAT      O76213   5.759   0.799   1.122
25324WAT     H176214   5.834   0.747   1.164
25324WAT     H276215   5.681   0.799   1.184
25325WAT      O76216   5.902   3.927   4.550
25325WAT     H176217   5.967   3.854   4.573
25325WAT     H276218   5.875   3.974   4.634
25326WAT      O76219   5.735   3.128   5.356
25326WAT     H176220   5.733   3.214   5.408
25326WAT     H276221   5.807   3.132   5.288
25327WAT      O76222   8.951   2.824   5.180
25327WAT     H176223   8.966   2.732   5.215
25327WAT     H276224   8.924   2.885   5.254
25328WAT      O76225   6.629   8.572   4.243
25328WAT     H176226   6.592   8.660   4.214
25328WAT     H276227   6.562   8.500   4.224
25329WAT      O76228   3.827   6.856   3.405
25329WAT     H176229   3.833   6.942   3.454
25329WAT     H276230   3.777   6.789   3.461
25330WAT      O76231   7.443   7.718   1.824
25330WAT     H176232   7.535   7.707   1.787
25330WAT     H276233   7.434   7.809   1.865
25331WAT      O76234   1.876   3.190   6.152
25331WAT     H176235   1.817   3.183   6.233
25331WAT     H276236   1.883   3.101   6.108
25332WAT      O76237   4.295   0.456   6.119
25332WAT     H176238   4.382   0.490   6.155
25332WAT     H276239   4.310   0.413   6.031
25333WAT      O76240   7.472   7.251   3.812
25333WAT     H176241   7.457   7.275   3.716
25333WAT     H276242   7.567   7.273   3.837
25334WAT      O76243   7.569   4.716   3.255
25334WAT     H176244   7.583   4.815   3.254
25334WAT     H276245   7.537   4.688   3.346
25335WAT      O76246   2.396   2.482   7.650
25335WAT     H176247   2.407   2.385   7.674
25335WAT     H276248   2.397   2.492   7.550
25336WAT      O76249   3.644   1.849   7.140
25336WAT     H176250   3.736   1.829   7.106
25336WAT     H276251   3.649   1.871   7.237
25337WAT      O76252   4.188   1.208   1.463
25337WAT     H176253   4.146   1.118   1.474
25337WAT     H276254   4.156   1.269   1.536
25338WAT      O76255   8.532   5.384   1.332
25338WAT     H176256   8.550   5.288   1.353
25338WAT     H276257   8.483   5.426   1.408
25339WAT      O76258   9.011   5.799   4.727
25339WAT     H176259   9.074   5.865   4.687
25339WAT     H276260   8.917   5.830   4.713
25340WAT      O76261   4.448   9.268   2.296
25340WAT     H176262   4.476   9.361   2.273
25340WAT     H276263   4.525   9.205   2.281
25341WAT      O76264   8.281   2.186   1.611
25341WAT     H176265   8.314   2.169   1.704
25341WAT     H276266   8.203   2.127   1.591
25342WAT      O76267   3.847   0.736   1.162
25342WAT     H176268   3.795   0.747   1.246
25342WAT     H276269   3.921   0.670   1.177
25343WAT      O76270   3.135   1.925   7.494
25343WAT     H176271   3.049   1.969   7.519
25343WAT     H276272   3.199   1.995   7.461
25344WAT      O76273   5.106   3.988   5.380
25344WAT     H176274   5.038   3.935   5.330
25344WAT     H276275   5.063   4.027   5.462
25345WAT      O76276   2.022   5.960   2.340
25345WAT     H176277   1.973   5.899   2.403
25345WAT     H276278   2.104   5.996   2.386
25346WAT      O76279   0.044   5.214   4.088
25346WAT     H176280  -0.015   5.290   4.117
25346WAT     H276281   0.067   5.224   3.991
25347WAT      O76282   6.053   8.785   6.217
25347WAT     H176283   6.048   8.746   6.309
25347WAT     H276284   6.078   8.882   6.225
25348WAT      O76285   7.404   2.459   0.828
25348WAT     H176286   7.360   2.539   0.868
25348WAT     H276287   7.500   2.480   0.808
25349WAT      O76288   2.746   7.296   9.072
25349WAT     H176289   2.769   7.208   9.113
25349WAT     H276290   2.821   7.361   9.087
25350WAT      O76291   6.817   6.117   4.590
25350WAT     H176292   6.811   6.210   4.626
25350WAT     H276293   6.853   6.120   4.497
25351WAT      O76294   6.173   6.559   8.308
25351WAT     H176295   6.254   6.614   8.286
25351WAT     H276296   6.201   6.476   8.357
25352WAT      O76297   0.553   8.607   5.052
25352WAT     H176298   0.593   8.536   5.111
25352WAT     H276299   0.570   8.583   4.956
25353WAT      O76300   6.230   7.630   5.731
25353WAT     H176301   6.215   7.709   5.790
25353WAT     H276302   6.168   7.556   5.758
25354WAT      O76303   5.579   9.127   8.265
25354WAT     H176304   5.491   9.115   8.312
25354WAT     H276305   5.579   9.075   8.180
25355WAT      O76306   6.307   6.341   6.340
25355WAT     H176307   6.322   6.249   6.304
25355WAT     H276308   6.322   6.340   6.439
25356WAT      O76309   8.463   4.136   4.524
25356WAT     H176310   8.382   4.174   4.570
25356WAT     H276311   8.529   4.209   4.508
25357WAT      O76312   0.311   6.573   7.624
25357WAT     H176313   0.246   6.643   7.596
25357WAT     H276314   0.397   6.616   7.652
25358WAT      O76315   8.015   3.174   9.560
25358WAT     H176316   7.920   3.141   9.568
25358WAT     H276317   8.028   3.216   9.471
25359WAT      O76318   7.582   3.757   2.730
25359WAT     H176319   7.514   3.684   2.731
25359WAT     H276320   7.537   3.845   2.745
25360WAT      O76321   8.537   6.203   6.020
25360WAT     H176322   8.615   6.224   5.961
25360WAT     H276323   8.526   6.103   6.026
25361WAT      O76324   0.202   8.118   9.678
25361WAT     H176325   0.165   8.078   9.762
25361WAT     H276326   0.218   8.045   9.611
25362WAT      O76327   3.331   8.512   2.187
25362WAT     H176328   3.283   8.532   2.101
25362WAT     H276329   3.265   8.479   2.254
25363WAT      O76330   3.058   2.054   4.247
25363WAT     H176331   3.098   1.970   4.211
25363WAT     H276332   3.010   2.034   4.332
25364WAT      O76333   7.623   3.871   6.283
25364WAT     H176334   7.557   3.910   6.219
25364WAT     H276335   7.575   3.825   6.357
25365WAT      O76336   1.013   3.502   6.077
25365WAT     H176337   1.058   3.494   6.166
25365WAT     H276338   1.057   3.575   6.024
25366WAT      O76339   2.373   6.216   6.571
25366WAT     H176340   2.377   6.137   6.510
25366WAT     H276341   2.341   6.186   6.661
25367WAT      O76342   5.041   2.225   3.410
25367WAT     H176343   5.127   2.205   3.363
25367WAT     H276344   5.022   2.323   3.405
25368WAT      O76345   0.132   8.193   3.595
25368WAT     H176346   0.203   8.256   3.564
25368WAT     H276347   0.048   8.210   3.543
25369WAT      O76348   3.908   7.773   9.824
25369WAT     H176349   3.956   7.764   9.911
25369WAT     H276350   3.967   7.818   9.757
25370WAT      O76351   5.480   1.021   8.777
25370WAT     H176352   5.508   0.969   8.858
25370WAT     H276353   5.418   0.965   8.722
25371WAT      O76354   1.805   6.691   2.438
25371WAT     H176355   1.789   6.621   2.508
25371WAT     H276356   1.751   6.772   2.460
25372WAT      O76357   0.659   1.164   0.522
25372WAT     H176358   0.615   1.155   0.433
25372WAT     H276359   0.737   1.225   0.514
25373WAT      O76360   6.117   5.109   6.128
25373WAT     H176361   6.066   5.176   6.073
25373WAT     H276362   6.076   5.019   6.117
25374WAT      O76363   3.824   1.275   2.256
25374WAT     H176364   3.863   1.183   2.250
25374WAT     H276365   3.821   1.304   2.352
25375WAT      O76366   9.658   4.166   3.764
25375WAT     H176367   9.649   4.067   3.772
25375WAT     H276368   9.635   4.209   3.851
25376WAT      O76369   8.905   5.627   0.673
25376WAT     H176370   8.959   5.545   0.690
25376WAT     H276371   8.918   5.693   0.747
25377WAT      O76372   8.244   3.955   0.604
25377WAT     H176373   8.311   4.025   0.577
25377WAT     H276374   8.192   3.925   0.524
25378WAT      O76375   1.574   6.820   1.619
25378WAT     H176376   1.627   6.806   1.702
25378WAT     H276377   1.482   6.783   1.632
25379WAT      O76378   3.941   0.226   0.828
25379WAT     H176379   3.981   0.177   0.751
25379WAT     H276380   3.928   0.163   0.905
25380WAT      O76381   5.688   5.116   0.998
25380WAT     H176382   5.622   5.044   0.979
25380WAT     H276383   5.640   5.203   1.013
25381WAT      O76384   9.429   0.917   4.048
25381WAT     H176385   9.405   0.892   3.954
25381WAT     H276386   9.352   0.896   4.109
25382WAT      O76387   2.653   7.579   0.537
25382WAT     H176388   2.669   7.592   0.635
25382WAT     H276389   2.568   7.626   0.510
25383WAT      O76390   3.709   5.872   6.432
25383WAT     H176391   3.649   5.950   6.452
25383WAT     H276392   3.715   5.860   6.333
25384WAT      O76393   3.405   1.241   0.411
25384WAT     H176394   3.406   1.176   0.336
25384WAT     H276395   3.338   1.314   0.392
25385WAT      O76396   4.449   2.882   2.448
25385WAT     H176397   4.437   2.971   2.404
25385WAT     H276398   4.364   2.853   2.491
25386WAT      O76399   4.499   4.946   2.865
25386WAT     H176400   4.592   4.925   2.837
25386WAT     H276401   4.446   4.976   2.786
25387WAT      O76402   5.859   9.342   5.075
25387WAT     H176403   5.914   9.294   5.007
25387WAT     H276404   5.795   9.277   5.117
25388WAT      O76405   8.235   2.439   4.470
25388WAT     H176406   8.198   2.449   4.562
25388WAT     H276407   8.181   2.494   4.406
25389WAT      O76408   4.342   5.422   2.286
25389WAT     H176409   4.309   5.346   2.342
25389WAT     H276410   4.301   5.416   2.195
25390WAT      O76411   9.291   5.919   2.074
25390WAT     H176412   9.291   5.876   1.984
25390WAT     H276413   9.385   5.927   2.108
25391WAT      O76414   5.818   9.675   7.958
25391WAT     H176415   5.822   9.736   7.879
25391WAT     H276416   5.852   9.585   7.931
25392WAT      O76417   6.321   2.585   4.034
25392WAT     H176418   6.400   2.546   4.082
25392WAT     H276419   6.249   2.517   4.027
25393WAT      O76420   7.716   2.838   2.343
25393WAT     H176421   7.699   2.835   2.441
25393WAT     H276422   7.808   2.805   2.324
25394WAT      O76423   0.949   7.878   3.308
25394WAT     H176424   1.040   7.843   3.328
25394WAT     H276425   0.954   7.978   3.296
25395WAT      O76426   0.387   8.687   6.288
25395WAT     H176427   0.405   8.591   6.264
25395WAT     H276428   0.471   8.739   6.280
25396WAT      O76429   0.851   9.154   5.167
25396WAT     H176430   0.856   9.170   5.069
25396WAT     H276431   0.765   9.190   5.203
25397WAT      O76432   1.612   2.687   7.637
25397WAT     H176433   1.594   2.778   7.675
25397WAT     H276434   1.699   2.653   7.673
25398WAT      O76435   2.817   7.659   4.823
25398WAT     H176436   2.729   7.706   4.834
25398WAT     H276437   2.837   7.650   4.726
25399WAT      O76438   7.995   0.633   5.301
25399WAT     H176439   7.927   0.693   5.259
25399WAT     H276440   7.955   0.543   5.317
25400WAT      O76441   7.018   5.228   7.116
25400WAT     H176442   7.097   5.166   7.112
25400WAT     H276443   7.045   5.318   7.083
25401WAT      O76444   7.573   3.889   4.122
25401WAT     H176445   7.494   3.885   4.060
25401WAT     H276446   7.543   3.924   4.211
25402WAT      O76447   9.249   5.571   1.717
25402WAT     H176448   9.333   5.516   1.706
25402WAT     H276449   9.198   5.537   1.796
25403WAT      O76450   3.701   8.595   5.049
25403WAT     H176451   3.765   8.658   5.092
25403WAT     H276452   3.751   8.527   4.996
25404WAT      O76453   3.117   5.395   3.130
25404WAT     H176454   3.021   5.413   3.109
25404WAT     H276455   3.124   5.311   3.184
25405WAT      O76456   0.117   0.506   7.294
25405WAT     H176457   0.034   0.452   7.286
25405WAT     H276458   0.097   0.602   7.273
25406WAT      O76459   2.321   6.441   6.448
25406WAT     H176460   2.385   6.442   6.371
25406WAT     H276461   2.337   6.361   6.505
25407WAT      O76462   1.626   2.135   8.961
25407WAT     H176463   1.688   2.178   8.895
25407WAT     H276464   1.620   2.037   8.942
25408WAT      O76465   7.744   1.456   3.685
25408WAT     H176466   7.783   1.508   3.762
25408WAT     H276467   7.674   1.394   3.720
25409WAT      O76468   2.583   8.949   7.943
25409WAT     H176469   2.574   8.851   7.931
25409WAT     H276470   2.494   8.988   7.968
25410WAT      O76471   2.153   8.715   6.909
25410WAT     H176472   2.114   8.628   6.938
25410WAT     H276473   2.239   8.731   6.957
25411WAT      O76474   5.933   6.157   4.913
25411WAT     H176475   5.884   6.076   4.945
25411WAT     H276476   5.895   6.187   4.826
25412WAT      O76477   3.997   4.063   1.578
25412WAT     H176478   3.980   4.155   1.542
25412WAT     H276479   3.925   4.039   1.642
25413WAT      O76480   2.316   3.673   2.796
25413WAT     H176481   2.402   3.715   2.823
25413WAT     H276482   2.242   3.739   2.805
25414WAT      O76483   6.295   0.321   5.300
25414WAT     H176484   6.201   0.336   5.269
25414WAT     H276485   6.354   0.305   5.221
25415WAT      O76486   0.250   1.724   7.780
25415WAT     H176487   0.191   1.644   7.795
25415WAT     H276488   0.294   1.749   7.866
25416WAT      O76489   4.392   6.423   3.365
25416WAT     H176490   4.373   6.428   3.266
25416WAT     H276491   4.388   6.515   3.404
25417WAT      O76492   6.049   8.922   2.587
25417WAT     H176493   6.070   8.899   2.492
25417WAT     H276494   6.041   8.838   2.641
25418WAT      O76495   4.048   6.635   6.929
25418WAT     H176496   4.026   6.538   6.924
25418WAT     H276497   4.002   6.676   7.008
25419WAT      O76498   5.665   3.374   4.181
25419WAT     H176499   5.688   3.343   4.088
25419WAT     H276500   5.733   3.442   4.211
25420WAT      O76501   2.430   9.643   7.184
25420WAT     H176502   2.396   9.622   7.092
25420WAT     H276503   2.488   9.568   7.216
25421WAT      O76504   5.732   3.452   0.213
25421WAT     H176505   5.681   3.446   0.127
25421WAT     H276506   5.810   3.389   0.211
25422WAT      O76507   8.856   9.260   6.109
25422WAT     H176508   8.776   9.201   6.098
25422WAT     H276509   8.829   9.355   6.096
25423WAT      O76510   5.894   1.906   4.319
25423WAT     H176511   5.865   1.999   4.343
25423WAT     H276512   5.825   1.841   4.350
25424WAT      O76513   3.240   7.785   1.518
25424WAT     H176514   3.165   7.829   1.469
25424WAT     H276515   3.325   7.833   1.499
25425WAT      O76516   6.425   8.319   2.975
25425WAT     H176517   6.494   8.390   2.985
25425WAT     H276518   6.435   8.274   2.887
25426WAT      O76519   3.541   4.879   8.743
25426WAT     H176520   3.578   4.825   8.667
25426WAT     H276521   3.462   4.831   8.783
25427WAT      O76522   8.210   0.401   5.314
25427WAT     H176523   8.269   0.407   5.234
25427WAT     H276524   8.163   0.488   5.328
25428WAT      O76525   6.244   4.036   5.463
25428WAT     H176526   6.191   4.077   5.536
25428WAT     H276527   6.341   4.040   5.485
25429WAT      O76528   6.451   9.553   2.434
25429WAT     H176529   6.446   9.478   2.367
25429WAT     H276530   6.359   9.578   2.462
25430WAT      O76531   4.781   8.532   3.487
25430WAT     H176532   4.804   8.591   3.565
25430WAT     H276533   4.769   8.589   3.406
25431WAT      O76534   9.713   6.924   8.738
25431WAT     H176535   9.778   6.978   8.684
25431WAT     H276536   9.620   6.945   8.709
25432WAT      O76537   6.227   5.476   7.156
25432WAT     H176538   6.208   5.409   7.084
25432WAT     H276539   6.142   5.499   7.203
25433WAT      O76540   7.774   1.242   0.615
25433WAT     H176541   7.758   1.276   0.522
25433WAT     H276542   7.820   1.154   0.611
25434WAT      O76543   4.820   6.207   0.479
25434WAT     H176544   4.743   6.182   0.539
25434WAT     H276545   4.803   6.297   0.440
25435WAT      O76546   9.842   1.933   6.933
25435WAT     H176547   9.833   1.850   6.987
25435WAT     H276548   9.754   1.981   6.930
25436WAT      O76549   3.232   8.010   2.174
25436WAT     H176550   3.148   7.956   2.172
25436WAT     H276551   3.273   8.004   2.265
25437WAT      O76552   8.291   1.166   5.531
25437WAT     H176553   8.271   1.134   5.438
25437WAT     H276554   8.385   1.141   5.555
25438WAT      O76555   5.238   3.508   9.551
25438WAT     H176556   5.275   3.547   9.636
25438WAT     H276557   5.260   3.567   9.474
25439WAT      O76558   9.383   8.576   9.013
25439WAT     H176559   9.362   8.532   8.926
25439WAT     H276560   9.434   8.512   9.071
25440WAT      O76561   6.409   4.012   6.824
25440WAT     H176562   6.503   4.002   6.791
25440WAT     H276563   6.384   4.109   6.825
25441WAT      O76564   7.757   5.864   0.280
25441WAT     H176565   7.728   5.943   0.333
25441WAT     H276566   7.830   5.815   0.329
25442WAT      O76567   7.064   9.260   7.059
25442WAT     H176568   6.967   9.278   7.068
25442WAT     H276569   7.078   9.165   7.029
25443WAT      O76570   8.628   1.626   1.238
25443WAT     H176571   8.687   1.690   1.286
25443WAT     H276572   8.651   1.532   1.265
25444WAT      O76573   6.162   3.135   9.006
25444WAT     H176574   6.075   3.085   9.012
25444WAT     H276575   6.145   3.233   9.022
25445WAT      O76576   0.485   5.966   9.052
25445WAT     H176577   0.564   5.983   9.111
25445WAT     H276578   0.516   5.930   8.964
25446WAT      O76579   6.664   1.692   2.047
25446WAT     H176580   6.647   1.636   2.127
25446WAT     H276581   6.600   1.769   2.045
25447WAT      O76582   9.408   2.049   5.620
25447WAT     H176583   9.337   2.102   5.573
25447WAT     H276584   9.498   2.085   5.595
25448WAT      O76585   7.877   8.820   6.817
25448WAT     H176586   7.794   8.855   6.860
25448WAT     H276587   7.906   8.884   6.745
25449WAT      O76588   8.143   2.222   4.331
25449WAT     H176589   8.175   2.289   4.397
25449WAT     H276590   8.191   2.135   4.345
25450WAT      O76591   6.628   8.501   3.015
25450WAT     H176592   6.614   8.600   3.015
25450WAT     H276593   6.612   8.464   3.106
25451WAT      O76594   7.952   1.228   6.805
25451WAT     H176595   7.872   1.267   6.760
25451WAT     H276596   7.962   1.268   6.896
25452WAT      O76597   5.729   8.900   7.281
25452WAT     H176598   5.695   8.938   7.367
25452WAT     H276599   5.739   8.973   7.214
25453WAT      O76600   4.908   4.872   8.563
25453WAT     H176601   4.908   4.782   8.608
25453WAT     H276602   4.995   4.918   8.580
25454WAT      O76603   4.625   2.109   3.153
25454WAT     H176604   4.689   2.065   3.216
25454WAT     H276605   4.624   2.060   3.066
25455WAT      O76606   4.230   3.105   9.273
25455WAT     H176607   4.225   3.006   9.268
25455WAT     H276608   4.175   3.145   9.200
25456WAT      O76609   8.392   5.171   8.404
25456WAT     H176610   8.453   5.229   8.350
25456WAT     H276611   8.298   5.184   8.374
25457WAT      O76612   2.199   7.646   8.966
25457WAT     H176613   2.157   7.724   8.919
25457WAT     H276614   2.133   7.607   9.031
25458WAT      O76615   9.581   5.259   8.344
25458WAT     H176616   9.619   5.338   8.392
25458WAT     H276617   9.486   5.277   8.319
25459WAT      O76618   0.385   0.633   1.190
25459WAT     H176619   0.396   0.537   1.165
25459WAT     H276620   0.309   0.672   1.137
25460WAT      O76621   2.028   5.979   8.199
25460WAT     H176622   2.011   5.881   8.212
25460WAT     H276623   2.126   5.995   8.187
25461WAT      O76624   0.684   6.936   1.430
25461WAT     H176625   0.601   6.928   1.485
25461WAT     H276626   0.755   6.876   1.467
25462WAT      O76627   5.123   7.583   0.004
25462WAT     H176628   5.179   7.511   0.044
25462WAT     H276629   5.182   7.651  -0.039
25463WAT      O76630   0.686   2.498   1.855
25463WAT     H176631   0.638   2.440   1.921
25463WAT     H276632   0.682   2.457   1.764
25464WAT      O76633   0.702   5.444   2.976
25464WAT     H176634   0.669   5.523   2.926
25464WAT     H276635   0.694   5.362   2.919
25465WAT      O76636   8.174   8.543   1.346
25465WAT     H176637   8.119   8.551   1.264
25465WAT     H276638   8.257   8.491   1.325
25466WAT      O76639   2.891   8.647   5.457
25466WAT     H176640   2.810   8.701   5.435
25466WAT     H276641   2.973   8.699   5.431
25467WAT      O76642   2.821   3.227   8.059
25467WAT     H176643   2.760   3.172   8.001
25467WAT     H276644   2.894   3.266   8.002
25468WAT      O76645   3.524   9.002   8.383
25468WAT     H176646   3.542   8.905   8.400
25468WAT     H276647   3.426   9.019   8.392
25469WAT      O76648   3.545   5.094   3.867
25469WAT     H176649   3.456   5.069   3.831
25469WAT     H276650   3.601   5.012   3.879
25470WAT      O76651   6.090   8.087   4.710
25470WAT     H176652   6.165   8.081   4.777
25470WAT     H276653   6.123   8.057   4.621
25471WAT      O76654   6.248   0.972   0.970
25471WAT     H176655   6.261   0.940   1.063
25471WAT     H276656   6.170   0.924   0.929
25472WAT      O76657   7.464   0.917   4.842
25472WAT     H176658   7.453   1.016   4.841
25472WAT     H276659   7.447   0.882   4.934
25473WAT      O76660   4.309   8.076   3.602
25473WAT     H176661   4.305   8.097   3.504
25473WAT     H276662   4.231   8.018   3.626
25474WAT      O76663   9.688   9.674   0.149
25474WAT     H176664   9.616   9.698   0.213
25474WAT     H276665   9.670   9.717   0.061
25475WAT      O76666   4.568   7.542   2.030
25475WAT     H176667   4.508   7.607   1.984
25475WAT     H276668   4.600   7.581   2.117
25476WAT      O76669   4.100   3.205   9.056
25476WAT     H176670   4.065   3.288   9.100
25476WAT     H276671   4.142   3.228   8.969
25477WAT      O76672   0.328   8.492   2.907
25477WAT     H176673   0.279   8.543   2.978
25477WAT     H276674   0.426   8.504   2.919
25478WAT      O76675   4.134   3.418   9.658
25478WAT     H176676   4.234   3.412   9.664
25478WAT     H276677   4.100   3.488   9.720
25479WAT      O76678   0.443   9.594   5.584
25479WAT     H176679   0.347   9.591   5.559
25479WAT     H276680   0.469   9.507   5.625
25480WAT      O76681   8.285   8.742   9.358
25480WAT     H176682   8.208   8.680   9.350
25480WAT     H276683   8.262   8.831   9.319
25481WAT      O76684   8.891   1.382   7.301
25481WAT     H176685   8.891   1.290   7.262
25481WAT     H276686   8.873   1.448   7.228
25482WAT      O76687   1.131   3.733   5.957
25482WAT     H176688   1.053   3.755   5.899
25482WAT     H276689   1.210   3.787   5.929
25483WAT      O76690   3.918   5.898   5.503
25483WAT     H176691   3.865   5.922   5.585
25483WAT     H276692   3.871   5.825   5.453
25484WAT      O76693   1.699   2.079   3.107
25484WAT     H176694   1.772   2.147   3.098
25484WAT     H276695   1.719   2.017   3.183
25485WAT      O76696   1.589   1.692   1.877
25485WAT     H176697   1.591   1.737   1.788
25485WAT     H276698   1.600   1.593   1.866
25486WAT      O76699   8.207   7.340   4.397
25486WAT     H176700   8.186   7.339   4.495
25486WAT     H276701   8.241   7.250   4.369
25487WAT      O76702   8.126   9.409   8.250
25487WAT     H176703   8.118   9.504   8.221
25487WAT     H276704   8.063   9.390   8.324
25488WAT      O76705   7.858   5.158   5.916
25488WAT     H176706   7.809   5.239   5.949
25488WAT     H276707   7.793   5.092   5.879
25489WAT      O76708   7.188   2.838   7.215
25489WAT     H176709   7.142   2.793   7.291
25489WAT     H276710   7.121   2.861   7.144
25490WAT      O76711   4.103   8.972   9.175
25490WAT     H176712   4.086   8.963   9.273
25490WAT     H276713   4.202   8.980   9.159
25491WAT      O76714   2.434   5.285   2.827
25491WAT     H176715   2.459   5.374   2.788
25491WAT     H276716   2.367   5.240   2.768
25492WAT      O76717   1.769   6.385   9.828
25492WAT     H176718   1.846   6.357   9.772
25492WAT     H276719   1.779   6.481   9.854
25493WAT      O76720   7.734   2.713   5.040
25493WAT     H176721   7.709   2.683   5.131
25493WAT     H276722   7.771   2.806   5.044
25494WAT      O76723   2.400   9.355   1.358
25494WAT     H176724   2.444   9.288   1.298
25494WAT     H276725   2.366   9.309   1.440
25495WAT      O76726   9.499   1.368   7.564
25495WAT     H176727   9.430   1.404   7.627
25495WAT     H276728   9.581   1.341   7.615
25496WAT      O76729   4.541   0.337   4.478
25496WAT     H176730   4.521   0.241   4.457
25496WAT     H276731   4.640   0.351   4.480
25497WAT      O76732   6.303   3.597   5.609
25497WAT     H176733   6.260   3.510   5.632
25497WAT     H276734   6.344   3.637   5.692
25498WAT      O76735   8.906   3.359   5.476
25498WAT     H176736   8.970   3.370   5.552
25498WAT     H276737   8.958   3.349   5.391
25499WAT      O76738   1.692   7.572   3.387
25499WAT     H176739   1.707   7.478   3.357
25499WAT     H276740   1.748   7.634   3.331
25500WAT      O76741   4.089   2.882   3.627
25500WAT     H176742   4.188   2.873   3.642
25500WAT     H276743   4.061   2.976   3.649
25501WAT      O76744   7.805   6.180   4.290
25501WAT     H176745   7.775   6.142   4.203
25501WAT     H276746   7.818   6.105   4.356
25502WAT      O76747   1.561   7.764   6.030
25502WAT     H176748   1.516   7.843   6.073
25502WAT     H276749   1.636   7.733   6.088
25503WAT      O76750   0.511   4.856   8.364
25503WAT     H176751   0.468   4.886   8.450
25503WAT     H276752   0.444   4.808   8.309
25504WAT      O76753   0.606   2.306   9.662
25504WAT     H176754   0.609   2.378   9.731
25504WAT     H276755   0.676   2.238   9.682
25505WAT      O76756   3.427   5.812   7.151
25505WAT     H176757   3.379   5.782   7.233
25505WAT     H276758   3.423   5.741   7.081
25506WAT      O76759   6.025   1.760   2.995
25506WAT     H176760   6.007   1.733   2.901
25506WAT     H276761   5.958   1.829   3.023
25507WAT      O76762   0.637   7.203   7.519
25507WAT     H176763   0.625   7.289   7.469
25507WAT     H276764   0.725   7.163   7.495
25508WAT      O76765   6.606   0.849   5.987
25508WAT     H176766   6.607   0.755   5.952
25508WAT     H276767   6.684   0.862   6.048
25509WAT      O76768   1.318   8.745   0.223
25509WAT     H176769   1.329   8.793   0.137
25509WAT     H276770   1.326   8.810   0.299
25510WAT      O76771   7.297   4.112   7.590
25510WAT     H176772   7.380   4.149   7.632
25510WAT     H276773   7.279   4.159   7.504
25511WAT      O76774   6.715   9.346   0.052
25511WAT     H176775   6.754   9.302  -0.029
25511WAT     H276776   6.685   9.438   0.029
25512WAT      O76777   4.344   5.496   9.529
25512WAT     H176778   4.353   5.422   9.597
25512WAT     H276779   4.342   5.584   9.576
25513WAT      O76780   1.345   0.800   2.103
25513WAT     H176781   1.334   0.898   2.115
25513WAT     H276782   1.400   0.763   2.178
25514WAT      O76783   6.464   3.868   1.622
25514WAT     H176784   6.464   3.960   1.581
25514WAT     H276785   6.379   3.854   1.671
25515WAT      O76786   4.588   1.259   4.714
25515WAT     H176787   4.630   1.169   4.708
25515WAT     H276788   4.552   1.274   4.806
25516WAT      O76789   4.399   9.591   8.936
25516WAT     H176790   4.384   9.677   8.986
25516WAT     H276791   4.337   9.521   8.970
25517WAT      O76792   2.803   4.625   7.830
25517WAT     H176793   2.788   4.668   7.919
25517WAT     H276794   2.784   4.692   7.758
25518WAT      O76795   0.183   3.972   1.497
25518WAT     H176796   0.195   4.009   1.589
25518WAT     H276797   0.149   4.044   1.436
25519WAT      O76798   0.145   1.159   6.798
25519WAT     H176799   0.110   1.209   6.720
25519WAT     H276800   0.085   1.175   6.877
25520WAT      O76801   0.366   1.244   4.924
25520WAT     H176802   0.290   1.195   4.968
25520WAT     H276803   0.445   1.243   4.985
25521WAT      O76804   5.667   0.154   7.060
25521WAT     H176805   5.629   0.239   7.095
25521WAT     H276806   5.630   0.136   6.969
25522WAT      O76807   1.316   8.016   4.541
25522WAT     H176808   1.325   8.115   4.544
25522WAT     H276809   1.321   7.979   4.634
25523WAT      O76810   4.867   2.346   9.713
25523WAT     H176811   4.844   2.322   9.619
25523WAT     H276812   4.787   2.385   9.758
25524WAT      O76813   9.055   2.815   8.521
25524WAT     H176814   9.093   2.837   8.611
25524WAT     H276815   9.098   2.873   8.452
25525WAT      O76816   7.021   7.603   6.973
25525WAT     H176817   7.037   7.697   7.004
25525WAT     H276818   7.052   7.594   6.878
25526WAT      O76819   7.607   6.417   4.802
25526WAT     H176820   7.517   6.443   4.838
25526WAT     H276821   7.639   6.486   4.738
25527WAT      O76822   8.219   5.820   2.606
25527WAT     H176823   8.264   5.747   2.555
25527WAT     H276824   8.125   5.829   2.574
25528WAT      O76825   4.568   1.203   0.293
25528WAT     H176826   4.617   1.122   0.327
25528WAT     H276827   4.505   1.176   0.220
25529WAT      O76828   7.316   4.024   3.763
25529WAT     H176829   7.248   3.964   3.720
25529WAT     H276830   7.271   4.083   3.829
25530WAT      O76831   3.156   5.842   8.695
25530WAT     H176832   3.217   5.769   8.726
25530WAT     H276833   3.063   5.821   8.723
25531WAT      O76834   2.243   4.100   9.715
25531WAT     H176835   2.288   4.014   9.688
25531WAT     H276836   2.145   4.093   9.700
25532WAT      O76837   2.026   2.638   0.811
25532WAT     H176838   2.016   2.550   0.857
25532WAT     H276839   1.936   2.672   0.783
25533WAT      O76840   9.791   6.572   9.395
25533WAT     H176841   9.734   6.491   9.407
25533WAT     H276842   9.841   6.591   9.479
25534WAT      O76843   8.691   3.243   8.023
25534WAT     H176844   8.672   3.235   7.925
25534WAT     H276845   8.607   3.267   8.072
25535WAT      O76846   7.503   0.941   0.629
25535WAT     H176847   7.532   0.863   0.574
25535WAT     H276848   7.449   1.004   0.572
25536WAT      O76849   5.860   1.888   1.015
25536WAT     H176850   5.881   1.804   0.966
25536WAT     H276851   5.761   1.897   1.025
25537WAT      O76852   8.864   5.258   4.823
25537WAT     H176853   8.944   5.280   4.768
25537WAT     H276854   8.785   5.308   4.788
25538WAT      O76855   3.577   6.289   0.503
25538WAT     H176856   3.566   6.280   0.602
25538WAT     H276857   3.657   6.345   0.482
25539WAT      O76858   1.863   9.129   6.164
25539WAT     H176859   1.838   9.166   6.074
25539WAT     H276860   1.957   9.156   6.186
25540WAT      O76861   7.229   2.448   6.577
25540WAT     H176862   7.134   2.463   6.604
25540WAT     H276863   7.234   2.368   6.516
25541WAT      O76864   9.134   9.823   3.925
25541WAT     H176865   9.053   9.794   3.974
25541WAT     H276866   9.212   9.827   3.987
25542WAT      O76867   9.738   4.266   4.043
25542WAT     H176868   9.809   4.294   4.107
25542WAT     H276869   9.701   4.348   3.998
25543WAT      O76870   8.776   0.238   7.086
25543WAT     H176871   8.759   0.156   7.141
25543WAT     H276872   8.747   0.221   6.992
25544WAT      O76873   6.354   7.235   1.743
25544WAT     H176874   6.387   7.322   1.706
25544WAT     H276875   6.432   7.179   1.771
25545WAT      O76876   7.442   6.840   9.251
25545WAT     H176877   7.524   6.861   9.304
25545WAT     H276878   7.365   6.892   9.286
25546WAT      O76879   0.687   6.952   5.068
25546WAT     H176880   0.614   6.924   5.005
25546WAT     H276881   0.663   6.924   5.161
25547WAT      O76882   9.194   0.126   7.822
25547WAT     H176883   9.216   0.090   7.913
25547WAT     H276884   9.275   0.120   7.763
25548WAT      O76885   3.412   1.753   6.566
25548WAT     H176886   3.477   1.750   6.490
25548WAT     H276887   3.322   1.780   6.532
25549WAT      O76888   0.522   2.614   2.866
25549WAT     H176889   0.620   2.609   2.886
25549WAT     H276890   0.509   2.652   2.774
25550WAT      O76891   5.126   8.498   2.430
25550WAT     H176892   5.184   8.579   2.435
25550WAT     H276893   5.180   8.417   2.453
25551WAT      O76894   1.343   6.002   1.641
25551WAT     H176895   1.302   6.078   1.692
25551WAT     H276896   1.322   6.012   1.544
25552WAT      O76897   9.663   1.511   6.640
25552WAT     H176898   9.641   1.608   6.649
25552WAT     H276899   9.669   1.488   6.543
25553WAT      O76900   4.448   8.203   6.993
25553WAT     H176901   4.465   8.297   6.964
25553WAT     H276902   4.382   8.202   7.068
25554WAT      O76903   7.555   8.634   1.530
25554WAT     H176904   7.477   8.575   1.551
25554WAT     H276905   7.535   8.727   1.561
25555WAT      O76906   0.927   2.271   2.238
25555WAT     H176907   0.998   2.247   2.305
25555WAT     H276908   0.959   2.348   2.182
25556WAT      O76909   3.299   1.315   4.590
25556WAT     H176910   3.324   1.285   4.682
25556WAT     H276911   3.362   1.275   4.523
25557WAT      O76912   9.869   9.209   7.855
25557WAT     H176913   9.914   9.264   7.925
25557WAT     H276914   9.779   9.180   7.887
25558WAT      O76915   9.210   2.818   5.025
25558WAT     H176916   9.283   2.761   5.062
25558WAT     H276917   9.136   2.826   5.091
25559WAT      O76918   1.742   9.607   5.480
25559WAT     H176919   1.791   9.541   5.536
25559WAT     H276920   1.760   9.590   5.383
25560WAT      O76921   8.957   9.761   3.078
25560WAT     H176922   8.936   9.696   3.005
25560WAT     H276923   8.966   9.853   3.039
25561WAT      O76924   9.860   3.037   7.388
25561WAT     H176925   9.958   3.048   7.374
25561WAT     H276926   9.813   3.124   7.371
25562WAT      O76927   2.841   2.335   2.386
25562WAT     H176928   2.755   2.356   2.433
25562WAT     H276929   2.914   2.393   2.423
25563WAT      O76930   9.494   2.478   8.956
25563WAT     H176931   9.410   2.426   8.940
25563WAT     H276932   9.501   2.500   9.054
25564WAT      O76933   6.880   1.362   2.991
25564WAT     H176934   6.881   1.399   3.084
25564WAT     H276935   6.888   1.262   2.995
25565WAT      O76936   4.122   8.341   5.959
25565WAT     H176937   4.082   8.401   5.889
25565WAT     H276938   4.111   8.383   6.049
25566WAT      O76939   2.670   8.102   5.052
25566WAT     H176940   2.716   8.183   5.014
25566WAT     H276941   2.665   8.110   5.151
25567WAT      O76942   0.957   1.076   8.444
25567WAT     H176943   0.955   1.017   8.525
25567WAT     H276944   0.994   1.166   8.469
25568WAT      O76945   9.775   6.012   6.776
25568WAT     H176946   9.832   5.976   6.702
25568WAT     H276947   9.715   6.084   6.740
25569WAT      O76948   7.149   9.830   7.392
25569WAT     H176949   7.160   9.929   7.394
25569WAT     H276950   7.228   9.787   7.435
25570WAT      O76951   8.730   8.678   4.979
25570WAT     H176952   8.675   8.615   5.034
25570WAT     H276953   8.698   8.676   4.884
25571WAT      O76954   0.564   3.651   0.466
25571WAT     H176955   0.464   3.656   0.473
25571WAT     H276956   0.593   3.556   0.478
25572WAT      O76957   5.848   1.573   0.192
25572WAT     H176958   5.934   1.595   0.237
25572WAT     H276959   5.779   1.548   0.260
25573WAT      O76960   9.512   8.749   3.748
25573WAT     H176961   9.573   8.828   3.755
25573WAT     H276962   9.417   8.780   3.751
25574WAT      O76963   6.919   7.621   3.646
25574WAT     H176964   6.823   7.632   3.671
25574WAT     H276965   6.942   7.682   3.571
25575WAT      O76966   6.607   7.038   9.791
25575WAT     H176967   6.595   6.942   9.816
25575WAT     H276968   6.689   7.074   9.833
25576WAT      O76969   1.336   1.807   7.589
25576WAT     H176970   1.288   1.804   7.502
25576WAT     H276971   1.393   1.726   7.599
25577WAT      O76972   2.809   6.455   8.267
25577WAT     H176973   2.881   6.522   8.286
25577WAT     H276974   2.735   6.467   8.334
25578WAT      O76975   5.808   7.923   7.843
25578WAT     H176976   5.818   7.834   7.887
25578WAT     H276977   5.783   7.910   7.747
25579WAT      O76978   3.834   7.266   3.247
25579WAT     H176979   3.889   7.329   3.302
25579WAT     H276980   3.776   7.211   3.307
25580WAT      O76981   3.477   3.629   3.729
25580WAT     H176982   3.478   3.675   3.818
25580WAT     H276983   3.399   3.662   3.675
25581WAT      O76984   3.791   4.886   9.199
25581WAT     H176985   3.788   4.984   9.221
25581WAT     H276986   3.732   4.836   9.261
25582WAT      O76987   3.219   6.389   5.378
25582WAT     H176988   3.122   6.365   5.383
25582WAT     H276989   3.252   6.371   5.285
25583WAT      O76990   5.131   4.626   9.863
25583WAT     H176991   5.200   4.656   9.929
25583WAT     H276992   5.158   4.653   9.771
25584WAT      O76993   5.642   9.607   7.273
25584WAT     H176994   5.705   9.531   7.258
25584WAT     H276995   5.685   9.692   7.243
25585WAT      O76996   6.687   1.259   1.759
25585WAT     H176997   6.634   1.344   1.755
25585WAT     H276998   6.674   1.208   1.674
25586WAT      O76999   9.732   5.821   4.558
25586WAT     H177000   9.651   5.877   4.541
25586WAT     H277001   9.809   5.855   4.503
25587WAT      O77002   1.516   8.447   0.265
25587WAT     H177003   1.538   8.499   0.182
25587WAT     H277004   1.453   8.501   0.322
25588WAT      O77005   3.873   9.390   5.377
25588WAT     H177006   3.951   9.341   5.338
25588WAT     H277007   3.869   9.373   5.476
25589WAT      O77008   8.716   5.752   6.337
25589WAT     H177009   8.741   5.655   6.344
25589WAT     H277010   8.781   5.798   6.277
25590WAT      O77011   3.417   4.222   1.832
25590WAT     H177012   3.370   4.245   1.746
25590WAT     H277013   3.358   4.243   1.909
25591WAT      O77014   1.354   7.760   0.444
25591WAT     H177015   1.364   7.858   0.460
25591WAT     H277016   1.393   7.736   0.355
25592WAT      O77017   5.500   9.711   6.069
25592WAT     H177018   5.491   9.653   6.150
25592WAT     H277019   5.418   9.702   6.012
25593WAT      O77020   7.101   0.809   1.287
25593WAT     H177021   7.180   0.794   1.346
25593WAT     H277022   7.030   0.742   1.308
25594WAT      O77023   5.687   8.006   5.736
25594WAT     H177024   5.636   7.926   5.701
25594WAT     H277025   5.778   7.977   5.765
25595WAT      O77026   6.095   3.510   4.124
25595WAT     H177027   6.133   3.492   4.033
25595WAT     H277028   6.160   3.564   4.177
25596WAT      O77029   1.623   3.457   0.268
25596WAT     H177030   1.627   3.397   0.348
25596WAT     H277031   1.636   3.402   0.185
25597WAT      O77032   0.350   9.348   9.853
25597WAT     H177033   0.364   9.329   9.756
25597WAT     H277034   0.430   9.394   9.890
25598WAT      O77035   4.456   6.373   4.874
25598WAT     H177036   4.392   6.349   4.801
25598WAT     H277037   4.541   6.408   4.834
25599WAT      O77038   1.881   1.314   6.103
25599WAT     H177039   1.863   1.218   6.080
25599WAT     H277040   1.794   1.360   6.122
25600WAT      O77041   2.517   8.219   9.074
25600WAT     H177042   2.593   8.270   9.112
25600WAT     H277043   2.431   8.252   9.113
25601WAT      O77044   7.886   4.625   5.696
25601WAT     H177045   7.909   4.536   5.657
25601WAT     H277046   7.795   4.653   5.664
25602WAT      O77047   7.581   1.191   4.097
25602WAT     H177048   7.537   1.279   4.082
25602WAT     H277049   7.511   1.121   4.111
25603WAT      O77050   6.816   9.078   9.381
25603WAT     H177051   6.786   9.174   9.385
25603WAT     H277052   6.769   9.025   9.451
25604WAT      O77053   4.736   2.319   6.117
25604WAT     H177054   4.804   2.303   6.188
25604WAT     H277055   4.746   2.412   6.080
25605WAT      O77056   1.633   5.996   3.235
25605WAT     H177057   1.618   6.000   3.334
25605WAT     H277058   1.551   5.961   3.191
25606WAT      O77059   5.642   6.454   2.972
25606WAT     H177060   5.548   6.470   3.000
25606WAT     H277061   5.674   6.531   2.917
25607WAT      O77062   9.355   5.341   7.978
25607WAT     H177063   9.433   5.399   7.955
25607WAT     H277064   9.329   5.357   8.073
25608WAT      O77065   4.642   1.278   7.417
25608WAT     H177066   4.607   1.295   7.509
25608WAT     H277067   4.592   1.336   7.352
25609WAT      O77068   5.445   8.642   1.570
25609WAT     H177069   5.362   8.586   1.564
25609WAT     H277070   5.497   8.633   1.486
25610WAT      O77071   4.207   2.625   5.648
25610WAT     H177072   4.122   2.627   5.596
25610WAT     H277073   4.189   2.592   5.741
25611WAT      O77074   7.604   0.621   7.634
25611WAT     H177075   7.544   0.545   7.609
25611WAT     H277076   7.688   0.615   7.581
25612WAT      O77077   6.434   8.682   1.317
25612WAT     H177078   6.448   8.584   1.299
25612WAT     H277079   6.516   8.721   1.359
25613WAT      O77080   3.549   6.306   0.769
25613WAT     H177081   3.618   6.378   0.780
25613WAT     H277082   3.458   6.347   0.771
25614WAT      O77083   1.125   0.645   6.714
25614WAT     H177084   1.209   0.599   6.684
25614WAT     H277085   1.070   0.668   6.633
25615WAT      O77086   7.718   9.131   8.947
25615WAT     H177087   7.728   9.121   9.046
25615WAT     H277088   7.793   9.084   8.901
25616WAT      O77089   9.828   6.541   9.677
25616WAT     H177090   9.728   6.543   9.682
25616WAT     H277091   9.863   6.634   9.678
25617WAT      O77092   1.385   5.170   8.678
25617WAT     H177093   1.409   5.095   8.738
25617WAT     H277094   1.448   5.172   8.600
25618WAT      O77095   5.672   8.110   4.006
25618WAT     H177096   5.663   8.041   3.934
25618WAT     H277097   5.712   8.193   3.968
25619WAT      O77098   2.655   8.107   8.442
25619WAT     H177099   2.624   8.190   8.395
25619WAT     H277100   2.753   8.115   8.461
25620WAT      O77101   6.847   4.394   4.059
25620WAT     H177102   6.760   4.417   4.102
25620WAT     H277103   6.922   4.409   4.124
25621WAT      O77104   4.691   9.644   7.215
25621WAT     H177105   4.611   9.589   7.191
25621WAT     H277106   4.752   9.591   7.274
25622WAT      O77107   9.298   3.580   6.687
25622WAT     H177108   9.232   3.655   6.677
25622WAT     H277109   9.267   3.501   6.633
25623WAT      O77110   3.052   8.860   3.047
25623WAT     H177111   3.042   8.958   3.068
25623WAT     H277112   3.137   8.845   2.997
25624WAT      O77113   1.375   6.421   0.468
25624WAT     H177114   1.371   6.516   0.438
25624WAT     H277115   1.459   6.406   0.520
25625WAT      O77116   0.384   0.944   1.128
25625WAT     H177117   0.292   0.979   1.142
25625WAT     H277118   0.379   0.852   1.089
25626WAT      O77119   6.942   0.373   6.128
25626WAT     H177120   6.997   0.347   6.207
25626WAT     H277121   6.847   0.387   6.156
25627WAT      O77122   2.183   9.833   2.085
25627WAT     H177123   2.134   9.746   2.093
25627WAT     H277124   2.156   9.894   2.160
25628WAT      O77125   5.067   5.606   8.313
25628WAT     H177126   5.158   5.595   8.353
25628WAT     H277127   5.013   5.523   8.329
25629WAT      O77128   4.438   0.400   5.534
25629WAT     H177129   4.465   0.334   5.463
25629WAT     H277130   4.338   0.397   5.545
25630WAT      O77131   5.872   9.499   6.818
25630WAT     H177132   5.778   9.469   6.834
25630WAT     H277133   5.884   9.523   6.722
25631WAT      O77134   9.553   2.903   3.645
25631WAT     H177135   9.638   2.934   3.602
25631WAT     H277136   9.569   2.885   3.742
25632WAT      O77137   7.126   4.162   8.952
25632WAT     H177138   7.139   4.152   9.050
25632WAT     H277139   7.207   4.204   8.911
25633WAT      O77140   2.147   4.456   4.162
25633WAT     H177141   2.214   4.512   4.112
25633WAT     H277142   2.180   4.362   4.169
25634WAT      O77143   0.685   3.403   0.495
25634WAT     H177144   0.652   3.379   0.586
25634WAT     H277145   0.774   3.448   0.502
25635WAT      O77146   0.771   6.131   5.235
25635WAT     H177147   0.712   6.051   5.250
25635WAT     H277148   0.861   6.114   5.277
25636WAT      O77149   4.294   8.516   4.306
25636WAT     H177150   4.387   8.539   4.335
25636WAT     H277151   4.270   8.570   4.226
25637WAT      O77152   2.319   9.731   5.867
25637WAT     H177153   2.225   9.701   5.850
25637WAT     H277154   2.380   9.685   5.803
25638WAT      O77155   4.239   4.017   1.278
25638WAT     H177156   4.190   4.095   1.317
25638WAT     H277157   4.315   4.049   1.222
25639WAT      O77158   2.002   7.798   4.170
25639WAT     H177159   1.976   7.752   4.255
25639WAT     H277160   2.016   7.895   4.188
25640WAT      O77161   7.778   7.782   6.566
25640WAT     H177162   7.787   7.834   6.651
25640WAT     H277163   7.729   7.837   6.498
25641WAT      O77164   4.889   9.016   0.001
25641WAT     H177165   4.848   8.925  -0.001
25641WAT     H277166   4.984   9.009   0.030
25642WAT      O77167   9.325   5.858   5.254
25642WAT     H177168   9.394   5.916   5.297
25642WAT     H277169   9.308   5.889   5.161
25643WAT      O77170   3.388   1.994   4.399
25643WAT     H177171   3.423   1.908   4.436
25643WAT     H277172   3.366   2.056   4.474
25644WAT      O77173   9.362   2.449   3.860
25644WAT     H177174   9.435   2.411   3.802
25644WAT     H277175   9.274   2.438   3.815
25645WAT      O77176   2.696   2.625   8.782
25645WAT     H177177   2.695   2.559   8.706
25645WAT     H277178   2.613   2.681   8.778
25646WAT      O77179   8.654   7.810   1.475
25646WAT     H177180   8.600   7.834   1.395
25646WAT     H277181   8.597   7.757   1.538
25647WAT      O77182   6.944   0.163   3.275
25647WAT     H177183   7.022   0.134   3.331
25647WAT     H277184   6.974   0.178   3.181
25648WAT      O77185   0.467   9.316   9.189
25648WAT     H177186   0.530   9.387   9.157
25648WAT     H277187   0.437   9.260   9.112
25649WAT      O77188   8.187   8.274   1.451
25649WAT     H177189   8.129   8.328   1.390
25649WAT     H277190   8.271   8.249   1.403
25650WAT      O77191   0.254   8.080   6.815
25650WAT     H177192   0.298   8.168   6.801
25650WAT     H277193   0.318   8.018   6.862
25651WAT      O77194   9.556   1.045   8.157
25651WAT     H177195   9.519   1.019   8.068
25651WAT     H277196   9.495   1.111   8.201
25652WAT      O77197   0.856   3.358   9.751
25652WAT     H177198   0.802   3.333   9.671
25652WAT     H277199   0.795   3.388   9.825
25653WAT      O77200   7.546   5.143   6.665
25653WAT     H177201   7.479   5.188   6.723
25653WAT     H277202   7.501   5.072   6.610
25654WAT      O77203   7.584   8.543   1.938
25654WAT     H177204   7.620   8.521   1.848
25654WAT     H277205   7.602   8.639   1.959
25655WAT      O77206   6.179   0.982   6.862
25655WAT     H177207   6.144   1.023   6.946
25655WAT     H277208   6.273   0.952   6.876
25656WAT      O77209   3.965   2.235   5.887
25656WAT     H177210   3.912   2.194   5.812
25656WAT     H277211   3.953   2.179   5.969
25657WAT      O77212   1.999   5.455   7.476
25657WAT     H177213   2.090   5.486   7.503
25657WAT     H277214   1.951   5.419   7.556
25658WAT      O77215   3.587   2.062   1.546
25658WAT     H177216   3.666   2.004   1.565
25658WAT     H277217   3.508   2.030   1.600
25659WAT      O77218   0.419   9.815   6.331
25659WAT     H177219   0.479   9.885   6.368
25659WAT     H277220   0.328   9.824   6.372
25660WAT      O77221   4.706   1.925   4.484
25660WAT     H177222   4.613   1.888   4.480
25660WAT     H277223   4.702   2.021   4.514
25661WAT      O77224   2.929   5.265   7.399
25661WAT     H177225   2.862   5.333   7.368
25661WAT     H277226   3.008   5.267   7.338
25662WAT      O77227   9.582   6.168   1.950
25662WAT     H177228   9.496   6.133   1.988
25662WAT     H277229   9.592   6.264   1.973
25663WAT      O77230   6.047   0.329   5.174
25663WAT     H177231   5.988   0.308   5.096
25663WAT     H277232   5.992   0.332   5.258
25664WAT      O77233   0.271   6.508   4.379
25664WAT     H177234   0.260   6.566   4.298
25664WAT     H277235   0.272   6.412   4.351
25665WAT      O77236   0.392   4.003   4.461
25665WAT     H177237   0.440   4.082   4.423
25665WAT     H277238   0.326   4.034   4.530
25666WAT      O77239   1.836   7.060   1.442
25666WAT     H177240   1.855   6.963   1.425
25666WAT     H277241   1.878   7.087   1.529
25667WAT      O77242   2.882   2.871   9.628
25667WAT     H177243   2.956   2.923   9.671
25667WAT     H277244   2.873   2.782   9.672
25668WAT      O77245   9.016   9.681   0.171
25668WAT     H177246   9.077   9.601   0.166
25668WAT     H277247   8.926   9.652   0.201
25669WAT      O77248   8.410   1.230   4.513
25669WAT     H177249   8.422   1.130   4.510
25669WAT     H277250   8.472   1.272   4.447
25670WAT      O77251   1.939   4.043   8.957
25670WAT     H177252   1.892   3.954   8.950
25670WAT     H277253   1.979   4.052   9.048
25671WAT      O77254   2.676   0.579   6.011
25671WAT     H177255   2.612   0.630   6.068
25671WAT     H277256   2.629   0.500   5.970
25672WAT      O77257   6.028   2.705   6.029
25672WAT     H177258   6.106   2.642   6.029
25672WAT     H277259   5.945   2.655   6.003
25673WAT      O77260   1.743   4.368   8.665
25673WAT     H177261   1.758   4.362   8.567
25673WAT     H277262   1.816   4.422   8.706
25674WAT      O77263   9.374   1.425   8.831
25674WAT     H177264   9.425   1.383   8.906
25674WAT     H277265   9.302   1.362   8.802
25675WAT      O77266   2.788   7.844   9.128
25675WAT     H177267   2.763   7.762   9.179
25675WAT     H277268   2.706   7.901   9.115
25676WAT      O77269   1.109   0.693   8.665
25676WAT     H177270   1.042   0.629   8.628
25676WAT     H277271   1.118   0.678   8.764
25677WAT      O77272   0.967   6.463   6.152
25677WAT     H177273   0.977   6.372   6.112
25677WAT     H277274   0.884   6.506   6.117
25678WAT      O77275   7.069   2.612   0.217
25678WAT     H177276   6.982   2.652   0.189
25678WAT     H277277   7.111   2.564   0.139
25679WAT      O77278   4.399   9.099   3.535
25679WAT     H177279   4.343   9.021   3.506
25679WAT     H277280   4.384   9.175   3.473
25680WAT      O77281   8.180   8.921   2.174
25680WAT     H177282   8.249   8.850   2.158
25680WAT     H277283   8.209   9.006   2.129
25681WAT      O77284   8.792   1.752   4.210
25681WAT     H177285   8.818   1.656   4.219
25681WAT     H277286   8.747   1.783   4.293
25682WAT      O77287   4.160   8.936   1.062
25682WAT     H177288   4.070   8.975   1.083
25682WAT     H277289   4.150   8.865   0.992
25683WAT      O77290   8.834   3.816   6.115
25683WAT     H177291   8.823   3.733   6.062
25683WAT     H277292   8.773   3.813   6.194
25684WAT      O77293   3.911   5.237   5.890
25684WAT     H177294   3.880   5.164   5.829
25684WAT     H277295   3.836   5.301   5.906
25685WAT      O77296   9.216   2.363   4.069
25685WAT     H177297   9.139   2.315   4.027
25685WAT     H277298   9.261   2.420   4.000
25686WAT      O77299   1.283   9.555   1.052
25686WAT     H177300   1.214   9.498   1.097
25686WAT     H277301   1.360   9.567   1.114
25687WAT      O77302   9.823   0.412   5.314
25687WAT     H177303   9.859   0.364   5.234
25687WAT     H277304   9.794   0.345   5.383
25688WAT      O77305   7.968   1.534   1.875
25688WAT     H177306   8.029   1.585   1.936
25688WAT     H277307   7.877   1.575   1.877
25689WAT      O77308   1.385   9.470   7.336
25689WAT     H177309   1.433   9.399   7.388
25689WAT     H277310   1.359   9.544   7.397
25690WAT      O77311   9.103   1.666   9.168
25690WAT     H177312   9.172   1.685   9.238
25690WAT     H277313   9.096   1.568   9.154
25691WAT      O77314   1.445   4.823   8.393
25691WAT     H177315   1.468   4.853   8.300
25691WAT     H277316   1.446   4.723   8.397
25692WAT      O77317   1.038   3.483   2.126
25692WAT     H177318   1.100   3.467   2.203
25692WAT     H277319   1.048   3.577   2.094
25693WAT      O77320   6.354   7.289   7.889
25693WAT     H177321   6.301   7.224   7.835
25693WAT     H277322   6.339   7.382   7.854
25694WAT      O77323   2.659   9.510   8.746
25694WAT     H177324   2.758   9.517   8.735
25694WAT     H277325   2.638   9.458   8.829
25695WAT      O77326   4.637   1.677   2.084
25695WAT     H177327   4.574   1.753   2.101
25695WAT     H277328   4.652   1.626   2.169
25696WAT      O77329   9.825   1.789   0.865
25696WAT     H177330   9.921   1.812   0.882
25696WAT     H277331   9.817   1.691   0.846
25697WAT      O77332   3.115   8.855   0.661
25697WAT     H177333   3.051   8.895   0.726
25697WAT     H277334   3.070   8.839   0.574
25698WAT      O77335   1.529   8.587   1.519
25698WAT     H177336   1.624   8.614   1.533
25698WAT     H277337   1.516   8.560   1.424
25699WAT      O77338   6.808   1.595   9.504
25699WAT     H177339   6.819   1.684   9.550
25699WAT     H277340   6.713   1.564   9.513
25700WAT      O77341   4.359   5.477   5.534
25700WAT     H177342   4.369   5.478   5.633
25700WAT     H277343   4.333   5.568   5.502
25701WAT      O77344   7.931   2.727   9.448
25701WAT     H177345   7.985   2.762   9.524
25701WAT     H277346   7.927   2.796   9.375
25702WAT      O77347   5.937   9.030   7.897
25702WAT     H177348   5.898   9.077   7.976
25702WAT     H277349   5.964   8.937   7.923
25703WAT      O77350   6.236   4.316   4.859
25703WAT     H177351   6.188   4.259   4.793
25703WAT     H277352   6.335   4.313   4.840
25704WAT      O77353   6.911   4.481   6.716
25704WAT     H177354   6.866   4.392   6.718
25704WAT     H277355   6.897   4.523   6.626
25705WAT      O77356   8.692   4.629   8.588
25705WAT     H177357   8.718   4.548   8.536
25705WAT     H277358   8.658   4.699   8.525
25706WAT      O77359   0.231   2.505   5.691
25706WAT     H177360   0.177   2.481   5.611
25706WAT     H277361   0.171   2.533   5.766
25707WAT      O77362   5.397   9.284   5.682
25707WAT     H177363   5.478   9.317   5.729
25707WAT     H277364   5.342   9.228   5.744
25708WAT      O77365   0.585   7.294   2.828
25708WAT     H177366   0.605   7.232   2.752
25708WAT     H277367   0.492   7.277   2.861
25709WAT      O77368   8.271   4.584   4.756
25709WAT     H177369   8.275   4.496   4.708
25709WAT     H277370   8.188   4.588   4.811
25710WAT      O77371   4.165   9.730   8.860
25710WAT     H177372   4.199   9.813   8.816
25710WAT     H277373   4.240   9.665   8.872
25711WAT      O77374   2.413   6.852   9.838
25711WAT     H177375   2.345   6.843   9.766
25711WAT     H277376   2.422   6.766   9.887
25712WAT      O77377   4.831   0.357   3.262
25712WAT     H177378   4.795   0.313   3.180
25712WAT     H277379   4.930   0.341   3.268
25713WAT      O77380   9.397   9.556   8.936
25713WAT     H177381   9.451   9.566   8.853
25713WAT     H277382   9.459   9.551   9.015
25714WAT      O77383   1.733   1.291   7.764
25714WAT     H177384   1.775   1.357   7.701
25714WAT     H277385   1.640   1.321   7.786
25715WAT      O77386   1.863   9.474   3.441
25715WAT     H177387   1.832   9.402   3.503
25715WAT     H277388   1.961   9.490   3.455
25716WAT      O77389   2.184   0.767   5.055
25716WAT     H177390   2.267   0.809   5.017
25716WAT     H277391   2.126   0.735   4.981
25717WAT      O77392   1.303   8.979   4.023
25717WAT     H177393   1.236   8.911   3.993
25717WAT     H277394   1.277   9.069   3.991
25718WAT      O77395   2.560   8.304   6.196
25718WAT     H177396   2.516   8.249   6.267
25718WAT     H277397   2.608   8.243   6.133
25719WAT      O77398   4.560   0.961   9.013
25719WAT     H177399   4.496   1.008   9.074
25719WAT     H277400   4.519   0.954   8.922
25720WAT      O77401   0.583   3.490   5.319
25720WAT     H177402   0.517   3.444   5.378
25720WAT     H277403   0.663   3.517   5.373
25721WAT      O77404   3.998   6.947   5.999
25721WAT     H177405   4.077   6.885   6.002
25721WAT     H277406   3.925   6.904   5.946
25722WAT      O77407   9.333   0.831   3.487
25722WAT     H177408   9.295   0.738   3.484
25722WAT     H277409   9.261   0.895   3.515
25723WAT      O77410   8.316   1.684   6.377
25723WAT     H177411   8.288   1.779   6.391
25723WAT     H277412   8.412   1.681   6.351
25724WAT      O77413   4.184   5.704   0.406
25724WAT     H177414   4.164   5.744   0.495
25724WAT     H277415   4.169   5.772   0.334
25725WAT      O77416   3.725   9.324   8.173
25725WAT     H177417   3.726   9.357   8.268
25725WAT     H277418   3.724   9.402   8.111
25726WAT      O77419   4.373   6.013   9.382
25726WAT     H177420   4.287   5.975   9.415
25726WAT     H277421   4.380   6.109   9.410
25727WAT      O77422   0.543   2.387   5.412
25727WAT     H177423   0.524   2.290   5.403
25727WAT     H277424   0.497   2.422   5.494
25728WAT      O77425   5.066   2.103   5.664
25728WAT     H177426   5.046   2.200   5.650
25728WAT     H277427   5.089   2.087   5.760
25729WAT      O77428   3.429   5.751   6.058
25729WAT     H177429   3.402   5.847   6.070
25729WAT     H277430   3.505   5.747   5.993
25730WAT      O77431   1.776   9.208   5.921
25730WAT     H177432   1.792   9.142   5.848
25730WAT     H277433   1.772   9.300   5.882
25731WAT      O77434   3.792   4.337   3.404
25731WAT     H177435   3.799   4.241   3.432
25731WAT     H277436   3.844   4.351   3.320
25732WAT      O77437   7.842   5.796   3.693
25732WAT     H177438   7.891   5.880   3.717
25732WAT     H277439   7.798   5.758   3.775
25733WAT      O77440   2.783   1.774   8.455
25733WAT     H177441   2.690   1.811   8.460
25733WAT     H277442   2.849   1.849   8.463
25734WAT      O77443   2.577   8.505   0.258
25734WAT     H177444   2.537   8.593   0.232
25734WAT     H277445   2.656   8.521   0.318
25735WAT      O77446   4.623   3.868   4.942
25735WAT     H177447   4.628   3.782   4.993
25735WAT     H277448   4.714   3.905   4.929
25736WAT      O77449   4.325   7.607   8.898
25736WAT     H177450   4.243   7.633   8.949
25736WAT     H277451   4.371   7.689   8.863
25737WAT      O77452   3.825   7.424   3.814
25737WAT     H177453   3.830   7.522   3.794
25737WAT     H277454   3.848   7.409   3.910
25738WAT      O77455   5.896   0.723   0.018
25738WAT     H177456   5.876   0.667  -0.062
25738WAT     H277457   5.972   0.683   0.069
25739WAT      O77458   6.536   2.000   4.044
25739WAT     H177459   6.468   1.954   4.101
25739WAT     H277460   6.614   2.028   4.101
25740WAT      O77461   4.645   3.105   4.894
25740WAT     H177462   4.582   3.035   4.928
25740WAT     H277463   4.656   3.095   4.795
25741WAT      O77464   1.303   4.230   6.416
25741WAT     H177465   1.250   4.146   6.405
25741WAT     H277466   1.313   4.274   6.327
25742WAT      O77467   4.876   3.523   6.806
25742WAT     H177468   4.828   3.476   6.732
25742WAT     H277469   4.972   3.496   6.806
25743WAT      O77470   6.334   2.668   1.680
25743WAT     H177471   6.251   2.616   1.660
25743WAT     H277472   6.333   2.698   1.776
25744WAT      O77473   0.503   2.322   7.393
25744WAT     H177474   0.573   2.380   7.352
25744WAT     H277475   0.498   2.340   7.491
25745WAT      O77476   7.531   0.538   2.951
25745WAT     H177477   7.586   0.485   2.886
25745WAT     H277478   7.562   0.633   2.950
25746WAT      O77479   3.430   9.147   8.903
25746WAT     H177480   3.473   9.098   8.827
25746WAT     H277481   3.452   9.245   8.896
25747WAT      O77482   2.321   0.252   0.499
25747WAT     H177483   2.256   0.242   0.575
25747WAT     H277484   2.276   0.301   0.424
25748WAT      O77485   5.264   5.876   5.508
25748WAT     H177486   5.176   5.854   5.467
25748WAT     H277487   5.337   5.839   5.451
25749WAT      O77488   5.016   7.730   8.526
25749WAT     H177489   4.988   7.657   8.464
25749WAT     H277490   5.099   7.774   8.491
25750WAT      O77491   2.711   3.599   7.959
25750WAT     H177492   2.671   3.663   8.024
25750WAT     H277493   2.797   3.563   7.996
25751WAT      O77494   0.500   9.038   3.241
25751WAT     H177495   0.407   9.063   3.270
25751WAT     H277496   0.516   9.073   3.149
25752WAT      O77497   5.849   0.426   9.364
25752WAT     H177498   5.818   0.334   9.338
25752WAT     H277499   5.892   0.470   9.285
25753WAT      O77500   8.111   4.157   3.364
25753WAT     H177501   8.091   4.255   3.365
25753WAT     H277502   8.039   4.108   3.316
25754WAT      O77503   6.587   4.613   6.226
25754WAT     H177504   6.645   4.666   6.289
25754WAT     H277505   6.545   4.675   6.159
25755WAT      O77506   8.203   8.898   6.804
25755WAT     H177507   8.109   8.865   6.807
25755WAT     H277508   8.203   8.998   6.806
25756WAT      O77509   8.110   3.139   0.353
25756WAT     H177510   8.047   3.191   0.411
25756WAT     H277511   8.157   3.202   0.290
25757WAT      O77512   3.303   7.463   3.350
25757WAT     H177513   3.211   7.498   3.331
25757WAT     H277514   3.299   7.365   3.370
25758WAT      O77515   7.967   4.180   4.959
25758WAT     H177516   7.979   4.169   4.860
25758WAT     H277517   7.922   4.099   4.997
25759WAT      O77518   0.165   3.931   9.588
25759WAT     H177519   0.071   3.948   9.560
25759WAT     H277520   0.198   4.008   9.644
25760WAT      O77521   1.343   3.789   1.918
25760WAT     H177522   1.324   3.695   1.887
25760WAT     H277523   1.429   3.790   1.968
25761WAT      O77524   2.565   6.276   2.136
25761WAT     H177525   2.470   6.277   2.104
25761WAT     H277526   2.612   6.357   2.100
25762WAT      O77527   8.108   5.335   4.994
25762WAT     H177528   8.173   5.334   4.918
25762WAT     H277529   8.149   5.383   5.072
25763WAT      O77530   7.409   3.598   0.286
25763WAT     H177531   7.350   3.673   0.319
25763WAT     H277532   7.370   3.559   0.203
25764WAT      O77533   7.441   4.972   2.550
25764WAT     H177534   7.436   5.030   2.469
25764WAT     H277535   7.488   4.887   2.527
25765WAT      O77536   2.883   8.585   8.717
25765WAT     H177537   2.820   8.660   8.699
25765WAT     H277538   2.831   8.503   8.742
25766WAT      O77539   3.043   7.530   3.243
25766WAT     H177540   2.946   7.503   3.244
25766WAT     H277541   3.079   7.521   3.150
25767WAT      O77542   2.317   5.540   7.947
25767WAT     H177543   2.275   5.537   8.038
25767WAT     H277544   2.282   5.620   7.897
25768WAT      O77545   9.528   6.933   3.748
25768WAT     H177546   9.432   6.959   3.735
25768WAT     H277547   9.545   6.844   3.707
25769WAT      O77548   7.498   6.196   4.649
25769WAT     H177549   7.521   6.101   4.630
25769WAT     H277550   7.568   6.236   4.709
25770WAT      O77551   3.387   1.429   8.701
25770WAT     H177552   3.316   1.486   8.742
25770WAT     H277553   3.346   1.367   8.635
25771WAT      O77554   1.034   3.111   7.653
25771WAT     H177555   1.090   3.184   7.614
25771WAT     H277556   0.975   3.149   7.725
25772WAT      O77557   8.466   8.774   6.848
25772WAT     H177558   8.370   8.800   6.843
25772WAT     H277559   8.523   8.852   6.820
25773WAT      O77560   0.385   3.115   2.073
25773WAT     H177561   0.484   3.119   2.064
25773WAT     H277562   0.358   3.154   2.161
25774WAT      O77563   7.263   3.842   0.310
25774WAT     H177564   7.175   3.808   0.277
25774WAT     H277565   7.249   3.920   0.370
25775WAT      O77566   6.767   3.354   6.013
25775WAT     H177567   6.730   3.304   5.935
25775WAT     H277568   6.850   3.309   6.045
25776WAT      O77569   0.081   4.075   2.467
25776WAT     H177570   0.093   3.989   2.517
25776WAT     H277571   0.153   4.139   2.493
25777WAT      O77572   9.762   9.112   9.568
25777WAT     H177573   9.783   9.017   9.589
25777WAT     H277574   9.690   9.145   9.629
25778WAT      O77575   0.389   1.490   6.119
25778WAT     H177576   0.430   1.422   6.179
25778WAT     H277577   0.299   1.458   6.088
25779WAT      O77578   2.149   3.690   5.527
25779WAT     H177579   2.079   3.726   5.589
25779WAT     H277580   2.106   3.646   5.449
25780WAT      O77581   9.690   3.292   2.828
25780WAT     H177582   9.649   3.367   2.881
25780WAT     H277583   9.780   3.320   2.795
25781WAT      O77584   1.907   6.395   8.286
25781WAT     H177585   1.923   6.475   8.343
25781WAT     H277586   1.897   6.314   8.344
25782WAT      O77587   5.461   2.957   2.484
25782WAT     H177588   5.533   2.888   2.490
25782WAT     H277589   5.390   2.925   2.422
25783WAT      O77590   7.685   4.560   3.665
25783WAT     H177591   7.707   4.464   3.647
25783WAT     H277592   7.707   4.615   3.584
25784WAT      O77593   2.648   1.010   5.061
25784WAT     H177594   2.690   1.086   5.010
25784WAT     H277595   2.719   0.954   5.102
25785WAT      O77596   9.149   9.525   9.072
25785WAT     H177597   9.232   9.521   9.017
25785WAT     H277598   9.138   9.618   9.109
25786WAT      O77599   0.853   7.189   8.027
25786WAT     H177600   0.791   7.150   7.960
25786WAT     H277601   0.800   7.239   8.096
25787WAT      O77602   3.558   2.880   8.788
25787WAT     H177603   3.577   2.869   8.691
25787WAT     H277604   3.464   2.912   8.800
25788WAT      O77605   6.755   8.544   4.471
25788WAT     H177606   6.836   8.600   4.490
25788WAT     H277607   6.724   8.560   4.378
25789WAT      O77608   7.357   5.501   7.552
25789WAT     H177609   7.317   5.588   7.523
25789WAT     H277610   7.338   5.431   7.483
25790WAT      O77611   6.844   1.174   5.541
25790WAT     H177612   6.850   1.270   5.514
25790WAT     H277613   6.768   1.131   5.492
25791WAT      O77614   5.568   4.084   7.753
25791WAT     H177615   5.646   4.146   7.762
25791WAT     H277616   5.598   3.990   7.769
25792WAT      O77617   1.177   6.938   9.063
25792WAT     H177618   1.112   6.899   8.998
25792WAT     H277619   1.269   6.936   9.023
25793WAT      O77620   4.427   2.995   5.738
25793WAT     H177621   4.439   3.069   5.805
25793WAT     H277622   4.430   2.907   5.785
25794WAT      O77623   4.283   6.894   8.939
25794WAT     H177624   4.362   6.954   8.924
25794WAT     H277625   4.306   6.823   9.005
25795WAT      O77626   5.842   3.962   3.674
25795WAT     H177627   5.896   3.940   3.593
25795WAT     H277628   5.885   3.921   3.755
25796WAT      O77629   4.903   5.546   8.908
25796WAT     H177630   4.905   5.458   8.860
25796WAT     H277631   4.884   5.531   9.005
25797WAT      O77632   4.421   2.838   7.286
25797WAT     H177633   4.416   2.755   7.230
25797WAT     H277634   4.425   2.918   7.226
25798WAT      O77635   7.131   4.847   7.717
25798WAT     H177636   7.076   4.927   7.693
25798WAT     H277637   7.116   4.775   7.650
25799WAT      O77638   0.173   6.751   5.696
25799WAT     H177639   0.083   6.795   5.690
25799WAT     H277640   0.227   6.797   5.767
25800WAT      O77641   9.139   7.379   3.515
25800WAT     H177642   9.078   7.458   3.506
25800WAT     H277643   9.234   7.409   3.505
25801WAT      O77644   4.028   0.961   1.332
25801WAT     H177645   4.104   0.978   1.269
25801WAT     H277646   3.948   0.931   1.280
25802WAT      O77647   2.476   4.518   7.553
25802WAT     H177648   2.484   4.542   7.650
25802WAT     H277649   2.396   4.562   7.514
25803WAT      O77650   6.450   2.275   4.012
25803WAT     H177651   6.356   2.307   4.005
25803WAT     H277652   6.457   2.204   4.081
25804WAT      O77653   5.274   9.487   5.558
25804WAT     H177654   5.287   9.550   5.635
25804WAT     H277655   5.340   9.413   5.565
25805WAT      O77656   4.938   2.776   2.515
25805WAT     H177657   4.953   2.724   2.431
25805WAT     H277658   5.002   2.743   2.586
25806WAT      O77659   2.050   3.741   9.178
25806WAT     H177660   2.062   3.782   9.269
25806WAT     H277661   2.138   3.740   9.130
25807WAT      O77662   9.011   0.024   1.353
25807WAT     H177663   8.935   0.064   1.405
25807WAT     H277664   9.061  -0.040   1.411
25808WAT      O77665   0.310   8.005   8.698
25808WAT     H177666   0.260   7.930   8.741
25808WAT     H277667   0.248   8.083   8.686
25809WAT      O77668   4.102   8.507   9.489
25809WAT     H177669   4.042   8.544   9.418
25809WAT     H277670   4.065   8.530   9.579
25810WAT      O77671   2.781   6.235   4.716
25810WAT     H177672   2.748   6.186   4.797
25810WAT     H277673   2.831   6.317   4.745
25811WAT      O77674   8.524   5.649   5.464
25811WAT     H177675   8.483   5.577   5.520
25811WAT     H277676   8.607   5.613   5.421
25812WAT      O77677   7.170   1.082   4.719
25812WAT     H177678   7.259   1.103   4.758
25812WAT     H277679   7.177   0.999   4.664
25813WAT      O77680   0.991   5.429   8.032
25813WAT     H177681   1.004   5.416   8.130
25813WAT     H277682   1.080   5.434   7.987
25814WAT      O77683   7.720   2.307   1.995
25814WAT     H177684   7.795   2.326   1.932
25814WAT     H277685   7.745   2.229   2.054
25815WAT      O77686   2.502   9.296   8.471
25815WAT     H177687   2.472   9.384   8.436
25815WAT     H277688   2.575   9.260   8.412
25816WAT      O77689   2.161   8.847   2.628
25816WAT     H177690   2.094   8.841   2.702
25816WAT     H277691   2.117   8.885   2.547
25817WAT      O77692   2.066   3.007   4.867
25817WAT     H177693   2.050   2.947   4.945
25817WAT     H277694   2.164   3.019   4.854
25818WAT      O77695   5.499   2.823   3.950
25818WAT     H177696   5.455   2.888   4.013
25818WAT     H277697   5.586   2.862   3.918
25819WAT      O77698   0.535   5.934   4.731
25819WAT     H177699   0.608   5.872   4.756
25819WAT     H277700   0.568   6.029   4.736
25820WAT      O77701   2.848   0.372   3.534
25820WAT     H177702   2.920   0.426   3.579
25820WAT     H277703   2.848   0.279   3.572
25821WAT      O77704   7.195   2.674   3.990
25821WAT     H177705   7.096   2.671   4.001
25821WAT     H277706   7.222   2.761   3.949
25822WAT      O77707   1.138   3.936   7.704
25822WAT     H177708   1.133   4.028   7.744
25822WAT     H277709   1.113   3.868   7.773
25823WAT      O77710   5.032   6.339   2.560
25823WAT     H177711   5.080   6.316   2.645
25823WAT     H277712   4.934   6.321   2.572
25824WAT      O77713   3.827   8.782   5.776
25824WAT     H177714   3.753   8.836   5.736
25824WAT     H277715   3.789   8.713   5.837
25825WAT      O77716   9.036   2.322   9.393
25825WAT     H177717   9.097   2.393   9.358
25825WAT     H277718   9.090   2.256   9.446
25826WAT      O77719   9.820   4.156   0.025
25826WAT     H177720   9.895   4.131   0.087
25826WAT     H277721   9.845   4.239  -0.025
25827WAT      O77722   4.350   2.180   6.344
25827WAT     H177723   4.367   2.089   6.307
25827WAT     H277724   4.406   2.248   6.296
25828WAT      O77725   3.073   0.264   4.409
25828WAT     H177726   2.990   0.319   4.398
25828WAT     H277727   3.047   0.168   4.419
25829WAT      O77728   9.628   6.370   7.325
25829WAT     H177729   9.655   6.454   7.372
25829WAT     H277730   9.675   6.365   7.237
25830WAT      O77731   3.163   9.310   9.180
25830WAT     H177732   3.166   9.361   9.094
25830WAT     H277733   3.250   9.263   9.193
25831WAT      O77734   6.490   3.500   1.067
25831WAT     H177735   6.578   3.479   1.109
25831WAT     H277736   6.485   3.597   1.045
25832WAT      O77737   6.791   3.820   9.790
25832WAT     H177738   6.718   3.799   9.725
25832WAT     H277739   6.832   3.908   9.766
25833WAT      O77740   7.486   2.266   2.072
25833WAT     H177741   7.578   2.281   2.037
25833WAT     H277742   7.491   2.230   2.165
25834WAT      O77743   0.982   8.565   0.418
25834WAT     H177744   0.984   8.648   0.474
25834WAT     H277745   1.071   8.554   0.373
25835WAT      O77746   9.715   4.493   5.472
25835WAT     H177747   9.807   4.521   5.446
25835WAT     H277748   9.651   4.568   5.457
25836WAT      O77749   1.971   3.588   1.140
25836WAT     H177750   1.960   3.508   1.199
25836WAT     H277751   1.882   3.630   1.124
25837WAT      O77752   5.547   7.570   6.840
25837WAT     H177753   5.554   7.660   6.797
25837WAT     H277754   5.459   7.563   6.888
25838WAT      O77755   0.283   3.123   0.417
25838WAT     H177756   0.224   3.054   0.375
25838WAT     H277757   0.262   3.213   0.379
25839WAT      O77758   8.056   7.022   1.187
25839WAT     H177759   7.999   6.995   1.264
25839WAT     H277760   8.135   7.072   1.220
25840WAT      O77761   6.361   3.797   4.563
25840WAT     H177762   6.263   3.799   4.582
25840WAT     H277763   6.401   3.713   4.600
25841WAT      O77764   5.664   6.034   2.007
25841WAT     H177765   5.601   5.975   1.957
25841WAT     H277766   5.665   6.006   2.103
25842WAT      O77767   8.988   5.368   6.666
25842WAT     H177768   9.053   5.425   6.715
25842WAT     H277769   8.907   5.354   6.722
25843WAT      O77770   6.459   2.224   5.818
25843WAT     H177771   6.531   2.157   5.800
25843WAT     H277772   6.373   2.177   5.837
25844WAT      O77773   8.405   8.321   0.198
25844WAT     H177774   8.318   8.370   0.189
25844WAT     H277775   8.444   8.338   0.288
25845WAT      O77776   1.815   2.953   0.423
25845WAT     H177777   1.835   2.863   0.385
25845WAT     H277778   1.813   2.947   0.523
25846WAT      O77779   4.668   6.779   9.376
25846WAT     H177780   4.694   6.713   9.305
25846WAT     H277781   4.748   6.831   9.405
25847WAT      O77782   8.663   1.671   3.990
25847WAT     H177783   8.645   1.748   3.928
25847WAT     H277784   8.706   1.705   4.074
25848WAT      O77785   8.298   4.401   1.303
25848WAT     H177786   8.318   4.365   1.212
25848WAT     H277787   8.355   4.354   1.371
25849WAT      O77788   3.706   0.990   5.913
25849WAT     H177789   3.707   1.018   6.008
25849WAT     H277790   3.680   0.894   5.906
25850WAT      O77791   4.730   6.033   9.529
25850WAT     H177792   4.827   6.035   9.552
25850WAT     H277793   4.709   6.109   9.468
25851WAT      O77794   3.970   3.799   0.081
25851WAT     H177795   4.036   3.770   0.150
25851WAT     H277796   3.932   3.718   0.035
25852WAT      O77797   6.258   4.041   2.839
25852WAT     H177798   6.169   4.033   2.885
25852WAT     H277799   6.330   4.006   2.899
25853WAT      O77800   5.150   8.450   4.855
25853WAT     H177801   5.144   8.368   4.912
25853WAT     H277802   5.100   8.525   4.899
25854WAT      O77803   7.242   8.497   8.270
25854WAT     H177804   7.310   8.440   8.225
25854WAT     H277805   7.172   8.524   8.204
25855WAT      O77806   2.350   8.483   7.216
25855WAT     H177807   2.443   8.485   7.179
25855WAT     H277808   2.285   8.466   7.142
25856WAT      O77809   2.047   3.866   0.724
25856WAT     H177810   2.029   3.841   0.628
25856WAT     H277811   2.109   3.799   0.764
25857WAT      O77812   7.040   1.231   7.972
25857WAT     H177813   7.025   1.228   7.873
25857WAT     H277814   7.027   1.324   8.005
25858WAT      O77815   5.201   9.505   1.309
25858WAT     H177816   5.190   9.409   1.333
25858WAT     H277817   5.143   9.527   1.230
25859WAT      O77818   2.643   2.581   5.378
25859WAT     H177819   2.616   2.630   5.461
25859WAT     H277820   2.737   2.603   5.354
25860WAT      O77821   2.082   4.909   8.446
25860WAT     H177822   2.027   4.952   8.517
25860WAT     H277823   2.177   4.906   8.475
25861WAT      O77824   0.679   1.813   7.007
25861WAT     H177825   0.714   1.749   6.939
25861WAT     H277826   0.736   1.809   7.089
25862WAT      O77827   9.097   8.861   8.336
25862WAT     H177828   9.016   8.893   8.288
25862WAT     H277829   9.071   8.795   8.406
25863WAT      O77830   5.190   5.077   9.883
25863WAT     H177831   5.230   5.037   9.965
25863WAT     H277832   5.253   5.066   9.806
25864WAT      O77833   2.940   0.076   2.448
25864WAT     H177834   2.947   0.080   2.348
25864WAT     H277835   2.942   0.168   2.485
25865WAT      O77836   5.701   3.074   4.851
25865WAT     H177837   5.797   3.101   4.839
25865WAT     H277838   5.695   2.974   4.851
25866WAT      O77839   3.568   5.470   6.529
25866WAT     H177840   3.648   5.466   6.588
25866WAT     H277841   3.518   5.383   6.535
25867WAT      O77842   1.427   7.139   7.656
25867WAT     H177843   1.526   7.155   7.657
25867WAT     H277844   1.409   7.041   7.666
25868WAT      O77845   8.412   2.163   4.889
25868WAT     H177846   8.485   2.155   4.821
25868WAT     H277847   8.426   2.246   4.944
25869WAT      O77848   6.506   5.453   4.540
25869WAT     H177849   6.531   5.422   4.631
25869WAT     H277850   6.515   5.553   4.534
25870WAT      O77851   1.699   5.275   9.591
25870WAT     H177852   1.696   5.369   9.624
25870WAT     H277853   1.646   5.216   9.652
25871WAT      O77854   2.801   2.329   0.371
25871WAT     H177855   2.803   2.275   0.287
25871WAT     H277856   2.727   2.396   0.366
25872WAT      O77857   7.359   0.527   6.513
25872WAT     H177858   7.317   0.437   6.524
25872WAT     H277859   7.391   0.538   6.418
25873WAT      O77860   9.228   8.009   8.887
25873WAT     H177861   9.162   8.029   8.960
25873WAT     H277862   9.286   8.089   8.873
25874WAT      O77863   2.930   5.703   8.813
25874WAT     H177864   2.842   5.711   8.861
25874WAT     H277865   3.004   5.698   8.880
25875WAT      O77866   3.386   6.794   5.023
25875WAT     H177867   3.403   6.866   4.956
25875WAT     H277868   3.305   6.817   5.077
25876WAT      O77869   6.364   3.662   9.288
25876WAT     H177870   6.451   3.684   9.242
25876WAT     H277871   6.290   3.711   9.243
25877WAT      O77872   8.843   1.550   0.891
25877WAT     H177873   8.773   1.596   0.946
25877WAT     H277874   8.915   1.515   0.951
25878WAT      O77875   4.464   5.460   7.164
25878WAT     H177876   4.405   5.430   7.088
25878WAT     H277877   4.501   5.380   7.211
25879WAT      O77878   2.112   4.801   3.928
25879WAT     H177879   2.142   4.877   3.869
25879WAT     H277880   2.178   4.789   4.002
25880WAT      O77881   6.579   0.998   6.689
25880WAT     H177882   6.584   1.074   6.753
25880WAT     H277883   6.522   1.023   6.612
25881WAT      O77884   1.248   7.476   7.351
25881WAT     H177885   1.281   7.382   7.345
25881WAT     H277886   1.233   7.500   7.447
25882WAT      O77887   3.632   5.379   4.275
25882WAT     H177888   3.665   5.435   4.352
25882WAT     H277889   3.545   5.337   4.299
25883WAT      O77890   7.862   4.715   1.259
25883WAT     H177891   7.882   4.795   1.203
25883WAT     H277892   7.911   4.636   1.223
25884WAT      O77893   3.610   3.972   7.040
25884WAT     H177894   3.696   3.981   7.091
25884WAT     H277895   3.539   4.028   7.084
25885WAT      O77896   0.541   7.353   9.816
25885WAT     H177897   0.578   7.284   9.754
25885WAT     H277898   0.593   7.353   9.901
25886WAT      O77899   0.376   7.690   2.272
25886WAT     H177900   0.297   7.684   2.211
25886WAT     H277901   0.435   7.766   2.244
25887WAT      O77902   6.129   6.940   9.614
25887WAT     H177903   6.083   6.879   9.678
25887WAT     H277904   6.184   6.887   9.550
25888WAT      O77905   7.079   4.631   8.649
25888WAT     H177906   7.048   4.536   8.655
25888WAT     H277907   7.118   4.660   8.737
25889WAT      O77908   6.169   8.079   0.604
25889WAT     H177909   6.216   8.080   0.516
25889WAT     H277910   6.235   8.061   0.677
25890WAT      O77911   1.830   3.228   8.695
25890WAT     H177912   1.917   3.187   8.722
25890WAT     H277913   1.786   3.269   8.775
25891WAT      O77914   4.463   9.234   6.225
25891WAT     H177915   4.537   9.261   6.287
25891WAT     H277916   4.428   9.314   6.178
25892WAT      O77917   4.931   6.835   6.762
25892WAT     H177918   4.887   6.805   6.677
25892WAT     H277919   4.860   6.859   6.828
25893WAT      O77920   5.498   5.201   5.508
25893WAT     H177921   5.432   5.251   5.563
25893WAT     H277922   5.585   5.250   5.508
25894WAT      O77923   7.570   8.986   2.728
25894WAT     H177924   7.493   8.932   2.693
25894WAT     H277925   7.564   8.990   2.828
25895WAT      O77926   0.120   6.456   9.262
25895WAT     H177927   0.105   6.358   9.272
25895WAT     H277928   0.043   6.505   9.304
25896WAT      O77929   3.630   4.787   9.407
25896WAT     H177930   3.551   4.833   9.446
25896WAT     H277931   3.600   4.708   9.353
25897WAT      O77932   5.697   5.336   4.245
25897WAT     H177933   5.713   5.434   4.254
25897WAT     H277934   5.620   5.320   4.182
25898WAT      O77935   3.750   1.971   2.335
25898WAT     H177936   3.744   2.058   2.384
25898WAT     H277937   3.799   1.905   2.392
25899WAT      O77938   8.473   9.814   5.282
25899WAT     H177939   8.508   9.808   5.376
25899WAT     H277940   8.550   9.811   5.218
25900WAT      O77941   0.761   2.832   6.940
25900WAT     H177942   0.769   2.775   6.858
25900WAT     H277943   0.677   2.887   6.934
25901WAT      O77944   4.486   3.494   4.659
25901WAT     H177945   4.522   3.511   4.750
25901WAT     H277946   4.431   3.572   4.629
25902WAT      O77947   8.017   6.518   1.423
25902WAT     H177948   8.086   6.446   1.410
25902WAT     H277949   8.005   6.568   1.338
25903WAT      O77950   5.008   5.016   3.277
25903WAT     H177951   4.920   5.006   3.324
25903WAT     H277952   4.996   5.067   3.192
25904WAT      O77953   1.143   7.256   8.152
25904WAT     H177954   1.179   7.307   8.230
25904WAT     H277955   1.112   7.320   8.082
25905WAT      O77956   0.511   7.583   5.866
25905WAT     H177957   0.443   7.610   5.798
25905WAT     H277958   0.465   7.538   5.943
25906WAT      O77959   3.771   3.077   9.146
25906WAT     H177960   3.801   3.159   9.196
25906WAT     H277961   3.825   3.068   9.062
25907WAT      O77962   8.251   3.559   5.227
25907WAT     H177963   8.226   3.464   5.208
25907WAT     H277964   8.330   3.584   5.170
25908WAT      O77965   4.041   6.666   1.010
25908WAT     H177966   4.064   6.570   1.024
25908WAT     H277967   3.947   6.682   1.039
25909WAT      O77968   1.014   9.513   7.004
25909WAT     H177969   1.010   9.607   6.970
25909WAT     H277970   0.939   9.460   6.963
25910WAT      O77971   8.735   0.202   4.086
25910WAT     H177972   8.737   0.285   4.032
25910WAT     H277973   8.822   0.191   4.134
25911WAT      O77974   4.373   5.669   2.392
25911WAT     H177975   4.471   5.691   2.394
25911WAT     H277976   4.360   5.582   2.344
25912WAT      O77977   4.321   1.324   7.073
25912WAT     H177978   4.284   1.398   7.016
25912WAT     H277979   4.249   1.256   7.090
25913WAT      O77980   4.270   3.166   6.431
25913WAT     H177981   4.351   3.157   6.488
25913WAT     H277982   4.228   3.255   6.449
25914WAT      O77983   7.479   1.268   6.386
25914WAT     H177984   7.561   1.226   6.425
25914WAT     H277985   7.407   1.272   6.455
25915WAT      O77986   1.480   0.360   1.915
25915WAT     H177987   1.506   0.313   1.831
25915WAT     H277988   1.555   0.354   1.982
25916WAT      O77989   8.615   7.049   4.592
25916WAT     H177990   8.606   7.015   4.498
25916WAT     H277991   8.636   6.973   4.653
25917WAT      O77992   4.804   1.712   6.801
25917WAT     H177993   4.849   1.687   6.715
25917WAT     H277994   4.832   1.804   6.828
25918WAT      O77995   0.688   9.025   1.286
25918WAT     H177996   0.694   8.925   1.278
25918WAT     H277997   0.682   9.065   1.194
25919WAT      O77998   3.733   3.509   9.664
25919WAT     H177999   3.638   3.534   9.686
25919WAT     H278000   3.757   3.548   9.575
25920WAT      O78001   0.375   8.241   2.772
25920WAT     H178002   0.376   8.322   2.830
25920WAT     H278003   0.291   8.242   2.716
25921WAT      O78004   3.451   0.990   9.804
25921WAT     H178005   3.519   0.917   9.797
25921WAT     H278006   3.361   0.955   9.780
25922WAT      O78007   8.834   2.106   4.660
25922WAT     H178008   8.906   2.168   4.689
25922WAT     H278009   8.865   2.011   4.671
25923WAT      O78010   9.779   9.520   0.389
25923WAT     H178011   9.787   9.611   0.428
25923WAT     H278012   9.739   9.526   0.298
25924WAT      O78013   0.703   0.909   4.097
25924WAT     H178014   0.649   0.967   4.036
25924WAT     H278015   0.691   0.940   4.191
25925WAT      O78016   1.880   7.428   7.114
25925WAT     H178017   1.959   7.488   7.122
25925WAT     H278018   1.908   7.343   7.070
25926WAT      O78019   7.066   0.608   9.299
25926WAT     H178020   7.024   0.639   9.214
25926WAT     H278021   7.037   0.668   9.374
25927WAT      O78022   6.876   4.224   5.292
25927WAT     H178023   6.878   4.222   5.392
25927WAT     H278024   6.957   4.177   5.256
25928WAT      O78025   1.878   8.438   1.757
25928WAT     H178026   1.918   8.378   1.688
25928WAT     H278027   1.784   8.411   1.775
25929WAT      O78028   6.524   0.705   0.495
25929WAT     H178029   6.544   0.770   0.569
25929WAT     H278030   6.585   0.626   0.504
25930WAT      O78031   0.761   6.942   9.649
25930WAT     H178032   0.661   6.941   9.643
25930WAT     H278033   0.796   6.849   9.641
25931WAT      O78034   5.383   2.815   0.360
25931WAT     H178035   5.302   2.851   0.404
25931WAT     H278036   5.356   2.749   0.289
25932WAT      O78037   7.621   0.385   5.800
25932WAT     H178038   7.529   0.380   5.761
25932WAT     H278039   7.681   0.322   5.750
25933WAT      O78040   1.253   6.593   1.453
25933WAT     H178041   1.302   6.556   1.374
25933WAT     H278042   1.211   6.680   1.428
25934WAT      O78043   1.557   0.733   6.047
25934WAT     H178044   1.477   0.688   6.007
25934WAT     H278045   1.618   0.664   6.086
25935WAT      O78046   9.198   0.559   9.825
25935WAT     H178047   9.103   0.566   9.794
25935WAT     H278048   9.258   0.559   9.745
25936WAT      O78049   8.579   7.187   2.068
25936WAT     H178050   8.505   7.127   2.040
25936WAT     H278051   8.566   7.278   2.027
25937WAT      O78052   9.722   3.417   7.709
25937WAT     H178053   9.768   3.426   7.798
25937WAT     H278054   9.647   3.484   7.704
25938WAT      O78055   2.260   9.731   8.247
25938WAT     H178056   2.267   9.831   8.244
25938WAT     H278057   2.182   9.704   8.303
25939WAT      O78058   6.216   5.980   1.429
25939WAT     H178059   6.144   6.046   1.450
25939WAT     H278060   6.236   5.925   1.511
25940WAT      O78061   1.653   5.879   5.686
25940WAT     H178062   1.658   5.831   5.598
25940WAT     H278063   1.622   5.972   5.672
25941WAT      O78064   2.669   0.860   2.552
25941WAT     H178065   2.640   0.794   2.621
25941WAT     H278066   2.735   0.818   2.491
25942WAT      O78067   8.478   1.471   3.373
25942WAT     H178068   8.455   1.374   3.381
25942WAT     H278069   8.576   1.483   3.387
25943WAT      O78070   7.871   3.342   8.680
25943WAT     H178071   7.967   3.361   8.698
25943WAT     H278072   7.863   3.255   8.630
25944WAT      O78073   6.752   7.992   5.193
25944WAT     H178074   6.774   8.075   5.143
25944WAT     H278075   6.742   8.014   5.291
25945WAT      O78076   6.595   6.319   4.830
25945WAT     H178077   6.603   6.223   4.857
25945WAT     H278078   6.501   6.350   4.843
25946WAT      O78079   3.723   3.550   5.604
25946WAT     H178080   3.810   3.523   5.646
25946WAT     H278081   3.727   3.536   5.505
25947WAT      O78082   1.198   4.275   1.862
25947WAT     H178083   1.101   4.252   1.871
25947WAT     H278084   1.241   4.274   1.952
25948WAT      O78085   5.813   6.283   3.618
25948WAT     H178086   5.881   6.352   3.592
25948WAT     H278087   5.860   6.207   3.663
25949WAT      O78088   7.224   3.351   1.067
25949WAT     H178089   7.167   3.326   0.988
25949WAT     H278090   7.298   3.411   1.037
25950WAT      O78091   9.743   0.311   8.278
25950WAT     H178092   9.778   0.283   8.367
25950WAT     H278093   9.644   0.297   8.276
25951WAT      O78094   8.158   1.030   3.365
25951WAT     H178095   8.084   0.991   3.420
25951WAT     H278096   8.234   1.055   3.424
25952WAT      O78097   9.332   3.815   4.327
25952WAT     H178098   9.310   3.897   4.274
25952WAT     H278099   9.390   3.839   4.405
25953WAT      O78100   8.886   6.069   4.622
25953WAT     H178101   8.977   6.064   4.664
25953WAT     H278102   8.856   5.977   4.595
25954WAT      O78103   8.039   3.844   2.338
25954WAT     H178104   8.082   3.842   2.247
25954WAT     H278105   8.107   3.866   2.407
25955WAT      O78106   0.212   1.713   8.491
25955WAT     H178107   0.308   1.693   8.471
25955WAT     H278108   0.203   1.737   8.588
25956WAT      O78109   4.716   0.533   1.429
25956WAT     H178110   4.779   0.457   1.440
25956WAT     H278111   4.699   0.549   1.332
25957WAT      O78112   3.276   5.516   5.342
25957WAT     H178113   3.364   5.551   5.309
25957WAT     H278114   3.217   5.592   5.367
25958WAT      O78115   3.616   7.601   7.062
25958WAT     H178116   3.686   7.577   6.996
25958WAT     H278117   3.612   7.532   7.134
25959WAT      O78118   4.296   6.589   0.253
25959WAT     H178119   4.266   6.607   0.159
25959WAT     H278120   4.263   6.661   0.313
25960WAT      O78121   8.535   2.092   0.466
25960WAT     H178122   8.486   2.081   0.379
25960WAT     H278123   8.634   2.097   0.447
25961WAT      O78124   4.258   0.024   5.711
25961WAT     H178125   4.347   0.008   5.668
25961WAT     H278126   4.208   0.094   5.660
25962WAT      O78127   2.626   6.560   5.380
25962WAT     H178128   2.666   6.555   5.471
25962WAT     H278129   2.536   6.516   5.381
25963WAT      O78130   1.508   2.470   8.319
25963WAT     H178131   1.555   2.506   8.238
25963WAT     H278132   1.426   2.421   8.290
25964WAT      O78133   9.111   0.163   5.731
25964WAT     H178134   9.184   0.113   5.683
25964WAT     H278135   9.079   0.108   5.808
25965WAT      O78136   3.020   1.857   3.948
25965WAT     H178137   2.969   1.939   3.975
25965WAT     H278138   2.983   1.777   3.995
25966WAT      O78139   8.789   6.330   3.465
25966WAT     H178140   8.840   6.259   3.416
25966WAT     H278141   8.801   6.318   3.564
25967WAT      O78142   1.990   9.397   4.798
25967WAT     H178143   1.911   9.338   4.781
25967WAT     H278144   1.965   9.492   4.779
25968WAT      O78145   6.630   2.922   2.746
25968WAT     H178146   6.646   2.868   2.664
25968WAT     H278147   6.548   2.978   2.734
25969WAT      O78148   0.297   8.212   6.101
25969WAT     H178149   0.333   8.273   6.172
25969WAT     H278150   0.202   8.235   6.083
25970WAT      O78151   5.763   3.431   3.296
25970WAT     H178152   5.829   3.502   3.318
25970WAT     H278153   5.788   3.346   3.344
25971WAT      O78154   0.471   6.875   1.588
25971WAT     H178155   0.383   6.834   1.612
25971WAT     H278156   0.527   6.884   1.670
25972WAT      O78157   6.858   0.377   7.609
25972WAT     H178158   6.848   0.297   7.549
25972WAT     H278159   6.832   0.352   7.702
25973WAT      O78160   3.711   9.572   3.266
25973WAT     H178161   3.672   9.530   3.348
25973WAT     H278162   3.809   9.587   3.280
25974WAT      O78163   6.675   4.022   8.820
25974WAT     H178164   6.676   3.922   8.825
25974WAT     H278165   6.618   4.051   8.743
25975WAT      O78166   4.174   1.969   6.636
25975WAT     H178167   4.143   1.922   6.719
25975WAT     H278168   4.229   2.048   6.662
25976WAT      O78169   6.964   9.850   2.663
25976WAT     H178170   7.028   9.785   2.705
25976WAT     H278171   6.886   9.800   2.625
25977WAT      O78172   7.113   8.732   7.108
25977WAT     H178173   7.111   8.697   7.202
25977WAT     H278174   7.120   8.655   7.044
25978WAT      O78175   4.916   8.401   9.332
25978WAT     H178176   5.002   8.350   9.328
25978WAT     H278177   4.934   8.494   9.365
25979WAT      O78178   7.601   1.326   2.050
25979WAT     H178179   7.513   1.283   2.031
25979WAT     H278180   7.657   1.326   1.968
25980WAT      O78181   5.098   3.842   4.176
25980WAT     H178182   5.071   3.854   4.271
25980WAT     H278183   5.194   3.815   4.171
25981WAT      O78184   2.945   9.154   2.514
25981WAT     H178185   2.965   9.111   2.426
25981WAT     H278186   2.908   9.085   2.577
25982WAT      O78187   2.447   3.509   5.023
25982WAT     H178188   2.447   3.608   5.013
25982WAT     H278189   2.471   3.484   5.117
25983WAT      O78190   7.837   5.993   4.466
25983WAT     H178191   7.891   5.909   4.465
25983WAT     H278192   7.739   5.970   4.466
25984WAT      O78193   6.810   6.886   7.637
25984WAT     H178194   6.759   6.917   7.717
25984WAT     H278195   6.807   6.957   7.566
25985WAT      O78196   5.692   6.354   5.452
25985WAT     H178197   5.603   6.346   5.408
25985WAT     H278198   5.724   6.264   5.480
25986WAT      O78199   4.426   9.758   1.858
25986WAT     H178200   4.410   9.854   1.836
25986WAT     H278201   4.440   9.749   1.956
25987WAT      O78202   3.705   2.362   4.756
25987WAT     H178203   3.801   2.377   4.782
25987WAT     H278204   3.697   2.280   4.701
25988WAT      O78205   2.523   3.706   5.454
25988WAT     H178206   2.487   3.765   5.526
25988WAT     H278207   2.622   3.702   5.460
25989WAT      O78208   5.516   5.116   5.258
25989WAT     H178209   5.512   5.126   5.358
25989WAT     H278210   5.592   5.057   5.233
25990WAT      O78211   2.609   2.773   7.603
25990WAT     H178212   2.612   2.760   7.504
25990WAT     H278213   2.673   2.710   7.647
25991WAT      O78214   2.261   2.529   3.281
25991WAT     H178215   2.288   2.489   3.369
25991WAT     H278216   2.163   2.547   3.281
25992WAT      O78217   5.870   9.620   4.254
25992WAT     H178218   5.884   9.556   4.329
25992WAT     H278219   5.774   9.648   4.251
25993WAT      O78220   0.196   3.216   1.630
25993WAT     H178221   0.100   3.212   1.657
25993WAT     H278222   0.247   3.144   1.678
25994WAT      O78223   8.113   5.132   8.347
25994WAT     H178224   8.094   5.082   8.263
25994WAT     H278225   8.123   5.229   8.327
25995WAT      O78226   3.225   6.965   8.866
25995WAT     H178227   3.139   6.998   8.905
25995WAT     H278228   3.206   6.914   8.782
25996WAT      O78229   5.383   2.358   3.471
25996WAT     H178230   5.304   2.336   3.414
25996WAT     H278231   5.464   2.367   3.413
25997WAT      O78232   7.366   6.652   5.358
25997WAT     H178233   7.445   6.693   5.314
25997WAT     H278234   7.365   6.678   5.455
25998WAT      O78235   6.217   3.764   3.145
25998WAT     H178236   6.267   3.718   3.072
25998WAT     H278237   6.246   3.728   3.234
25999WAT      O78238   4.716   9.634   5.762
25999WAT     H178239   4.740   9.706   5.697
25999WAT     H278240   4.645   9.576   5.723
26000WAT      O78241   3.509   4.981   0.767
26000WAT     H178242   3.529   5.056   0.703
26000WAT     H278243   3.593   4.931   0.788
26001WAT      O78244   6.716   1.028   5.106
26001WAT     H178245   6.649   0.961   5.073
26001WAT     H278246   6.786   0.982   5.160
26002WAT      O78247   5.604   5.543   1.961
26002WAT     H178248   5.641   5.580   1.875
26002WAT     H278249   5.677   5.539   2.029
26003WAT      O78250   5.219   9.228   3.817
26003WAT     H178251   5.121   9.205   3.815
26003WAT     H278252   5.258   9.197   3.903
26004WAT      O78253   2.965   8.739   1.637
26004WAT     H178254   2.984   8.727   1.539
26004WAT     H278255   3.046   8.777   1.682
26005WAT      O78256   4.451   1.063   1.389
26005WAT     H178257   4.376   1.106   1.439
26005WAT     H278258   4.525   1.041   1.453
26006WAT      O78259   7.158   1.844   2.632
26006WAT     H178260   7.101   1.762   2.638
26006WAT     H278261   7.114   1.919   2.682
26007WAT      O78262   7.041   0.855   8.186
26007WAT     H178263   6.996   0.776   8.227
26007WAT     H278264   7.140   0.846   8.195
26008WAT      O78265   4.331   9.104   8.268
26008WAT     H178266   4.393   9.172   8.230
26008WAT     H278267   4.237   9.129   8.247
26009WAT      O78268   6.407   3.456   8.956
26009WAT     H178269   6.405   3.516   8.875
26009WAT     H278270   6.496   3.463   9.000
26010WAT      O78271   4.571   4.392   7.111
26010WAT     H178272   4.588   4.388   7.013
26010WAT     H278273   4.628   4.463   7.153
26011WAT      O78274   3.652   2.920   0.929
26011WAT     H178275   3.591   2.986   0.974
26011WAT     H278276   3.598   2.844   0.894
26012WAT      O78277   5.373   3.179   3.901
26012WAT     H178278   5.361   3.223   3.990
26012WAT     H278279   5.433   3.235   3.843
26013WAT      O78280   0.045   5.746   5.458
26013WAT     H178281   0.010   5.789   5.541
26013WAT     H278282  -0.022   5.681   5.422
26014WAT      O78283   9.442   2.059   8.576
26014WAT     H178284   9.537   2.090   8.575
26014WAT     H278285   9.411   2.053   8.671
26015WAT      O78286   1.704   3.334   4.670
26015WAT     H178287   1.723   3.333   4.572
26015WAT     H278288   1.777   3.383   4.718
26016WAT      O78289   3.396   1.572   7.546
26016WAT     H178290   3.297   1.588   7.543
26016WAT     H278291   3.439   1.606   7.462
26017WAT      O78292   8.772   4.725   4.413
26017WAT     H178293   8.788   4.685   4.503
26017WAT     H278294   8.726   4.813   4.423
26018WAT      O78295   0.544   7.284   4.338
26018WAT     H178296   0.597   7.282   4.423
26018WAT     H278297   0.461   7.231   4.349
26019WAT      O78298   7.185   3.210   6.171
26019WAT     H178299   7.147   3.144   6.236
26019WAT     H278300   7.222   3.288   6.221
26020WAT      O78301   8.630   5.582   5.099
26020WAT     H178302   8.699   5.570   5.170
26020WAT     H278303   8.571   5.502   5.095
26021WAT      O78304   9.448   8.474   3.719
26021WAT     H178305   9.498   8.560   3.721
26021WAT     H278306   9.505   8.403   3.678
26022WAT      O78307   5.163   4.195   5.651
26022WAT     H178308   5.153   4.280   5.599
26022WAT     H278309   5.201   4.216   5.741
26023WAT      O78310   2.459   5.523   2.667
26023WAT     H178311   2.449   5.549   2.571
26023WAT     H278312   2.456   5.605   2.725
26024WAT      O78313   5.370   7.090   0.821
26024WAT     H178314   5.368   6.994   0.852
26024WAT     H278315   5.358   7.150   0.900
26025WAT      O78316   7.034   9.008   8.987
26025WAT     H178317   7.128   8.986   8.959
26025WAT     H278318   6.989   9.060   8.914
26026WAT      O78319   2.666   3.550   1.777
26026WAT     H178320   2.762   3.526   1.788
26026WAT     H278321   2.648   3.640   1.818
26027WAT      O78322   9.737   4.153   5.293
26027WAT     H178323   9.761   4.186   5.384
26027WAT     H278324   9.641   4.125   5.291
26028WAT      O78325   3.218   1.333   6.003
26028WAT     H178326   3.132   1.312   5.957
26028WAT     H278327   3.294   1.312   5.941
26029WAT      O78328   5.126   4.610   7.916
26029WAT     H178329   5.130   4.516   7.950
26029WAT     H278330   5.217   4.652   7.923
26030WAT      O78331   6.999   1.480   8.576
26030WAT     H178332   6.913   1.520   8.545
26030WAT     H278333   7.054   1.452   8.497
26031WAT      O78334   2.231   4.819   1.606
26031WAT     H178335   2.146   4.872   1.611
26031WAT     H278336   2.298   4.856   1.670
26032WAT      O78337   4.317   4.863   0.738
26032WAT     H178338   4.285   4.949   0.778
26032WAT     H278339   4.239   4.806   0.713
26033WAT      O78340   1.765   0.138   8.532
26033WAT     H178341   1.827   0.067   8.499
26033WAT     H278342   1.800   0.174   8.619
26034WAT      O78343   3.740   0.199   1.942
26034WAT     H178344   3.656   0.152   1.913
26034WAT     H278345   3.737   0.213   2.041
26035WAT      O78346   5.304   6.762   2.427
26035WAT     H178347   5.351   6.705   2.494
26035WAT     H278348   5.216   6.721   2.404
26036WAT      O78349   6.440   5.662   8.734
26036WAT     H178350   6.398   5.659   8.825
26036WAT     H278351   6.424   5.576   8.687
26037WAT      O78352   8.049   4.546   4.903
26037WAT     H178353   8.001   4.460   4.920
26037WAT     H278354   8.112   4.564   4.979
26038WAT      O78355   9.031   0.781   3.191
26038WAT     H178356   8.968   0.858   3.204
26038WAT     H278357   9.125   0.814   3.194
26039WAT      O78358   7.093   3.919   4.384
26039WAT     H178359   7.163   3.942   4.316
26039WAT     H278360   7.128   3.848   4.444
26040WAT      O78361   1.281   0.150   2.010
26040WAT     H178362   1.307   0.246   2.006
26040WAT     H278363   1.336   0.097   1.945
26041WAT      O78364   9.292   6.178   0.989
26041WAT     H178365   9.312   6.160   1.085
26041WAT     H278366   9.360   6.242   0.952
26042WAT      O78367   1.966   4.854   1.233
26042WAT     H178368   1.982   4.758   1.254
26042WAT     H278369   2.047   4.908   1.258
26043WAT      O78370   2.495   4.709   3.126
26043WAT     H178371   2.581   4.760   3.117
26043WAT     H278372   2.460   4.720   3.218
26044WAT      O78373   2.166   9.542   3.416
26044WAT     H178374   2.241   9.499   3.366
26044WAT     H278375   2.094   9.569   3.352
26045WAT      O78376   5.265   8.612   7.466
26045WAT     H178377   5.205   8.691   7.456
26045WAT     H278378   5.301   8.586   7.376
26046WAT      O78379   1.850   4.567   8.297
26046WAT     H178380   1.813   4.652   8.260
26046WAT     H278381   1.918   4.530   8.235
26047WAT      O78382   9.576   0.461   1.266
26047WAT     H178383   9.493   0.409   1.286
26047WAT     H278384   9.655   0.399   1.262
26048WAT      O78385   1.428   6.306   0.218
26048WAT     H178386   1.403   6.395   0.178
26048WAT     H278387   1.396   6.303   0.313
26049WAT      O78388   5.033   3.945   5.779
26049WAT     H178389   5.055   4.038   5.749
26049WAT     H278390   5.079   3.879   5.719
26050WAT      O78391   4.827   9.816   2.628
26050WAT     H178392   4.839   9.789   2.723
26050WAT     H278393   4.805   9.914   2.623
26051WAT      O78394   1.726   0.676   9.511
26051WAT     H178395   1.806   0.657   9.454
26051WAT     H278396   1.658   0.726   9.457
26052WAT      O78397   7.686   2.140   1.444
26052WAT     H178398   7.771   2.089   1.431
26052WAT     H278399   7.648   2.164   1.355
26053WAT      O78400   6.021   1.471   7.277
26053WAT     H178401   6.014   1.567   7.302
26053WAT     H278402   6.061   1.420   7.353
26054WAT      O78403   5.258   8.765   5.528
26054WAT     H178404   5.301   8.777   5.617
26054WAT     H278405   5.320   8.716   5.467
26055WAT      O78406   7.742   8.783   2.753
26055WAT     H178407   7.839   8.796   2.773
26055WAT     H278408   7.698   8.872   2.742
26056WAT      O78409   2.988   5.802   0.068
26056WAT     H178410   2.961   5.862   0.143
26056WAT     H278411   2.925   5.724   0.063
26057WAT      O78412   8.627   3.485   0.212
26057WAT     H178413   8.582   3.423   0.148
26057WAT     H278414   8.600   3.462   0.306
26058WAT      O78415   8.883   4.256   4.433
26058WAT     H178416   8.924   4.346   4.416
26058WAT     H278417   8.909   4.194   4.359
26059WAT      O78418   2.708   8.012   6.369
26059WAT     H178419   2.759   7.970   6.444
26059WAT     H278420   2.705   7.949   6.291
26060WAT      O78421   1.293   1.124   4.134
26060WAT     H178422   1.373   1.154   4.186
26060WAT     H278423   1.308   1.142   4.037
26061WAT      O78424   4.268   1.762   7.404
26061WAT     H178425   4.205   1.692   7.372
26061WAT     H278426   4.250   1.848   7.357
26062WAT      O78427   0.361   8.345   3.456
26062WAT     H178428   0.308   8.364   3.374
26062WAT     H278429   0.438   8.409   3.462
26063WAT      O78430   6.739   4.146   0.506
26063WAT     H178431   6.652   4.112   0.541
26063WAT     H278432   6.801   4.070   0.490
26064WAT      O78433   2.294   6.960   7.713
26064WAT     H178434   2.233   7.031   7.678
26064WAT     H278435   2.331   6.989   7.802
26065WAT      O78436   2.651   2.332   4.246
26065WAT     H178437   2.614   2.301   4.159
26065WAT     H278438   2.749   2.314   4.249
26066WAT      O78439   4.841   8.016   2.968
26066WAT     H178440   4.878   7.924   2.957
26066WAT     H278441   4.759   8.026   2.911
26067WAT      O78442   1.754   9.489   9.135
26067WAT     H178443   1.707   9.496   9.047
26067WAT     H278444   1.735   9.400   9.176
26068WAT      O78445   6.825   9.576   1.721
26068WAT     H178446   6.779   9.664   1.730
26068WAT     H278447   6.909   9.577   1.775
26069WAT      O78448   4.398   0.309   3.105
26069WAT     H178449   4.410   0.361   3.189
26069WAT     H278450   4.430   0.363   3.027
26070WAT      O78451   8.971   1.250   2.455
26070WAT     H178452   8.913   1.190   2.512
26070WAT     H278453   9.043   1.195   2.412
26071WAT      O78454   6.052   9.729   3.541
26071WAT     H178455   6.013   9.666   3.608
26071WAT     H278456   6.148   9.746   3.564
26072WAT      O78457   1.026   0.170   0.442
26072WAT     H178458   1.027   0.127   0.532
26072WAT     H278459   1.101   0.236   0.435
26073WAT      O78460   6.057   6.703   7.550
26073WAT     H178461   6.000   6.649   7.487
26073WAT     H278462   6.018   6.699   7.642
26074WAT      O78463   5.121   9.573   0.557
26074WAT     H178464   5.077   9.490   0.523
26074WAT     H278465   5.204   9.549   0.607
26075WAT      O78466   3.842   3.128   3.287
26075WAT     H178467   3.886   3.211   3.322
26075WAT     H278468   3.846   3.056   3.357
26076WAT      O78469   6.654   3.792   1.796
26076WAT     H178470   6.736   3.843   1.770
26076WAT     H278471   6.582   3.806   1.728
26077WAT      O78472   0.641   9.571   1.979
26077WAT     H178473   0.721   9.522   1.945
26077WAT     H278474   0.621   9.649   1.918
26078WAT      O78475   9.862   0.971   9.019
26078WAT     H178476   9.774   0.928   8.998
26078WAT     H278477   9.932   0.899   9.030
26079WAT      O78478   5.810   4.642   9.599
26079WAT     H178479   5.754   4.577   9.548
26079WAT     H278480   5.845   4.712   9.536
26080WAT      O78481   6.170   3.432   7.390
26080WAT     H178482   6.108   3.386   7.326
26080WAT     H278483   6.231   3.493   7.339
26081WAT      O78484   3.326   7.052   7.203
26081WAT     H178485   3.281   7.115   7.140
26081WAT     H278486   3.369   6.978   7.152
26082WAT      O78487   6.169   7.310   8.135
26082WAT     H178488   6.249   7.271   8.091
26082WAT     H278489   6.113   7.358   8.068
26083WAT      O78490   7.649   8.721   7.057
26083WAT     H178491   7.569   8.715   7.117
26083WAT     H278492   7.711   8.645   7.078
26084WAT      O78493   9.264   5.426   7.532
26084WAT     H178494   9.204   5.366   7.478
26084WAT     H278495   9.244   5.415   7.629
26085WAT      O78496   9.076   4.124   2.661
26085WAT     H178497   9.022   4.201   2.626
26085WAT     H278498   9.173   4.145   2.654
26086WAT      O78499   0.150   7.587   7.737
26086WAT     H178500   0.156   7.671   7.682
26086WAT     H278501   0.161   7.508   7.678
26087WAT      O78502   2.606   2.126   7.649
26087WAT     H178503   2.652   2.096   7.732
26087WAT     H278504   2.508   2.138   7.667
26088WAT      O78505   7.828   8.345   4.131
26088WAT     H178506   7.874   8.332   4.219
26088WAT     H278507   7.765   8.269   4.115
26089WAT      O78508   3.618   5.669   0.807
26089WAT     H178509   3.697   5.653   0.747
26089WAT     H278510   3.579   5.759   0.788
26090WAT      O78511   1.043   0.475   1.432
26090WAT     H178512   0.947   0.484   1.405
26090WAT     H278513   1.102   0.503   1.357
26091WAT      O78514   6.605   6.679   9.194
26091WAT     H178515   6.536   6.631   9.140
26091WAT     H278516   6.691   6.628   9.194
26092WAT      O78517   6.744   3.437   5.370
26092WAT     H178518   6.666   3.477   5.419
26092WAT     H278519   6.827   3.487   5.392
26093WAT      O78520   3.705   5.154   5.248
26093WAT     H178521   3.607   5.156   5.226
26093WAT     H278522   3.725   5.073   5.304
26094WAT      O78523   3.040   6.005   5.658
26094WAT     H178524   3.012   6.022   5.563
26094WAT     H278525   2.995   5.922   5.691
26095WAT      O78526   3.805   5.275   8.296
26095WAT     H178527   3.804   5.175   8.301
26095WAT     H278528   3.806   5.304   8.200
26096WAT      O78529   3.559   0.642   4.705
26096WAT     H178530   3.474   0.673   4.663
26096WAT     H278531   3.564   0.542   4.701
26097WAT      O78532   1.850   6.325   0.405
26097WAT     H178533   1.837   6.334   0.503
26097WAT     H278534   1.761   6.320   0.359
26098WAT      O78535   1.818   0.884   1.186
26098WAT     H178536   1.719   0.881   1.199
26098WAT     H278537   1.842   0.967   1.135
26099WAT      O78538   9.895   1.989   6.680
26099WAT     H178539   9.822   2.011   6.616
26099WAT     H278540   9.857   1.976   6.771
26100WAT      O78541   8.328   5.538   4.155
26100WAT     H178542   8.246   5.538   4.211
26100WAT     H278543   8.388   5.613   4.182
26101WAT      O78544   1.565   3.844   2.209
26101WAT     H178545   1.528   3.754   2.184
26101WAT     H278546   1.615   3.882   2.131
26102WAT      O78547   3.417   0.200   0.248
26102WAT     H178548   3.371   0.271   0.196
26102WAT     H278549   3.510   0.188   0.213
26103WAT      O78550   4.079   2.299   8.643
26103WAT     H178551   4.041   2.207   8.631
26103WAT     H278552   4.167   2.304   8.597
26104WAT      O78553   6.397   0.014   8.711
26104WAT     H178554   6.398  -0.081   8.680
26104WAT     H278555   6.350   0.021   8.799
26105WAT      O78556   6.994   9.069   0.138
26105WAT     H178557   6.916   9.016   0.172
26105WAT     H278558   6.987   9.163   0.172
26106WAT      O78559   0.113   0.839   4.854
26106WAT     H178560   0.200   0.795   4.836
26106WAT     H278561   0.051   0.773   4.897
26107WAT      O78562   9.062   9.342   9.229
26107WAT     H178563   9.046   9.268   9.164
26107WAT     H278564   9.101   9.421   9.181
26108WAT      O78565   8.574   2.074   8.450
26108WAT     H178566   8.525   1.995   8.487
26108WAT     H278567   8.551   2.156   8.504
26109WAT      O78568   2.795   8.657   5.995
26109WAT     H178569   2.772   8.607   5.912
26109WAT     H278570   2.869   8.611   6.043
26110WAT      O78571   5.286   4.140   8.184
26110WAT     H178572   5.376   4.180   8.165
26110WAT     H278573   5.242   4.115   8.097
26111WAT      O78574   4.555   6.846   4.297
26111WAT     H178575   4.650   6.840   4.328
26111WAT     H278576   4.552   6.832   4.198
26112WAT      O78577   0.800   4.249   5.662
26112WAT     H178578   0.712   4.232   5.706
26112WAT     H278579   0.873   4.213   5.719
26113WAT      O78580   2.737   0.020   9.340
26113WAT     H178581   2.765  -0.066   9.299
26113WAT     H278582   2.694   0.078   9.270
26114WAT      O78583   5.341   8.306   1.927
26114WAT     H178584   5.390   8.252   1.995
26114WAT     H278585   5.285   8.246   1.870
26115WAT      O78586   6.495   8.914   9.797
26115WAT     H178587   6.465   8.825   9.761
26115WAT     H278588   6.534   8.900   9.888
26116WAT      O78589   0.419   0.157   7.022
26116WAT     H178590   0.439   0.067   6.981
26116WAT     H278591   0.354   0.145   7.097
26117WAT      O78592   5.491   2.557   0.587
26117WAT     H178593   5.438   2.481   0.625
26117WAT     H278594   5.434   2.608   0.522
26118WAT      O78595   9.570   6.066   2.821
26118WAT     H178596   9.581   6.162   2.794
26118WAT     H278597   9.512   6.019   2.755
26119WAT      O78598   8.576   2.365   5.062
26119WAT     H178599   8.670   2.346   5.033
26119WAT     H278600   8.569   2.354   5.161
26120WAT      O78601   1.283   8.070   8.540
26120WAT     H178602   1.261   8.159   8.579
26120WAT     H278603   1.285   8.001   8.612
26121WAT      O78604   2.767   1.158   9.451
26121WAT     H178605   2.788   1.135   9.356
26121WAT     H278606   2.700   1.093   9.487
26122WAT      O78607   6.492   9.356   8.326
26122WAT     H178608   6.473   9.332   8.421
26122WAT     H278609   6.492   9.455   8.316
26123WAT      O78610   6.346   8.341   1.775
26123WAT     H178611   6.251   8.328   1.746
26123WAT     H278612   6.393   8.398   1.708
26124WAT      O78613   9.475   3.439   6.277
26124WAT     H178614   9.566   3.455   6.315
26124WAT     H278615   9.459   3.341   6.266
26125WAT      O78616   1.143   5.670   8.274
26125WAT     H178617   1.149   5.715   8.184
26125WAT     H278618   1.083   5.724   8.333
26126WAT      O78619   2.059   6.413   7.214
26126WAT     H178620   1.993   6.477   7.174
26126WAT     H278621   2.145   6.417   7.164
26127WAT      O78622   2.523   4.499   6.091
26127WAT     H178623   2.611   4.535   6.122
26127WAT     H278624   2.471   4.571   6.045
26128WAT      O78625   1.544   0.981   6.204
26128WAT     H178626   1.596   0.904   6.168
26128WAT     H278627   1.548   0.980   6.304
26129WAT      O78628   4.386   6.254   7.767
26129WAT     H178629   4.448   6.295   7.700
26129WAT     H278630   4.335   6.327   7.813
26130WAT      O78631   6.623   3.872   7.025
26130WAT     H178632   6.600   3.784   6.984
26130WAT     H278633   6.720   3.891   7.012
26131WAT      O78634   1.700   0.535   1.266
26131WAT     H178635   1.615   0.557   1.217
26131WAT     H278636   1.777   0.541   1.203
26132WAT      O78637   0.050   4.195   9.255
26132WAT     H178638   0.009   4.138   9.184
26132WAT     H278639   0.016   4.288   9.248
26133WAT      O78640   6.784   3.409   9.836
26133WAT     H178641   6.761   3.451   9.924
26133WAT     H278642   6.761   3.471   9.761
26134WAT      O78643   6.566   0.836   1.262
26134WAT     H178644   6.607   0.927   1.265
26134WAT     H278645   6.554   0.801   1.355
26135WAT      O78646   4.767   0.078   2.263
26135WAT     H178647   4.751   0.140   2.187
26135WAT     H278648   4.757   0.128   2.350
26136WAT      O78649   6.903   2.660   3.428
26136WAT     H178650   6.944   2.619   3.510
26136WAT     H278651   6.975   2.703   3.374
26137WAT      O78652   1.577   2.135   5.636
26137WAT     H178653   1.592   2.065   5.566
26137WAT     H278654   1.649   2.205   5.628
26138WAT      O78655   3.723   3.100   7.957
26138WAT     H178656   3.761   3.185   7.920
26138WAT     H278657   3.692   3.115   8.050
26139WAT      O78658   7.676   8.964   0.510
26139WAT     H178659   7.617   8.993   0.435
26139WAT     H278660   7.688   8.865   0.508
26140WAT      O78661   1.845   1.730   3.050
26140WAT     H178662   1.817   1.709   2.956
26140WAT     H278663   1.764   1.730   3.109
26141WAT      O78664   1.304   1.417   2.173
26141WAT     H178665   1.397   1.389   2.195
26141WAT     H278666   1.241   1.380   2.242
26142WAT      O78667   0.466   1.415   7.860
26142WAT     H178668   0.429   1.390   7.770
26142WAT     H278669   0.564   1.434   7.852
26143WAT      O78670   9.173   1.569   6.045
26143WAT     H178671   9.154   1.600   6.138
26143WAT     H278672   9.271   1.555   6.033
26144WAT      O78673   5.762   6.580   1.241
26144WAT     H178674   5.840   6.527   1.274
26144WAT     H278675   5.740   6.652   1.306
26145WAT      O78676   6.881   8.177   7.965
26145WAT     H178677   6.881   8.077   7.952
26145WAT     H278678   6.839   8.199   8.053
26146WAT      O78679   6.742   7.167   6.495
26146WAT     H178680   6.660   7.164   6.438
26146WAT     H278681   6.723   7.223   6.576
26147WAT      O78682   3.208   5.009   6.811
26147WAT     H178683   3.304   5.028   6.834
26147WAT     H278684   3.204   4.967   6.720
26148WAT      O78685   3.961   3.306   5.261
26148WAT     H178686   3.977   3.231   5.197
26148WAT     H278687   4.015   3.385   5.234
26149WAT      O78688   1.485   5.292   2.371
26149WAT     H178689   1.445   5.293   2.462
26149WAT     H278690   1.457   5.375   2.322
26150WAT      O78691   6.766   4.373   4.739
26150WAT     H178692   6.792   4.354   4.644
26150WAT     H278693   6.780   4.291   4.794
26151WAT      O78694   2.795   1.992   0.111
26151WAT     H178695   2.822   1.943   0.028
26151WAT     H278696   2.797   2.090   0.094
26152WAT      O78697   3.716   8.560   5.891
26152WAT     H178698   3.666   8.478   5.863
26152WAT     H278699   3.724   8.562   5.991
26153WAT      O78700   9.629   1.650   4.991
26153WAT     H178701   9.674   1.664   4.902
26153WAT     H278702   9.565   1.724   5.008
26154WAT      O78703   3.283   4.705   1.520
26154WAT     H178704   3.340   4.787   1.518
26154WAT     H278705   3.316   4.643   1.591
26155WAT      O78706   6.124   1.963   7.367
26155WAT     H178707   6.100   1.982   7.463
26155WAT     H278708   6.221   1.940   7.361
26156WAT      O78709   6.815   9.364   8.236
26156WAT     H178710   6.872   9.283   8.251
26156WAT     H278711   6.739   9.363   8.300
26157WAT      O78712   4.674   1.766   3.864
26157WAT     H178713   4.668   1.781   3.963
26157WAT     H278714   4.694   1.670   3.846
26158WAT      O78715   1.703   5.372   8.239
26158WAT     H178716   1.606   5.381   8.216
26158WAT     H278717   1.714   5.308   8.314
26159WAT      O78718   0.754   3.529   2.178
26159WAT     H178719   0.853   3.512   2.178
26159WAT     H278720   0.724   3.550   2.271
26160WAT      O78721   3.596   1.746   1.790
26160WAT     H178722   3.691   1.748   1.820
26160WAT     H278723   3.585   1.674   1.721
26161WAT      O78724   7.969   6.594   5.396
26161WAT     H178725   7.873   6.575   5.418
26161WAT     H278726   7.982   6.693   5.388
26162WAT      O78727   2.559   6.256   4.276
26162WAT     H178728   2.548   6.215   4.366
26162WAT     H278729   2.632   6.324   4.279
26163WAT      O78730   0.609   1.981   8.503
26163WAT     H178731   0.566   1.990   8.413
26163WAT     H278732   0.613   2.071   8.548
26164WAT      O78733   9.110   2.757   4.308
26164WAT     H178734   9.167   2.744   4.227
26164WAT     H278735   9.045   2.831   4.291
26165WAT      O78736   0.171   1.545   1.045
26165WAT     H178737   0.255   1.491   1.033
26165WAT     H278738   0.172   1.623   0.983
26166WAT      O78739   9.233   2.581   3.502
26166WAT     H178740   9.292   2.660   3.520
26166WAT     H278741   9.204   2.582   3.407
26167WAT      O78742   4.247   6.472   7.862
26167WAT     H178743   4.294   6.544   7.914
26167WAT     H278744   4.200   6.513   7.784
26168WAT      O78745   2.407   5.103   3.824
26168WAT     H178746   2.447   5.194   3.835
26168WAT     H278747   2.454   5.055   3.749
26169WAT      O78748   0.245   4.310   7.234
26169WAT     H178749   0.338   4.296   7.199
26169WAT     H278750   0.248   4.325   7.333
26170WAT      O78751   6.564   3.754   7.638
26170WAT     H178752   6.627   3.702   7.696
26170WAT     H278753   6.616   3.822   7.585
26171WAT      O78754   2.396   9.190   2.622
26171WAT     H178755   2.414   9.092   2.626
26171WAT     H278756   2.377   9.217   2.528
26172WAT      O78757   7.488   2.315   9.224
26172WAT     H178758   7.456   2.292   9.132
26172WAT     H278759   7.541   2.239   9.261
26173WAT      O78760   0.586   4.816   5.900
26173WAT     H178761   0.493   4.831   5.934
26173WAT     H278762   0.584   4.748   5.827
26174WAT      O78763   3.767   9.143   8.940
26174WAT     H178764   3.851   9.151   8.885
26174WAT     H278765   3.741   9.233   8.973
26175WAT      O78766   6.165   5.239   3.542
26175WAT     H178767   6.174   5.307   3.469
26175WAT     H278768   6.123   5.156   3.506
26176WAT      O78769   5.500   3.006   4.682
26176WAT     H178770   5.571   3.027   4.749
26176WAT     H278771   5.427   2.953   4.726
26177WAT      O78772   9.879   0.367   3.694
26177WAT     H178773   9.903   0.383   3.789
26177WAT     H278774   9.902   0.448   3.640
26178WAT      O78775   8.753   3.048   1.585
26178WAT     H178776   8.802   3.059   1.671
26178WAT     H278777   8.816   3.064   1.509
26179WAT      O78778   4.694   9.686   0.377
26179WAT     H178779   4.654   9.595   0.372
26179WAT     H278780   4.792   9.678   0.395
26180WAT      O78781   5.585   0.488   6.211
26180WAT     H178782   5.507   0.453   6.159
26180WAT     H278783   5.667   0.436   6.188
26181WAT      O78784   6.853   6.162   3.522
26181WAT     H178785   6.919   6.104   3.474
26181WAT     H278786   6.813   6.226   3.457
26182WAT      O78787   2.726   2.324   4.989
26182WAT     H178788   2.660   2.269   4.938
26182WAT     H278789   2.743   2.282   5.078
26183WAT      O78790   2.474   4.958   7.326
26183WAT     H178791   2.478   5.045   7.376
26183WAT     H278792   2.404   4.900   7.368
26184WAT      O78793   0.899   6.376   5.267
26184WAT     H178794   0.854   6.291   5.240
26184WAT     H278795   0.841   6.425   5.332
26185WAT      O78796   9.139   7.667   1.462
26185WAT     H178797   9.039   7.662   1.461
26185WAT     H278798   9.168   7.746   1.515
26186WAT      O78799   9.290   8.151   7.214
26186WAT     H178800   9.262   8.229   7.158
26186WAT     H278801   9.220   8.133   7.284
26187WAT      O78802   1.841   6.093   4.595
26187WAT     H178803   1.853   6.028   4.670
26187WAT     H278804   1.889   6.178   4.617
26188WAT      O78805   5.410   7.173   2.827
26188WAT     H178806   5.392   7.210   2.918
26188WAT     H278807   5.493   7.215   2.790
26189WAT      O78808   5.646   5.721   6.512
26189WAT     H178809   5.552   5.745   6.538
26189WAT     H278810   5.662   5.623   6.530
26190WAT      O78811   5.518   4.768   6.606
26190WAT     H178812   5.453   4.828   6.561
26190WAT     H278813   5.469   4.701   6.662
26191WAT      O78814   7.358   7.753   9.075
26191WAT     H178815   7.382   7.812   8.998
26191WAT     H278816   7.425   7.765   9.148
26192WAT      O78817   7.440   1.773   5.772
26192WAT     H178818   7.536   1.757   5.752
26192WAT     H278819   7.424   1.767   5.871
26193WAT      O78820   0.132   0.990   1.038
26193WAT     H178821   0.129   1.090   1.031
26193WAT     H278822   0.039   0.954   1.043
26194WAT      O78823   0.909   5.451   7.190
26194WAT     H178824   0.831   5.474   7.133
26194WAT     H278825   0.964   5.381   7.145
26195WAT      O78826   4.201   6.991   8.698
26195WAT     H178827   4.215   6.974   8.796
26195WAT     H278828   4.250   7.074   8.672
26196WAT      O78829   2.415   2.805   1.272
26196WAT     H178830   2.328   2.780   1.312
26196WAT     H278831   2.402   2.829   1.176
26197WAT      O78832   1.445   8.130   3.002
26197WAT     H178833   1.509   8.054   2.994
26197WAT     H278834   1.356   8.096   3.030
26198WAT      O78835   4.931   0.984   3.521
26198WAT     H178836   4.849   1.041   3.518
26198WAT     H278837   4.984   1.005   3.603
26199WAT      O78838   6.894   5.835   6.348
26199WAT     H178839   6.839   5.772   6.294
26199WAT     H278840   6.919   5.914   6.292
26200WAT      O78841   3.102   6.714   8.873
26200WAT     H178842   3.193   6.692   8.837
26200WAT     H278843   3.110   6.750   8.966
26201WAT      O78844   9.875   2.706   7.979
26201WAT     H178845   9.904   2.630   7.920
26201WAT     H278846   9.775   2.710   7.980
26202WAT      O78847   7.851   6.195   5.924
26202WAT     H178848   7.795   6.233   5.850
26202WAT     H278849   7.935   6.157   5.887
26203WAT      O78850   6.829   6.498   5.576
26203WAT     H178851   6.780   6.495   5.489
26203WAT     H278852   6.764   6.503   5.651
26204WAT      O78853   7.136   6.242   1.351
26204WAT     H178854   7.088   6.159   1.323
26204WAT     H278855   7.211   6.260   1.288
26205WAT      O78856   5.424   0.852   0.741
26205WAT     H178857   5.506   0.797   0.727
26205WAT     H278858   5.419   0.923   0.671
26206WAT      O78859   3.816   0.739   9.121
26206WAT     H178860   3.878   0.753   9.197
26206WAT     H278861   3.724   0.719   9.156
26207WAT      O78862   9.437   7.252   5.562
26207WAT     H178863   9.362   7.233   5.625
26207WAT     H278864   9.504   7.178   5.567
26208WAT      O78865   9.584   0.174   8.522
26208WAT     H178866   9.655   0.105   8.508
26208WAT     H278867   9.520   0.171   8.445
26209WAT      O78868   7.830   8.856   5.830
26209WAT     H178869   7.820   8.834   5.926
26209WAT     H278870   7.924   8.886   5.812
26210WAT      O78871   6.990   0.285   7.885
26210WAT     H178872   7.060   0.250   7.822
26210WAT     H278873   7.015   0.261   7.978
26211WAT      O78874   1.032   6.570   4.334
26211WAT     H178875   0.977   6.647   4.302
26211WAT     H278876   0.972   6.497   4.366
26212WAT      O78877   6.785   7.540   7.093
26212WAT     H178878   6.842   7.566   7.016
26212WAT     H278879   6.703   7.598   7.095
26213WAT      O78880   0.584   9.512   9.525
26213WAT     H178881   0.537   9.601   9.533
26213WAT     H278882   0.628   9.506   9.436
26214WAT      O78883   3.307   3.158   9.590
26214WAT     H178884   3.397   3.120   9.613
26214WAT     H278885   3.313   3.209   9.504
26215WAT      O78886   0.927   0.248   0.709
26215WAT     H178887   1.020   0.262   0.743
26215WAT     H278888   0.910   0.307   0.630
26216WAT      O78889   5.251   0.943   3.281
26216WAT     H178890   5.340   0.899   3.279
26216WAT     H278891   5.258   1.034   3.239
26217WAT      O78892   3.269   8.244   5.359
26217WAT     H178893   3.201   8.265   5.429
26217WAT     H278894   3.260   8.309   5.283
26218WAT      O78895   5.386   5.211   1.228
26218WAT     H178896   5.413   5.266   1.149
26218WAT     H278897   5.466   5.162   1.263
26219WAT      O78898   0.631   8.413   3.417
26219WAT     H178899   0.628   8.330   3.474
26219WAT     H278900   0.724   8.427   3.383
26220WAT      O78901   3.542   4.595   0.098
26220WAT     H178902   3.540   4.657   0.019
26220WAT     H278903   3.463   4.612   0.156
26221WAT      O78904   8.483   4.334   6.662
26221WAT     H178905   8.390   4.299   6.668
26221WAT     H278906   8.535   4.281   6.595
26222WAT      O78907   1.731   1.080   8.775
26222WAT     H178908   1.723   1.105   8.872
26222WAT     H278909   1.810   1.021   8.762
26223WAT      O78910   9.395   3.350   3.714
26223WAT     H178911   9.295   3.348   3.725
26223WAT     H278912   9.438   3.325   3.800
26224WAT      O78913   8.414   8.318   2.857
26224WAT     H178914   8.459   8.254   2.920
26224WAT     H278915   8.483   8.373   2.810
26225WAT      O78916   8.071   8.478   5.769
26225WAT     H178917   7.974   8.500   5.774
26225WAT     H278918   8.086   8.383   5.797
26226WAT      O78919   8.154   8.218   6.997
26226WAT     H178920   8.114   8.130   7.021
26226WAT     H278921   8.083   8.279   6.963
26227WAT      O78922   2.180   2.691   1.377
26227WAT     H178923   2.193   2.685   1.476
26227WAT     H278924   2.133   2.609   1.344
26228WAT      O78925   1.636   4.100   5.858
26228WAT     H178926   1.727   4.089   5.898
26228WAT     H278927   1.607   4.014   5.817
26229WAT      O78928   8.331   4.509   3.502
26229WAT     H178929   8.305   4.579   3.435
26229WAT     H278930   8.411   4.459   3.469
26230WAT      O78931   7.252   0.393   2.539
26230WAT     H178932   7.172   0.335   2.525
26230WAT     H278933   7.223   0.484   2.567
26231WAT      O78934   4.231   7.202   5.004
26231WAT     H178935   4.327   7.215   5.026
26231WAT     H278936   4.215   7.225   4.908
26232WAT      O78937   3.357   7.914   3.455
26232WAT     H178938   3.318   7.953   3.371
26232WAT     H278939   3.436   7.968   3.483
26233WAT      O78940   8.427   3.686   4.944
26233WAT     H178941   8.339   3.643   4.924
26233WAT     H278942   8.445   3.758   4.877
26234WAT      O78943   2.874   3.456   2.314
26234WAT     H178944   2.948   3.423   2.257
26234WAT     H278945   2.805   3.501   2.257
26235WAT      O78946   0.030   4.963   3.136
26235WAT     H178947   0.044   4.867   3.159
26235WAT     H278948  -0.024   5.007   3.209
26236WAT      O78949   0.717   0.467   9.202
26236WAT     H178950   0.695   0.555   9.243
26236WAT     H278951   0.726   0.478   9.103
26237WAT      O78952   8.501   3.938   2.721
26237WAT     H178953   8.499   3.945   2.621
26237WAT     H278954   8.442   4.008   2.761
26238WAT      O78955   0.336   5.975   0.300
26238WAT     H178956   0.280   5.903   0.341
26238WAT     H278957   0.326   6.059   0.354
26239WAT      O78958   5.492   5.723   4.449
26239WAT     H178959   5.568   5.709   4.513
26239WAT     H278960   5.437   5.801   4.479
26240WAT      O78961   9.554   4.971   8.044
26240WAT     H178962   9.646   4.932   8.056
26240WAT     H278963   9.555   5.036   7.968
26241WAT      O78964   8.485   9.823   4.524
26241WAT     H178965   8.508   9.844   4.429
26241WAT     H278966   8.566   9.785   4.569
26242WAT      O78967   6.638   9.364   5.677
26242WAT     H178968   6.570   9.405   5.737
26242WAT     H278969   6.593   9.323   5.598
26243WAT      O78970   8.195   8.430   9.586
26243WAT     H178971   8.281   8.447   9.634
26243WAT     H278972   8.198   8.340   9.542
26244WAT      O78973   9.550   7.525   8.636
26244WAT     H178974   9.580   7.445   8.688
26244WAT     H278975   9.567   7.608   8.690
26245WAT      O78976   7.178   0.280   1.230
26245WAT     H178977   7.114   0.312   1.299
26245WAT     H278978   7.174   0.340   1.150
26246WAT      O78979   5.183   8.982   3.103
26246WAT     H178980   5.097   9.021   3.133
26246WAT     H278981   5.221   9.038   3.029
26247WAT      O78982   2.241   7.415   0.360
26247WAT     H178983   2.278   7.323   0.373
26247WAT     H278984   2.141   7.411   0.352
26248WAT      O78985   5.728   7.828   3.001
26248WAT     H178986   5.825   7.846   3.013
26248WAT     H278987   5.714   7.776   2.917
26249WAT      O78988   1.936   2.572   9.880
26249WAT     H178989   1.853   2.607   9.924
26249WAT     H278990   1.958   2.483   9.920
26250WAT      O78991   6.480   5.516   1.143
26250WAT     H178992   6.458   5.475   1.054
26250WAT     H278993   6.452   5.455   1.216
26251WAT      O78994   3.920   8.230   2.244
26251WAT     H178995   3.870   8.311   2.275
26251WAT     H278996   3.868   8.185   2.171
26252WAT      O78997   4.718   1.419   1.006
26252WAT     H178998   4.697   1.495   1.067
26252WAT     H278999   4.633   1.383   0.967
26253WAT      O79000   6.711   8.786   6.580
26253WAT     H179001   6.788   8.774   6.517
26253WAT     H279002   6.664   8.698   6.591
26254WAT      O79003   4.542   8.146   7.801
26254WAT     H179004   4.470   8.078   7.814
26254WAT     H279005   4.581   8.171   7.889
26255WAT      O79006   5.204   0.139   9.816
26255WAT     H179007   5.245   0.127   9.726
26255WAT     H279008   5.128   0.204   9.810
26256WAT      O79009   9.778   8.754   0.024
26256WAT     H179010   9.773   8.655   0.014
26256WAT     H279011   9.873   8.781   0.041
26257WAT      O79012   7.154   4.517   2.200
26257WAT     H179013   7.081   4.500   2.266
26257WAT     H279014   7.214   4.589   2.235
26258WAT      O79015   5.456   1.467   6.246
26258WAT     H179016   5.489   1.423   6.163
26258WAT     H279017   5.437   1.397   6.315
26259WAT      O79018   6.524   0.097   2.646
26259WAT     H179019   6.440   0.074   2.596
26259WAT     H279020   6.602   0.091   2.584
26260WAT      O79021   8.031   8.698   5.159
26260WAT     H179022   8.030   8.721   5.256
26260WAT     H279023   8.075   8.609   5.146
26261WAT      O79024   0.885   8.488   8.652
26261WAT     H179025   0.808   8.530   8.700
26261WAT     H279026   0.876   8.388   8.655
26262WAT      O79027   0.551   4.257   3.006
26262WAT     H179028   0.538   4.289   2.912
26262WAT     H279029   0.612   4.321   3.054
26263WAT      O79030   8.778   2.036   3.207
26263WAT     H179031   8.743   1.952   3.166
26263WAT     H279032   8.769   2.111   3.142
26264WAT      O79033   2.734   5.426   5.515
26264WAT     H179034   2.663   5.459   5.578
26264WAT     H279035   2.823   5.461   5.543
26265WAT      O79036   6.370   0.445   5.582
26265WAT     H179037   6.322   0.530   5.604
26265WAT     H279038   6.342   0.414   5.491
26266WAT      O79039   9.669   9.359   4.544
26266WAT     H179040   9.590   9.356   4.604
26266WAT     H279041   9.650   9.309   4.460
26267WAT      O79042   0.519   7.209   4.727
26267WAT     H179043   0.576   7.290   4.736
26267WAT     H279044   0.564   7.142   4.667
26268WAT      O79045   7.088   0.653   0.423
26268WAT     H179046   7.091   0.653   0.523
26268WAT     H279047   7.029   0.727   0.391
26269WAT      O79048   1.543   4.868   6.642
26269WAT     H179049   1.633   4.903   6.614
26269WAT     H279050   1.527   4.779   6.598
26270WAT      O79051   7.209   9.103   2.509
26270WAT     H179052   7.264   9.021   2.499
26270WAT     H279053   7.267   9.178   2.541
26271WAT      O79054   9.727   2.255   0.389
26271WAT     H179055   9.729   2.166   0.342
26271WAT     H279056   9.749   2.327   0.324
26272WAT      O79057   6.797   4.458   9.830
26272WAT     H179058   6.794   4.369   9.877
26272WAT     H279059   6.724   4.517   9.866
26273WAT      O79060   6.904   8.814   3.409
26273WAT     H179061   6.841   8.891   3.410
26273WAT     H279062   6.958   8.814   3.493
26274WAT      O79063   2.498   6.490   0.824
26274WAT     H179064   2.561   6.419   0.853
26274WAT     H279065   2.464   6.470   0.732
26275WAT      O79066   8.969   5.380   5.476
26275WAT     H179067   8.939   5.291   5.512
26275WAT     H279068   9.019   5.367   5.391
26276WAT      O79069   4.017   6.744   8.663
26276WAT     H179070   4.086   6.816   8.657
26276WAT     H279071   3.951   6.755   8.589
26277WAT      O79072   2.057   0.275   8.648
26277WAT     H179073   1.960   0.279   8.672
26277WAT     H279074   2.067   0.259   8.550
26278WAT      O79075   3.685   3.734   8.172
26278WAT     H179076   3.622   3.751   8.248
26278WAT     H279077   3.746   3.659   8.195
26279WAT      O79078   0.704   4.678   6.894
26279WAT     H179079   0.733   4.640   6.806
26279WAT     H279080   0.785   4.701   6.948
26280WAT      O79081   8.159   1.876   5.147
26280WAT     H179082   8.065   1.842   5.137
26280WAT     H279083   8.168   1.965   5.101
26281WAT      O79084   4.633   9.799   7.422
26281WAT     H179085   4.662   9.734   7.352
26281WAT     H279086   4.707   9.864   7.439
26282WAT      O79087   0.491   5.853   0.555
26282WAT     H179088   0.580   5.852   0.510
26282WAT     H279089   0.454   5.946   0.552
26283WAT      O79090   0.727   9.132   5.523
26283WAT     H179091   0.629   9.147   5.511
26283WAT     H279092   0.777   9.213   5.492
26284WAT      O79093   4.128   6.449   2.691
26284WAT     H179094   4.099   6.374   2.631
26284WAT     H279095   4.048   6.487   2.738
26285WAT      O79096   6.199   6.606   2.128
26285WAT     H179097   6.263   6.547   2.078
26285WAT     H279098   6.106   6.585   2.099
26286WAT      O79099   8.190   4.588   7.568
26286WAT     H179100   8.239   4.505   7.595
26286WAT     H279101   8.256   4.654   7.531
26287WAT      O79102   7.954   1.745   8.810
26287WAT     H179103   7.921   1.662   8.856
26287WAT     H279104   7.886   1.818   8.821
26288WAT      O79105   9.202   6.364   6.819
26288WAT     H179106   9.245   6.336   6.733
26288WAT     H279107   9.108   6.392   6.801
26289WAT      O79108   0.426   3.665   4.243
26289WAT     H179109   0.524   3.652   4.229
26289WAT     H279110   0.392   3.730   4.175
26290WAT      O79111   2.166   7.443   1.576
26290WAT     H179112   2.166   7.352   1.535
26290WAT     H279113   2.077   7.459   1.620
26291WAT      O79114   5.323   5.873   6.103
26291WAT     H179115   5.389   5.940   6.070
26291WAT     H279116   5.233   5.894   6.065
26292WAT      O79117   6.647   1.892   5.583
26292WAT     H179118   6.681   1.809   5.540
26292WAT     H279119   6.609   1.953   5.513
26293WAT      O79120   6.402   3.419   6.386
26293WAT     H179121   6.410   3.491   6.455
26293WAT     H279122   6.325   3.439   6.326
26294WAT      O79123   3.673   5.342   2.808
26294WAT     H179124   3.636   5.330   2.900
26294WAT     H279125   3.670   5.438   2.783
26295WAT      O79126   5.097   4.427   4.054
26295WAT     H179127   5.101   4.526   4.070
26295WAT     H279128   5.141   4.406   3.967
26296WAT      O79129   2.713   9.403   9.619
26296WAT     H179130   2.713   9.412   9.719
26296WAT     H279131   2.619   9.387   9.587
26297WAT      O79132   7.780   0.423   9.442
26297WAT     H179133   7.697   0.457   9.486
26297WAT     H279134   7.799   0.330   9.472
26298WAT      O79135   5.481   8.609   3.404
26298WAT     H179136   5.471   8.707   3.420
26298WAT     H279137   5.412   8.559   3.456
26299WAT      O79138   2.009   3.155   0.826
26299WAT     H179139   2.052   3.242   0.802
26299WAT     H279140   1.983   3.157   0.923
26300WAT      O79141   7.842   4.021   1.462
26300WAT     H179142   7.848   3.963   1.543
26300WAT     H279143   7.897   4.103   1.475
26301WAT      O79144   0.250   6.166   4.931
26301WAT     H179145   0.172   6.198   4.878
26301WAT     H279146   0.335   6.201   4.890
26302WAT      O79147   6.613   1.746   4.400
26302WAT     H179148   6.597   1.767   4.303
26302WAT     H279149   6.601   1.648   4.415
26303WAT      O79150   7.539   5.016   3.611
26303WAT     H179151   7.583   5.013   3.700
26303WAT     H279152   7.562   5.102   3.565
26304WAT      O79153   7.690   0.085   7.684
26304WAT     H179154   7.693   0.022   7.761
26304WAT     H279155   7.764   0.151   7.692
26305WAT      O79156   0.325   2.279   5.020
26305WAT     H179157   0.251   2.335   4.982
26305WAT     H279158   0.384   2.336   5.077
26306WAT      O79159   1.797   4.534   6.357
26306WAT     H179160   1.769   4.446   6.317
26306WAT     H279161   1.756   4.609   6.304
26307WAT      O79162   2.117   5.558   4.334
26307WAT     H179163   2.201   5.610   4.353
26307WAT     H279164   2.057   5.612   4.274
26308WAT      O79165   5.995   4.218   8.194
26308WAT     H179166   6.002   4.216   8.094
26308WAT     H279167   6.075   4.172   8.233
26309WAT      O79168   2.979   4.082   1.064
26309WAT     H179169   2.962   4.018   0.988
26309WAT     H279170   3.049   4.043   1.124
26310WAT      O79171   8.445   3.907   9.258
26310WAT     H179172   8.527   3.925   9.311
26310WAT     H279173   8.460   3.828   9.199
26311WAT      O79174   4.418   0.218   5.328
26311WAT     H179175   4.379   0.248   5.241
26311WAT     H279176   4.507   0.177   5.312
26312WAT      O79177   7.461   0.942   7.095
26312WAT     H179178   7.548   0.948   7.048
26312WAT     H279179   7.402   0.876   7.049
26313WAT      O79180   0.302   2.757   2.685
26313WAT     H179181   0.225   2.702   2.717
26313WAT     H279182   0.326   2.730   2.592
26314WAT      O79183   6.722   0.497   4.160
26314WAT     H179184   6.729   0.412   4.212
26314WAT     H279185   6.800   0.506   4.099
26315WAT      O79186   3.503   0.672   2.937
26315WAT     H179187   3.579   0.610   2.955
26315WAT     H279188   3.476   0.717   3.022
26316WAT      O79189   9.009   4.438   9.248
26316WAT     H179190   8.917   4.474   9.229
26316WAT     H279191   9.049   4.406   9.162
26317WAT      O79192   9.668   2.016   6.455
26317WAT     H179193   9.577   2.001   6.494
26317WAT     H279194   9.666   2.001   6.357
26318WAT      O79195   8.757   0.471   6.293
26318WAT     H179196   8.721   0.549   6.344
26318WAT     H279197   8.695   0.393   6.303
26319WAT      O79198   6.634   1.687   3.905
26319WAT     H179199   6.554   1.647   3.860
26319WAT     H279200   6.672   1.760   3.849
26320WAT      O79201   7.024   6.867   4.051
26320WAT     H179202   6.936   6.912   4.033
26320WAT     H279203   7.066   6.841   3.964
26321WAT      O79204   7.646   7.559   9.467
26321WAT     H179205   7.588   7.479   9.483
26321WAT     H279206   7.609   7.637   9.516
26322WAT      O79207   0.991   3.158   6.469
26322WAT     H179208   1.039   3.074   6.443
26322WAT     H279209   0.965   3.154   6.565
26323WAT      O79210   1.877   5.408   2.359
26323WAT     H179211   1.856   5.447   2.269
26323WAT     H279212   1.824   5.456   2.429
26324WAT      O79213   9.318   1.822   3.686
26324WAT     H179214   9.220   1.835   3.673
26324WAT     H279215   9.342   1.728   3.663
26325WAT      O79216   5.355   3.755   4.144
26325WAT     H179217   5.361   3.686   4.217
26325WAT     H279218   5.394   3.718   4.060
26326WAT      O79219   2.473   0.594   5.134
26326WAT     H179220   2.513   0.610   5.225
26326WAT     H279221   2.391   0.650   5.124
26327WAT      O79222   5.530   5.978   5.073
26327WAT     H179223   5.552   5.897   5.019
26327WAT     H279224   5.489   6.047   5.013
26328WAT      O79225   2.545   6.597   4.438
26328WAT     H179226   2.460   6.591   4.385
26328WAT     H279227   2.620   6.559   4.385
26329WAT      O79228   9.848   4.924   1.013
26329WAT     H179229   9.834   5.013   1.055
26329WAT     H279230   9.799   4.854   1.065
26330WAT      O79231   3.797   0.932   3.495
26330WAT     H179232   3.842   0.882   3.568
26330WAT     H279233   3.779   0.869   3.418
26331WAT      O79234   5.583   2.211   8.522
26331WAT     H179235   5.495   2.228   8.566
26331WAT     H279236   5.620   2.123   8.552
26332WAT      O79237   7.151   5.658   9.284
26332WAT     H179238   7.214   5.580   9.281
26332WAT     H279239   7.093   5.652   9.365
26333WAT      O79240   7.272   0.874   7.523
26333WAT     H179241   7.260   0.858   7.621
26333WAT     H279242   7.197   0.832   7.473
26334WAT      O79243   0.601   4.860   2.945
26334WAT     H179244   0.620   4.864   3.043
26334WAT     H279245   0.503   4.853   2.930
26335WAT      O79246   8.094   4.456   8.269
26335WAT     H179247   8.141   4.387   8.324
26335WAT     H279248   8.081   4.421   8.176
26336WAT      O79249   7.588   3.315   5.505
26336WAT     H179250   7.566   3.345   5.412
26336WAT     H279251   7.526   3.241   5.532
26337WAT      O79252   1.596   3.363   2.228
26337WAT     H179253   1.656   3.421   2.172
26337WAT     H279254   1.648   3.285   2.262
26338WAT      O79255   4.761   0.923   5.441
26338WAT     H179256   4.758   0.941   5.540
26338WAT     H279257   4.675   0.953   5.399
26339WAT      O79258   1.044   9.423   1.974
26339WAT     H179259   0.992   9.394   1.894
26339WAT     H279260   0.990   9.406   2.057
26340WAT      O79261   6.843   5.074   8.721
26340WAT     H179262   6.838   4.975   8.735
26340WAT     H279263   6.801   5.097   8.634
26341WAT      O79264   2.065   3.761   6.959
26341WAT     H179265   2.097   3.667   6.941
26341WAT     H279266   1.996   3.759   7.031
26342WAT      O79267   4.869   8.208   4.033
26342WAT     H179268   4.942   8.273   4.054
26342WAT     H279269   4.861   8.141   4.107
26343WAT      O79270   0.510   7.551   4.287
26343WAT     H179271   0.424   7.569   4.336
26343WAT     H279272   0.531   7.454   4.291
26344WAT      O79273   2.392   3.068   4.273
26344WAT     H179274   2.393   3.070   4.373
26344WAT     H279275   2.311   3.115   4.240
26345WAT      O79276   9.695   0.658   5.228
26345WAT     H179277   9.718   0.645   5.132
26345WAT     H279278   9.721   0.576   5.280
26346WAT      O79279   4.389   2.720   8.123
26346WAT     H179280   4.461   2.764   8.069
26346WAT     H279281   4.429   2.671   8.199
26347WAT      O79282   6.459   4.950   0.609
26347WAT     H179283   6.535   4.901   0.653
26347WAT     H279284   6.403   4.885   0.557
26348WAT      O79285   3.225   8.563   0.764
26348WAT     H179286   3.128   8.539   0.758
26348WAT     H279287   3.234   8.656   0.799
26349WAT      O79288   8.924   5.499   1.548
26349WAT     H179289   8.857   5.552   1.600
26349WAT     H279290   8.876   5.432   1.491
26350WAT      O79291   8.068   1.132   1.473
26350WAT     H179292   8.039   1.227   1.469
26350WAT     H279293   8.168   1.126   1.468
26351WAT      O79294   0.607   4.376   3.598
26351WAT     H179295   0.513   4.409   3.587
26351WAT     H279296   0.668   4.427   3.537
26352WAT      O79297   7.207   6.451   7.209
26352WAT     H179298   7.225   6.399   7.125
26352WAT     H279299   7.278   6.432   7.276
26353WAT      O79300   7.011   3.416   8.790
26353WAT     H179301   7.037   3.512   8.795
26353WAT     H279302   7.083   3.360   8.831
26354WAT      O79303   2.459   8.265   4.954
26354WAT     H179304   2.540   8.229   4.907
26354WAT     H279305   2.462   8.236   5.050
26355WAT      O79306   8.830   2.635   8.405
26355WAT     H179307   8.927   2.656   8.401
26355WAT     H279308   8.810   2.559   8.343
26356WAT      O79309   7.026   7.277   4.599
26356WAT     H179310   6.944   7.267   4.655
26356WAT     H279311   7.076   7.360   4.628
26357WAT      O79312   1.912   2.102   4.236
26357WAT     H179313   1.962   2.040   4.296
26357WAT     H279314   1.884   2.184   4.287
26358WAT      O79315   6.448   0.106   5.964
26358WAT     H179316   6.502   0.026   5.939
26358WAT     H279317   6.363   0.077   6.007
26359WAT      O79318   2.147   0.629   8.268
26359WAT     H179319   2.048   0.642   8.267
26359WAT     H279320   2.174   0.584   8.353
26360WAT      O79321   2.126   8.144   8.976
26360WAT     H179322   2.076   8.216   8.927
26360WAT     H279323   2.060   8.082   9.019
26361WAT      O79324   0.598   7.920   2.796
26361WAT     H179325   0.593   7.987   2.870
26361WAT     H279326   0.650   7.840   2.827
26362WAT      O79327   1.788   3.348   8.940
26362WAT     H179328   1.758   3.436   8.976
26362WAT     H279329   1.849   3.304   9.007
26363WAT      O79330   7.416   7.594   6.742
26363WAT     H179331   7.443   7.563   6.833
26363WAT     H279332   7.491   7.580   6.678
26364WAT      O79333   5.398   9.275   0.137
26364WAT     H179334   5.400   9.294   0.039
26364WAT     H279335   5.492   9.277   0.173
26365WAT      O79336   9.355   4.319   3.737
26365WAT     H179337   9.313   4.299   3.648
26365WAT     H279338   9.326   4.250   3.803
26366WAT      O79339   0.081   3.099   2.921
26366WAT     H179340   0.068   3.140   3.012
26366WAT     H279341  -0.004   3.053   2.893
26367WAT      O79342   5.320   0.691   2.712
26367WAT     H179343   5.308   0.653   2.804
26367WAT     H279344   5.285   0.785   2.710
26368WAT      O79345   3.943   1.827   2.504
26368WAT     H179346   4.030   1.867   2.532
26368WAT     H279347   3.959   1.762   2.430
26369WAT      O79348   6.111   0.762   0.817
26369WAT     H179349   6.095   0.692   0.747
26369WAT     H279350   6.025   0.784   0.863
26370WAT      O79351   6.070   6.058   3.052
26370WAT     H179352   6.077   6.073   2.954
26370WAT     H279353   5.998   6.116   3.090
26371WAT      O79354   1.139   0.278   5.336
26371WAT     H179355   1.153   0.184   5.367
26371WAT     H279356   1.170   0.288   5.242
26372WAT      O79357   2.931   9.463   0.746
26372WAT     H179358   2.840   9.506   0.746
26372WAT     H279359   2.923   9.369   0.714
26373WAT      O79360   8.813   3.909   7.694
26373WAT     H179361   8.863   3.849   7.757
26373WAT     H279362   8.770   3.983   7.746
26374WAT      O79363   3.046   2.763   2.534
26374WAT     H179364   3.053   2.750   2.633
26374WAT     H279365   2.977   2.833   2.515
26375WAT      O79366   4.895   5.643   7.424
26375WAT     H179367   4.887   5.702   7.505
26375WAT     H279368   4.806   5.637   7.378
26376WAT      O79369   4.327   4.324   2.398
26376WAT     H179370   4.354   4.385   2.324
26376WAT     H279371   4.227   4.327   2.410
26377WAT      O79372   0.593   6.893   6.877
26377WAT     H179373   0.670   6.833   6.859
26377WAT     H279374   0.611   6.948   6.958
26378WAT      O79375   3.935   9.212   2.285
26378WAT     H179376   3.922   9.142   2.355
26378WAT     H279377   4.011   9.271   2.312
26379WAT      O79378   6.196   3.611   6.268
26379WAT     H179379   6.184   3.552   6.188
26379WAT     H279380   6.255   3.688   6.245
26380WAT      O79381   0.405   9.689   6.956
26380WAT     H179382   0.465   9.612   6.932
26380WAT     H279383   0.310   9.662   6.944
26381WAT      O79384   8.515   2.298   2.994
26381WAT     H179385   8.495   2.279   3.090
26381WAT     H279386   8.521   2.397   2.980
26382WAT      O79387   1.130   6.871   6.295
26382WAT     H179388   1.109   6.930   6.218
26382WAT     H279389   1.077   6.899   6.375
26383WAT      O79390   2.885   3.258   2.058
26383WAT     H179391   2.797   3.211   2.067
26383WAT     H279392   2.899   3.283   1.963
26384WAT      O79393   0.236   2.800   2.203
26384WAT     H179394   0.298   2.879   2.202
26384WAT     H279395   0.148   2.827   2.164
26385WAT      O79396   2.128   2.943   1.281
26385WAT     H179397   2.079   2.954   1.194
26385WAT     H279398   2.133   2.846   1.305
26386WAT      O79399   1.530   2.083   1.122
26386WAT     H179400   1.550   2.137   1.204
26386WAT     H279401   1.457   2.017   1.143
26387WAT      O79402   5.854   7.458   0.036
26387WAT     H179403   5.897   7.530  -0.018
26387WAT     H279404   5.925   7.398   0.074
26388WAT      O79405   2.098   8.181   9.620
26388WAT     H179406   2.139   8.108   9.565
26388WAT     H279407   2.001   8.161   9.634
26389WAT      O79408   5.898   0.882   2.656
26389WAT     H179409   5.801   0.863   2.645
26389WAT     H279410   5.920   0.971   2.616
26390WAT      O79411   5.361   0.565   8.370
26390WAT     H179412   5.425   0.640   8.384
26390WAT     H279413   5.408   0.490   8.323
26391WAT      O79414   8.499   2.884   2.416
26391WAT     H179415   8.517   2.786   2.415
26391WAT     H279416   8.543   2.925   2.496
26392WAT      O79417   5.818   5.392   2.906
26392WAT     H179418   5.900   5.353   2.947
26392WAT     H279419   5.760   5.432   2.977
26393WAT      O79420   7.141   2.190   9.348
26393WAT     H179421   7.123   2.171   9.251
26393WAT     H279422   7.179   2.282   9.358
26394WAT      O79423   5.091   1.845   6.470
26394WAT     H179424   5.177   1.817   6.427
26394WAT     H279425   5.106   1.929   6.522
26395WAT      O79426   8.838   9.483   9.176
26395WAT     H179427   8.903   9.432   9.232
26395WAT     H279428   8.825   9.574   9.216
26396WAT      O79429   7.049   0.470   5.877
26396WAT     H179430   7.032   0.398   5.944
26396WAT     H279431   7.011   0.442   5.789
26397WAT      O79432   4.757   7.387   0.061
26397WAT     H179433   4.837   7.384   0.121
26397WAT     H279434   4.675   7.403   0.115
26398WAT      O79435   3.569   0.396   1.598
26398WAT     H179436   3.564   0.448   1.683
26398WAT     H279437   3.566   0.459   1.521
26399WAT      O79438   3.976   3.552   7.839
26399WAT     H179439   3.913   3.629   7.846
26399WAT     H279440   4.036   3.566   7.760
26400WAT      O79441   5.047   4.992   7.119
26400WAT     H179442   4.969   5.013   7.178
26400WAT     H279443   5.046   5.053   7.039
26401WAT      O79444   2.427   8.693   0.109
26401WAT     H179445   2.361   8.625   0.077
26401WAT     H279446   2.449   8.756   0.034
26402WAT      O79447   3.878   6.692   6.106
26402WAT     H179448   3.898   6.595   6.090
26402WAT     H279449   3.868   6.739   6.018
26403WAT      O79450   4.963   6.220   7.999
26403WAT     H179451   4.926   6.310   7.976
26403WAT     H279452   4.919   6.187   8.083
26404WAT      O79453   9.007   1.073   1.687
26404WAT     H179454   9.088   1.121   1.652
26404WAT     H279455   9.015   0.975   1.665
26405WAT      O79456   0.326   7.554   7.067
26405WAT     H179457   0.421   7.524   7.056
26405WAT     H279458   0.265   7.492   7.018
26406WAT      O79459   8.445   3.412   2.069
26406WAT     H179460   8.480   3.499   2.102
26406WAT     H279461   8.352   3.424   2.033
26407WAT      O79462   8.938   3.986   5.772
26407WAT     H179463   8.927   4.047   5.693
26407WAT     H279464   9.034   3.981   5.798
26408WAT      O79465   3.701   4.055   8.473
26408WAT     H179466   3.731   4.093   8.560
26408WAT     H279467   3.601   4.063   8.466
26409WAT      O79468   2.543   4.984   3.616
26409WAT     H179469   2.590   4.906   3.657
26409WAT     H279470   2.591   5.012   3.533
26410WAT      O79471   3.121   2.841   4.107
26410WAT     H179472   3.138   2.933   4.073
26410WAT     H279473   3.037   2.805   4.066
26411WAT      O79474   0.423   8.751   9.450
26411WAT     H179475   0.372   8.809   9.387
26411WAT     H279476   0.363   8.722   9.524
26412WAT      O79477   0.012   6.348   1.780
26412WAT     H179478  -0.004   6.281   1.708
26412WAT     H279479   0.008   6.303   1.869
26413WAT      O79480   4.244   9.356   8.997
26413WAT     H179481   4.163   9.334   8.942
26413WAT     H279482   4.263   9.281   9.060
26414WAT      O79483   4.982   8.658   1.309
26414WAT     H179484   5.054   8.625   1.248
26414WAT     H279485   5.004   8.631   1.403
26415WAT      O79486   0.700   8.826   0.492
26415WAT     H179487   0.687   8.761   0.567
26415WAT     H279488   0.688   8.778   0.404
26416WAT      O79489   0.363   5.158   1.381
26416WAT     H179490   0.379   5.127   1.287
26416WAT     H279491   0.420   5.238   1.400
26417WAT      O79492   9.642   3.505   4.145
26417WAT     H179493   9.559   3.491   4.199
26417WAT     H279494   9.643   3.598   4.110
26418WAT      O79495   5.357   4.223   1.143
26418WAT     H179496   5.419   4.145   1.144
26418WAT     H279497   5.315   4.231   1.053
26419WAT      O79498   0.158   1.662   1.713
26419WAT     H179499   0.094   1.728   1.673
26419WAT     H279500   0.113   1.612   1.786
26420WAT      O79501   8.420   1.669   9.719
26420WAT     H179502   8.509   1.714   9.731
26420WAT     H279503   8.433   1.570   9.718
26421WAT      O79504   2.419   9.527   3.991
26421WAT     H179505   2.462   9.482   3.913
26421WAT     H279506   2.319   9.520   3.983
26422WAT      O79507   3.030   0.072   3.590
26422WAT     H179508   3.054   0.165   3.619
26422WAT     H279509   2.971   0.078   3.509
26423WAT      O79510   9.706   7.550   6.151
26423WAT     H179511   9.799   7.578   6.174
26423WAT     H279512   9.700   7.451   6.151
26424WAT      O79513   4.529   0.949   2.229
26424WAT     H179514   4.521   0.849   2.235
26424WAT     H279515   4.466   0.982   2.158
26425WAT      O79516   2.508   6.079   4.051
26425WAT     H179517   2.490   6.154   4.114
26425WAT     H279518   2.433   6.013   4.055
26426WAT      O79519   9.823   8.011   8.909
26426WAT     H179520   9.849   7.993   9.004
26426WAT     H279521   9.866   7.944   8.849
26427WAT      O79522   9.754   7.322   7.660
26427WAT     H179523   9.851   7.343   7.649
26427WAT     H279524   9.744   7.232   7.703
26428WAT      O79525   1.686   8.437   6.702
26428WAT     H179526   1.744   8.361   6.732
26428WAT     H279527   1.602   8.437   6.756
26429WAT      O79528   5.034   5.295   3.859
26429WAT     H179529   5.083   5.208   3.857
26429WAT     H279530   5.067   5.350   3.936
26430WAT      O79531   6.063   3.651   4.902
26430WAT     H179532   6.151   3.610   4.928
26430WAT     H279533   6.039   3.721   4.969
26431WAT      O79534   6.286   1.834   8.243
26431WAT     H179535   6.311   1.845   8.147
26431WAT     H279536   6.359   1.871   8.301
26432WAT      O79537   4.334   8.224   0.630
26432WAT     H179538   4.291   8.242   0.719
26432WAT     H279539   4.334   8.309   0.576
26433WAT      O79540   3.536   8.762   2.553
26433WAT     H179541   3.578   8.744   2.642
26433WAT     H279542   3.448   8.806   2.565
26434WAT      O79543   4.111   9.645   1.506
26434WAT     H179544   4.027   9.681   1.548
26434WAT     H279545   4.174   9.720   1.488
26435WAT      O79546   8.755   9.775   2.184
26435WAT     H179547   8.686   9.703   2.197
26435WAT     H279548   8.765   9.826   2.270
26436WAT      O79549   2.349   8.172   2.120
26436WAT     H179550   2.322   8.216   2.206
26436WAT     H279551   2.316   8.226   2.043
26437WAT      O79552   0.633   0.583   6.867
26437WAT     H179553   0.554   0.638   6.894
26437WAT     H279554   0.621   0.490   6.900
26438WAT      O79555   2.770   2.240   8.926
26438WAT     H179556   2.728   2.229   9.015
26438WAT     H279557   2.703   2.220   8.854
26439WAT      O79558   7.730   1.614   3.260
26439WAT     H179559   7.679   1.530   3.244
26439WAT     H279560   7.768   1.647   3.173
26440WAT      O79561   8.466   0.162   4.869
26440WAT     H179562   8.402   0.112   4.810
26440WAT     H279563   8.523   0.097   4.919
26441WAT      O79564   9.823   5.821   8.942
26441WAT     H179565   9.923   5.821   8.942
26441WAT     H279566   9.790   5.745   8.998
26442WAT      O79567   1.347   3.917   4.020
26442WAT     H179568   1.314   3.830   3.981
26442WAT     H279569   1.445   3.925   4.004
26443WAT      O79570   7.155   1.277   3.473
26443WAT     H179571   7.065   1.320   3.462
26443WAT     H279572   7.159   1.230   3.561
26444WAT      O79573   1.197   6.856   3.475
26444WAT     H179574   1.156   6.873   3.385
26444WAT     H279575   1.275   6.796   3.465
26445WAT      O79576   6.957   1.241   4.302
26445WAT     H179577   6.943   1.333   4.266
26445WAT     H279578   7.055   1.228   4.322
26446WAT      O79579   7.425   2.520   1.883
26446WAT     H179580   7.357   2.589   1.910
26446WAT     H279581   7.403   2.433   1.926
26447WAT      O79582   4.521   7.644   6.623
26447WAT     H179583   4.567   7.629   6.536
26447WAT     H279584   4.530   7.562   6.680
26448WAT      O79585   9.517   3.964   2.206
26448WAT     H179586   9.607   3.984   2.243
26448WAT     H279587   9.525   3.935   2.111
26449WAT      O79588   7.591   5.668   8.427
26449WAT     H179589   7.506   5.711   8.457
26449WAT     H279590   7.576   5.624   8.338
26450WAT      O79591   0.849   7.057   3.183
26450WAT     H179592   0.775   7.046   3.250
26450WAT     H279593   0.870   6.968   3.142
26451WAT      O79594   4.574   3.516   0.324
26451WAT     H179595   4.524   3.468   0.396
26451WAT     H279596   4.569   3.614   0.340
26452WAT      O79597   2.446   4.226   3.199
26452WAT     H179598   2.446   4.299   3.130
26452WAT     H279599   2.366   4.236   3.258
26453WAT      O79600   6.345   4.869   8.162
26453WAT     H179601   6.420   4.848   8.226
26453WAT     H279602   6.260   4.878   8.213
26454WAT      O79603   4.723   8.405   4.765
26454WAT     H179604   4.652   8.434   4.828
26454WAT     H279605   4.743   8.308   4.778
26455WAT      O79606   8.742   8.391   5.358
26455WAT     H179607   8.730   8.292   5.357
26455WAT     H279608   8.839   8.413   5.352
26456WAT      O79609   1.685   5.484   6.091
26456WAT     H179610   1.698   5.468   6.189
26456WAT     H279611   1.615   5.554   6.077
26457WAT      O79612   5.764   6.230   7.898
26457WAT     H179613   5.696   6.183   7.842
26457WAT     H279614   5.854   6.222   7.855
26458WAT      O79615   5.655   1.718   4.943
26458WAT     H179616   5.683   1.788   5.007
26458WAT     H279617   5.618   1.760   4.860
26459WAT      O79618   7.453   6.087   9.866
26459WAT     H179619   7.449   6.010   9.929
26459WAT     H279620   7.396   6.069   9.786
26460WAT      O79621   9.615   0.013   9.826
26460WAT     H179622   9.519   0.021   9.800
26460WAT     H279623   9.643   0.093   9.878
26461WAT      O79624   4.729   7.204   4.396
26461WAT     H179625   4.758   7.108   4.388
26461WAT     H279626   4.808   7.261   4.418
26462WAT      O79627   5.547   3.391   2.733
26462WAT     H179628   5.619   3.459   2.746
26462WAT     H279629   5.560   3.316   2.799
26463WAT      O79630   7.883   8.603   4.168
26463WAT     H179631   7.845   8.512   4.151
26463WAT     H279632   7.865   8.629   4.263
26464WAT      O79633   3.970   3.600   1.501
26464WAT     H179634   3.965   3.631   1.597
26464WAT     H279635   4.063   3.571   1.481
26465WAT      O79636   2.508   5.695   6.713
26465WAT     H179637   2.536   5.682   6.808
26465WAT     H279638   2.537   5.616   6.658
26466WAT      O79639   3.851   5.941   9.079
26466WAT     H179640   3.948   5.919   9.084
26466WAT     H279641   3.810   5.936   9.170
26467WAT      O79642   1.967   8.999   3.795
26467WAT     H179643   1.909   8.948   3.732
26467WAT     H279644   2.030   8.936   3.840
26468WAT      O79645   7.267   8.166   8.354
26468WAT     H179646   7.323   8.141   8.433
26468WAT     H279647   7.305   8.246   8.310
26469WAT      O79648   0.381   7.078   0.077
26469WAT     H179649   0.311   7.101   0.009
26469WAT     H279650   0.470   7.073   0.032
26470WAT      O79651   1.301   8.451   0.471
26470WAT     H179652   1.368   8.387   0.509
26470WAT     H279653   1.210   8.409   0.474
26471WAT      O79654   2.024   0.786   7.726
26471WAT     H179655   2.009   0.755   7.820
26471WAT     H279656   2.094   0.858   7.725
26472WAT      O79657   0.023   8.901   1.858
26472WAT     H179658   0.050   8.915   1.762
26472WAT     H279659  -0.017   8.985   1.894
26473WAT      O79660   3.426   3.451   7.495
26473WAT     H179661   3.360   3.450   7.419
26473WAT     H279662   3.376   3.449   7.582
26474WAT      O79663   4.796   0.968   4.996
26474WAT     H179664   4.828   1.063   5.006
26474WAT     H279665   4.865   0.906   5.033
26475WAT      O79666   4.839   0.026   9.567
26475WAT     H179667   4.741   0.037   9.552
26475WAT     H279668   4.878  -0.026   9.491
26476WAT      O79669   5.767   4.052   0.167
26476WAT     H179670   5.820   4.092   0.093
26476WAT     H279671   5.697   3.991   0.128
26477WAT      O79672   1.228   8.526   0.077
26477WAT     H179673   1.233   8.603   0.141
26477WAT     H279674   1.235   8.560  -0.017
26478WAT      O79675   2.461   4.553   9.011
26478WAT     H179676   2.446   4.649   9.037
26478WAT     H279677   2.470   4.497   9.093
26479WAT      O79678   0.706   0.342   6.007
26479WAT     H179679   0.613   0.352   5.970
26479WAT     H279680   0.770   0.324   5.932
26480WAT      O79681   2.017   2.590   2.408
26480WAT     H179682   2.050   2.643   2.330
26480WAT     H279683   2.092   2.573   2.472
26481WAT      O79684   9.472   0.225   6.954
26481WAT     H179685   9.485   0.263   6.862
26481WAT     H279686   9.505   0.290   7.022
26482WAT      O79687   5.464   1.757   1.956
26482WAT     H179688   5.364   1.760   1.966
26482WAT     H279689   5.504   1.711   2.035
26483WAT      O79690   5.806   1.442   6.860
26483WAT     H179691   5.786   1.460   6.956
26483WAT     H279692   5.901   1.467   6.840
26484WAT      O79693   2.354   3.838   5.662
26484WAT     H179694   2.369   3.811   5.757
26484WAT     H279695   2.291   3.773   5.619
26485WAT      O79696   0.499   7.545   6.820
26485WAT     H179697   0.410   7.552   6.775
26485WAT     H279698   0.538   7.636   6.832
26486WAT      O79699   2.145   1.167   4.672
26486WAT     H179700   2.181   1.075   4.688
26486WAT     H279701   2.207   1.234   4.712
26487WAT      O79702   6.685   6.033   5.613
26487WAT     H179703   6.609   5.981   5.651
26487WAT     H279704   6.654   6.125   5.591
26488WAT      O79705   4.602   7.890   3.978
26488WAT     H179706   4.656   7.912   4.059
26488WAT     H279707   4.639   7.807   3.935
26489WAT      O79708   1.829   7.161   1.198
26489WAT     H179709   1.828   7.155   1.298
26489WAT     H279710   1.736   7.153   1.162
26490WAT      O79711   3.569   6.366   9.470
26490WAT     H179712   3.640   6.298   9.454
26490WAT     H279713   3.498   6.356   9.400
26491WAT      O79714   2.071   5.679   0.975
26491WAT     H179715   1.980   5.638   0.969
26491WAT     H279716   2.099   5.713   0.886
26492WAT      O79717   9.178   1.972   4.280
26492WAT     H179718   9.265   2.002   4.240
26492WAT     H279719   9.131   2.051   4.319
26493WAT      O79720   1.759   9.705   9.330
26493WAT     H179721   1.853   9.698   9.298
26493WAT     H279722   1.699   9.653   9.269
26494WAT      O79723   7.914   1.507   8.312
26494WAT     H179724   7.918   1.517   8.412
26494WAT     H279725   8.007   1.499   8.276
26495WAT      O79726   1.629   3.739   4.992
26495WAT     H179727   1.562   3.769   5.059
26495WAT     H279728   1.641   3.640   4.999
26496WAT      O79729   9.310   8.510   8.105
26496WAT     H179730   9.316   8.581   8.174
26496WAT     H279731   9.219   8.509   8.064
26497WAT      O79732   5.113   6.357   7.362
26497WAT     H179733   5.178   6.325   7.293
26497WAT     H279734   5.076   6.446   7.335
26498WAT      O79735   4.392   5.626   7.784
26498WAT     H179736   4.489   5.605   7.774
26498WAT     H279737   4.380   5.712   7.834
26499WAT      O79738   9.290   8.859   7.993
26499WAT     H179739   9.366   8.906   7.947
26499WAT     H279740   9.216   8.844   7.928
26500WAT      O79741   9.167   7.417   7.790
26500WAT     H179742   9.249   7.450   7.836
26500WAT     H279743   9.168   7.446   7.695
26501WAT      O79744   5.156   1.313   7.012
26501WAT     H179745   5.083   1.266   7.061
26501WAT     H279746   5.226   1.247   6.984
26502WAT      O79747   2.170   4.184   7.168
26502WAT     H179748   2.093   4.160   7.228
26502WAT     H279749   2.205   4.274   7.194
26503WAT      O79750   2.229   9.690   0.306
26503WAT     H179751   2.249   9.701   0.209
26503WAT     H279752   2.156   9.754   0.333
26504WAT      O79753   0.841   7.564   5.592
26504WAT     H179754   0.893   7.515   5.662
26504WAT     H279755   0.829   7.505   5.512
26505WAT      O79756   5.935   4.483   6.821
26505WAT     H179757   5.856   4.541   6.843
26505WAT     H279758   5.916   4.433   6.736
26506WAT      O79759   8.980   5.000   4.557
26506WAT     H179760   8.971   4.965   4.464
26506WAT     H279761   9.025   5.089   4.555
26507WAT      O79762   7.271   1.789   0.284
26507WAT     H179763   7.196   1.849   0.257
26507WAT     H279764   7.245   1.694   0.269
26508WAT      O79765   8.739   5.993   1.384
26508WAT     H179766   8.788   6.061   1.440
26508WAT     H279767   8.644   5.987   1.415
26509WAT      O79768   0.560   4.606   3.301
26509WAT     H179769   0.634   4.580   3.361
26509WAT     H279770   0.541   4.532   3.236
26510WAT      O79771   1.178   8.315   6.271
26510WAT     H179772   1.147   8.224   6.298
26510WAT     H279773   1.250   8.346   6.332
26511WAT      O79774   7.752   2.988   1.002
26511WAT     H179775   7.675   2.926   0.993
26511WAT     H279776   7.798   2.972   1.090
26512WAT      O79777   7.771   0.644   4.914
26512WAT     H179778   7.868   0.651   4.889
26512WAT     H279779   7.715   0.669   4.836
26513WAT      O79780   3.765   4.529   9.359
26513WAT     H179781   3.753   4.454   9.295
26513WAT     H279782   3.785   4.492   9.450
26514WAT      O79783   5.281   0.620   6.301
26514WAT     H179784   5.257   0.663   6.214
26514WAT     H279785   5.380   0.622   6.314
26515WAT      O79786   8.631   9.488   4.562
26515WAT     H179787   8.625   9.526   4.654
26515WAT     H279788   8.540   9.460   4.532
26516WAT      O79789   2.468   7.346   6.254
26516WAT     H179790   2.564   7.364   6.277
26516WAT     H279791   2.442   7.256   6.288
26517WAT      O79792   2.142   8.916   7.805
26517WAT     H179793   2.079   8.861   7.859
26517WAT     H279794   2.216   8.859   7.771
26518WAT      O79795   1.365   8.920   3.501
26518WAT     H179796   1.382   9.019   3.493
26518WAT     H279797   1.273   8.905   3.538
26519WAT      O79798   8.495   1.338   1.582
26519WAT     H179799   8.565   1.389   1.631
26519WAT     H279800   8.427   1.401   1.546
26520WAT      O79801   9.282   3.026   0.397
26520WAT     H179802   9.369   3.074   0.408
26520WAT     H279803   9.297   2.941   0.347
26521WAT      O79804   8.038   1.455   1.209
26521WAT     H179805   8.046   1.554   1.200
26521WAT     H279806   7.993   1.418   1.128
26522WAT      O79807   5.038   3.549   4.425
26522WAT     H179808   5.051   3.648   4.421
26522WAT     H279809   5.017   3.522   4.519
26523WAT      O79810   6.709   6.284   9.441
26523WAT     H179811   6.768   6.212   9.479
26523WAT     H279812   6.614   6.252   9.440
26524WAT      O79813   0.714   1.709   0.942
26524WAT     H179814   0.638   1.675   0.998
26524WAT     H279815   0.699   1.683   0.846
26525WAT      O79816   1.986   8.177   0.885
26525WAT     H179817   2.071   8.128   0.868
26525WAT     H279818   1.976   8.251   0.817
26526WAT      O79819   6.458   5.228   6.390
26526WAT     H179820   6.378   5.185   6.431
26526WAT     H279821   6.433   5.263   6.299
26527WAT      O79822   6.433   7.089   3.177
26527WAT     H179823   6.360   7.108   3.111
26527WAT     H279824   6.416   7.141   3.261
26528WAT      O79825   4.826   3.553   2.810
26528WAT     H179826   4.785   3.520   2.726
26528WAT     H279827   4.923   3.528   2.812
26529WAT      O79828   0.692   6.977   3.428
26529WAT     H179829   0.676   6.948   3.522
26529WAT     H279830   0.643   7.063   3.411
26530WAT      O79831   5.848   0.744   8.037
26530WAT     H179832   5.898   0.831   8.037
26530WAT     H279833   5.876   0.691   8.117
26531WAT      O79834   7.961   5.736   6.215
26531WAT     H179835   7.932   5.781   6.299
26531WAT     H279836   7.882   5.698   6.168
26532WAT      O79837   3.347   7.557   8.485
26532WAT     H179838   3.304   7.556   8.575
26532WAT     H279839   3.330   7.645   8.441
26533WAT      O79840   5.265   6.769   4.679
26533WAT     H179841   5.359   6.738   4.666
26533WAT     H279842   5.243   6.839   4.611
26534WAT      O79843   2.462   4.557   1.394
26534WAT     H179844   2.525   4.635   1.391
26534WAT     H279845   2.448   4.521   1.302
26535WAT      O79846   5.073   3.169   1.335
26535WAT     H179847   5.101   3.238   1.268
26535WAT     H279848   4.978   3.142   1.317
26536WAT      O79849   1.130   4.937   4.702
26536WAT     H179850   1.129   4.973   4.795
26536WAT     H279851   1.143   5.012   4.637
26537WAT      O79852   6.255   3.765   5.381
26537WAT     H179853   6.230   3.856   5.415
26537WAT     H279854   6.295   3.711   5.455
26538WAT      O79855   7.203   5.461   6.988
26538WAT     H179856   7.244   5.481   7.077
26538WAT     H279857   7.200   5.545   6.934
26539WAT      O79858   9.825   1.336   1.640
26539WAT     H179859   9.819   1.237   1.652
26539WAT     H279860   9.747   1.379   1.686
26540WAT      O79861   1.239   7.064   1.486
26540WAT     H179862   1.209   7.117   1.407
26540WAT     H279863   1.200   7.103   1.570
26541WAT      O79864   1.569   0.926   8.188
26541WAT     H179865   1.572   1.026   8.180
26541WAT     H279866   1.625   0.885   8.116
26542WAT      O79867   3.777   9.760   8.147
26542WAT     H179868   3.872   9.727   8.153
26542WAT     H279869   3.778   9.860   8.136
26543WAT      O79870   7.353   9.832   5.131
26543WAT     H179871   7.364   9.759   5.199
26543WAT     H279872   7.318   9.792   5.046
26544WAT      O79873   6.168   9.491   6.240
26544WAT     H179874   6.162   9.588   6.266
26544WAT     H279875   6.230   9.444   6.302
26545WAT      O79876   6.229   7.710   1.525
26545WAT     H179877   6.324   7.723   1.497
26545WAT     H279878   6.183   7.799   1.529
26546WAT      O79879   2.142   1.343   9.287
26546WAT     H179880   2.125   1.418   9.351
26546WAT     H279881   2.156   1.258   9.339
26547WAT      O79882   3.020   3.412   0.360
26547WAT     H179883   3.105   3.370   0.328
26547WAT     H279884   2.944   3.378   0.305
26548WAT      O79885   6.906   3.559   6.288
26548WAT     H179886   6.927   3.529   6.382
26548WAT     H279887   6.815   3.528   6.263
26549WAT      O79888   9.883   1.558   6.241
26549WAT     H179889   9.905   1.635   6.181
26549WAT     H279890   9.946   1.557   6.318
26550WAT      O79891   8.435   5.725   7.314
26550WAT     H179892   8.473   5.817   7.323
26550WAT     H279893   8.493   5.671   7.253
26551WAT      O79894   7.096   6.245   0.098
26551WAT     H179895   7.151   6.268   0.178
26551WAT     H279896   7.009   6.206   0.127
26552WAT      O79897   7.550   8.811   4.317
26552WAT     H179898   7.483   8.740   4.295
26552WAT     H279899   7.552   8.826   4.415
26553WAT      O79900   4.743   0.241   1.655
26553WAT     H179901   4.741   0.327   1.706
26553WAT     H279902   4.805   0.250   1.577
26554WAT      O79903   1.792   2.495   2.151
26554WAT     H179904   1.760   2.475   2.244
26554WAT     H279905   1.820   2.410   2.106
26555WAT      O79906   6.192   7.114   3.743
26555WAT     H179907   6.126   7.120   3.819
26555WAT     H279908   6.162   7.043   3.679
26556WAT      O79909   8.030   8.441   5.363
26556WAT     H179910   7.997   8.534   5.383
26556WAT     H279911   8.077   8.441   5.275
26557WAT      O79912   7.398   4.278   5.653
26557WAT     H179913   7.323   4.246   5.594
26557WAT     H279914   7.454   4.200   5.680
26558WAT      O79915   5.094   9.107   6.461
26558WAT     H179916   5.100   9.156   6.373
26558WAT     H279917   5.003   9.069   6.472
26559WAT      O79918   2.106   5.993   2.672
26559WAT     H179919   2.155   6.040   2.599
26559WAT     H279920   2.047   6.058   2.720
26560WAT      O79921   4.638   3.406   2.369
26560WAT     H179922   4.667   3.312   2.350
26560WAT     H279923   4.709   3.470   2.339
26561WAT      O79924   5.994   0.024   1.161
26561WAT     H179925   5.982   0.095   1.092
26561WAT     H279926   5.946   0.050   1.245
26562WAT      O79927   7.977   1.743   6.950
26562WAT     H179928   7.928   1.657   6.967
26562WAT     H279929   7.911   1.815   6.927
26563WAT      O79930   2.036   1.466   5.904
26563WAT     H179931   1.991   1.404   5.969
26563WAT     H279932   2.131   1.479   5.932
26564WAT      O79933   3.457   4.639   0.724
26564WAT     H179934   3.416   4.715   0.775
26564WAT     H279935   3.394   4.560   0.726
26565WAT      O79936   6.400   2.708   7.903
26565WAT     H179937   6.315   2.662   7.928
26565WAT     H279938   6.452   2.650   7.840
26566WAT      O79939   5.553   5.045   8.414
26566WAT     H179940   5.630   5.061   8.353
26566WAT     H279941   5.468   5.042   8.361
26567WAT      O79942   9.008   8.998   4.882
26567WAT     H179943   8.926   9.056   4.885
26567WAT     H279944   9.000   8.932   4.807
26568WAT      O79945   4.927   1.271   1.040
26568WAT     H179946   4.908   1.218   1.123
26568WAT     H279947   4.860   1.346   1.033
26569WAT      O79948   0.445   0.118   3.404
26569WAT     H179949   0.495   0.189   3.454
26569WAT     H279950   0.371   0.160   3.352
26570WAT      O79951   3.646   4.727   4.749
26570WAT     H179952   3.683   4.654   4.692
26570WAT     H279953   3.549   4.740   4.730
26571WAT      O79954   3.237   7.732   0.318
26571WAT     H179955   3.265   7.752   0.412
26571WAT     H279956   3.269   7.805   0.258
26572WAT      O79957   8.335   4.924   0.744
26572WAT     H179958   8.274   4.990   0.701
26572WAT     H279959   8.430   4.953   0.733
26573WAT      O79960   1.452   3.536   9.493
26573WAT     H179961   1.384   3.464   9.507
26573WAT     H279962   1.420   3.621   9.533
26574WAT      O79963   8.352   6.437   7.583
26574WAT     H179964   8.405   6.400   7.659
26574WAT     H279965   8.278   6.494   7.619
26575WAT      O79966   9.620   6.393   1.356
26575WAT     H179967   9.680   6.359   1.429
26575WAT     H279968   9.569   6.317   1.317
26576WAT      O79969   4.906   8.865   0.903
26576WAT     H179970   4.892   8.952   0.951
26576WAT     H279971   4.886   8.789   0.965
26577WAT      O79972   9.563   7.981   4.848
26577WAT     H179973   9.477   7.984   4.796
26577WAT     H279974   9.566   8.058   4.911
26578WAT      O79975   6.525   5.556   3.327
26578WAT     H179976   6.448   5.559   3.391
26578WAT     H279977   6.492   5.570   3.234
26579WAT      O79978   9.778   1.551   2.187
26579WAT     H179979   9.807   1.625   2.248
26579WAT     H279980   9.710   1.494   2.234
26580WAT      O79981   2.346   3.312   3.951
26580WAT     H179982   2.340   3.363   3.865
26580WAT     H279983   2.406   3.360   4.014
26581WAT      O79984   9.562   5.927   0.588
26581WAT     H179985   9.586   5.977   0.671
26581WAT     H279986   9.645   5.888   0.548
26582WAT      O79987   5.120   1.303   8.870
26582WAT     H179988   5.112   1.373   8.941
26582WAT     H279989   5.163   1.221   8.908
26583WAT      O79990   8.954   9.731   6.703
26583WAT     H179991   8.882   9.774   6.648
26583WAT     H279992   8.977   9.791   6.780
26584WAT      O79993   2.916   0.678   4.668
26584WAT     H179994   3.010   0.647   4.683
26584WAT     H279995   2.912   0.778   4.679
26585WAT      O79996   3.387   3.570   6.214
26585WAT     H179997   3.403   3.521   6.128
26585WAT     H279998   3.474   3.590   6.258
26586WAT      O79999   2.991   4.376   0.458
26586WAT     H180000   2.984   4.368   0.557
26586WAT     H280001   3.086   4.361   0.430
26587WAT      O80002   5.530   2.754   5.879
26587WAT     H180003   5.567   2.705   5.800
26587WAT     H280004   5.588   2.737   5.959
26588WAT      O80005   7.004   7.953   2.437
26588WAT     H180006   6.925   7.949   2.498
26588WAT     H280007   7.088   7.952   2.491
26589WAT      O80008   8.515   9.280   8.490
26589WAT     H180009   8.478   9.284   8.583
26589WAT     H280010   8.445   9.247   8.427
26590WAT      O80011   3.115   0.990   7.584
26590WAT     H180012   3.161   1.077   7.604
26590WAT     H280013   3.026   0.989   7.628
26591WAT      O80014   6.761   2.874   6.989
26591WAT     H180015   6.746   2.776   6.976
26591WAT     H280016   6.732   2.923   6.907
26592WAT      O80017   8.159   9.552   7.253
26592WAT     H180018   8.146   9.453   7.245
26592WAT     H280019   8.159   9.578   7.349
26593WAT      O80020   9.287   4.200   8.263
26593WAT     H180021   9.316   4.294   8.276
26593WAT     H280022   9.187   4.194   8.269
26594WAT      O80023   7.590   7.196   1.074
26594WAT     H180024   7.689   7.205   1.061
26594WAT     H280025   7.562   7.244   1.157
26595WAT      O80026   1.834   0.846   3.079
26595WAT     H180027   1.750   0.886   3.117
26595WAT     H280028   1.846   0.877   2.985
26596WAT      O80029   3.134   1.487   8.514
26596WAT     H180030   3.080   1.411   8.552
26596WAT     H280031   3.156   1.552   8.587
26597WAT      O80032   9.268   8.869   2.829
26597WAT     H180033   9.187   8.889   2.774
26597WAT     H280034   9.304   8.779   2.803
26598WAT      O80035   3.362   7.426   5.642
26598WAT     H180036   3.342   7.521   5.620
26598WAT     H280037   3.407   7.421   5.731
26599WAT      O80038   6.520   3.514   8.698
26599WAT     H180039   6.462   3.498   8.618
26599WAT     H280040   6.612   3.480   8.680
26600WAT      O80041   1.396   9.003   5.882
26600WAT     H180042   1.414   9.072   5.952
26600WAT     H280043   1.478   8.988   5.827
26601WAT      O80044   3.247   4.001   8.883
26601WAT     H180045   3.226   3.941   8.960
26601WAT     H280046   3.316   4.068   8.911
26602WAT      O80047   3.676   9.399   9.078
26602WAT     H180048   3.628   9.387   9.165
26602WAT     H280049   3.726   9.485   9.079
26603WAT      O80050   4.929   1.440   1.528
26603WAT     H180051   4.876   1.362   1.496
26603WAT     H280052   4.979   1.481   1.451
26604WAT      O80053   5.058   9.508   2.800
26604WAT     H180054   5.116   9.561   2.738
26604WAT     H280055   5.051   9.414   2.767
26605WAT      O80056   6.001   1.428   8.753
26605WAT     H180057   5.918   1.377   8.728
26605WAT     H280058   5.981   1.485   8.833
26606WAT      O80059   8.023   5.661   5.078
26606WAT     H180060   8.087   5.646   5.153
26606WAT     H280061   8.004   5.759   5.069
26607WAT      O80062   0.627   3.910   3.528
26607WAT     H180063   0.692   3.985   3.543
26607WAT     H280064   0.599   3.872   3.616
26608WAT      O80065   0.560   4.294   7.242
26608WAT     H180066   0.526   4.327   7.330
26608WAT     H280067   0.546   4.195   7.235
26609WAT      O80068   8.876   7.332   7.574
26609WAT     H180069   8.842   7.326   7.480
26609WAT     H280070   8.808   7.376   7.632
26610WAT      O80071   8.101   8.298   6.179
26610WAT     H180072   8.053   8.384   6.160
26610WAT     H280073   8.155   8.308   6.263
26611WAT      O80074   5.116   7.730   0.840
26611WAT     H180075   5.064   7.728   0.755
26611WAT     H280076   5.056   7.711   0.917
26612WAT      O80077   9.590   5.645   0.101
26612WAT     H180078   9.628   5.709   0.169
26612WAT     H280079   9.537   5.575   0.148
26613WAT      O80080   7.470   8.156   0.153
26613WAT     H180081   7.448   8.238   0.100
26613WAT     H280082   7.565   8.129   0.135
26614WAT      O80083   1.237   4.769   2.321
26614WAT     H180084   1.141   4.742   2.330
26614WAT     H280085   1.254   4.805   2.229
26615WAT      O80086   6.572   0.739   2.990
26615WAT     H180087   6.635   0.817   2.991
26615WAT     H280088   6.479   0.771   3.006
26616WAT      O80089   2.768   4.459   5.476
26616WAT     H180090   2.832   4.397   5.521
26616WAT     H280091   2.790   4.553   5.501
26617WAT      O80092   1.440   2.816   4.896
26617WAT     H180093   1.377   2.739   4.896
26617WAT     H280094   1.399   2.894   4.849
26618WAT      O80095   3.635   7.952   3.653
26618WAT     H180096   3.626   7.949   3.753
26618WAT     H280097   3.592   8.035   3.618
26619WAT      O80098   8.162   9.085   7.613
26619WAT     H180099   8.210   9.054   7.695
26619WAT     H280100   8.183   9.024   7.537
26620WAT      O80101   8.679   4.492   0.121
26620WAT     H180102   8.739   4.543   0.059
26620WAT     H280103   8.625   4.427   0.068
26621WAT      O80104   6.550   7.955   0.292
26621WAT     H180105   6.470   7.903   0.262
26621WAT     H280106   6.580   7.921   0.381
26622WAT      O80107   6.412   0.331   2.733
26622WAT     H180108   6.479   0.391   2.777
26622WAT     H280109   6.454   0.242   2.715
26623WAT      O80110   7.706   4.317   3.316
26623WAT     H180111   7.756   4.404   3.326
26623WAT     H280112   7.706   4.290   3.220
26624WAT      O80113   1.056   7.807   2.184
26624WAT     H180114   1.108   7.815   2.269
26624WAT     H280115   0.959   7.792   2.205
26625WAT      O80116   3.361   7.527   7.324
26625WAT     H180117   3.289   7.468   7.363
26625WAT     H280118   3.364   7.613   7.374
26626WAT      O80119   7.075   6.363   5.565
26626WAT     H180120   6.983   6.396   5.544
26626WAT     H280121   7.070   6.267   5.593
26627WAT      O80122   3.008   4.924   2.292
26627WAT     H180123   3.096   4.967   2.311
26627WAT     H280124   3.023   4.838   2.244
26628WAT      O80125   0.074   4.578   5.296
26628WAT     H180126   0.118   4.540   5.215
26628WAT     H280127   0.043   4.672   5.277
26629WAT      O80128   0.936   2.263   4.535
26629WAT     H180129   0.945   2.273   4.436
26629WAT     H280130   0.862   2.199   4.555
26630WAT      O80131   8.307   9.336   5.633
26630WAT     H180132   8.223   9.332   5.578
26630WAT     H280133   8.372   9.396   5.587
26631WAT      O80134   6.503   4.423   2.050
26631WAT     H180135   6.450   4.507   2.033
26631WAT     H280136   6.459   4.346   2.005
26632WAT      O80137   2.219   9.226   8.583
26632WAT     H180138   2.174   9.160   8.522
26632WAT     H280139   2.312   9.243   8.552
26633WAT      O80140   8.393   2.731   6.682
26633WAT     H180141   8.349   2.691   6.602
26633WAT     H280142   8.368   2.827   6.690
26634WAT      O80143   1.906   4.360   8.024
26634WAT     H180144   1.915   4.269   8.065
26634WAT     H280145   1.994   4.386   7.983
26635WAT      O80146   1.780   3.988   4.298
26635WAT     H180147   1.843   4.024   4.229
26635WAT     H280148   1.822   3.996   4.388
26636WAT      O80149   9.526   0.220   3.936
26636WAT     H180150   9.543   0.215   3.838
26636WAT     H280151   9.486   0.308   3.959
26637WAT      O80152   9.103   4.532   1.440
26637WAT     H180153   9.200   4.520   1.416
26637WAT     H280154   9.096   4.563   1.535
26638WAT      O80155   1.445   6.701   7.131
26638WAT     H180156   1.518   6.758   7.095
26638WAT     H280157   1.452   6.698   7.231
26639WAT      O80158   0.967   9.293   5.526
26639WAT     H180159   0.973   9.374   5.584
26639WAT     H280160   0.974   9.320   5.430
26640WAT      O80161   2.967   5.194   0.293
26640WAT     H180162   2.904   5.224   0.221
26640WAT     H280163   3.057   5.178   0.253
26641WAT      O80164   6.273   2.887   0.742
26641WAT     H180165   6.361   2.881   0.695
26641WAT     H280166   6.205   2.832   0.693
26642WAT      O80167   0.108   2.065   1.254
26642WAT     H180168   0.078   2.004   1.328
26642WAT     H280169   0.040   2.065   1.181
26643WAT      O80170   0.133   1.253   5.776
26643WAT     H180171   0.150   1.301   5.690
26643WAT     H280172   0.181   1.165   5.775
26644WAT      O80173   8.221   9.374   2.165
26644WAT     H180174   8.139   9.373   2.221
26644WAT     H280175   8.300   9.349   2.220
26645WAT      O80176   3.540   5.719   4.135
26645WAT     H180177   3.617   5.702   4.073
26645WAT     H280178   3.519   5.634   4.185
26646WAT      O80179   1.121   1.338   1.605
26646WAT     H180180   1.070   1.293   1.679
26646WAT     H280181   1.192   1.276   1.572
26647WAT      O80182   5.598   3.078   9.853
26647WAT     H180183   5.569   2.999   9.907
26647WAT     H280184   5.561   3.070   9.761
26648WAT      O80185   4.209   2.716   4.315
26648WAT     H180186   4.169   2.624   4.318
26648WAT     H280187   4.177   2.764   4.234
26649WAT      O80188   9.595   4.319   2.219
26649WAT     H180189   9.651   4.240   2.246
26649WAT     H280190   9.504   4.287   2.191
26650WAT      O80191   7.404   1.338   0.812
26650WAT     H180192   7.386   1.338   0.713
26650WAT     H280193   7.455   1.255   0.836
26651WAT      O80194   5.550   2.440   5.699
26651WAT     H180195   5.586   2.530   5.674
26651WAT     H280196   5.513   2.394   5.618
26652WAT      O80197   3.626   5.246   9.606
26652WAT     H180198   3.530   5.220   9.604
26652WAT     H280199   3.644   5.315   9.535
26653WAT      O80200   6.001   0.318   5.749
26653WAT     H180201   5.968   0.409   5.773
26653WAT     H280202   6.096   0.308   5.779
26654WAT      O80203   6.727   3.844   6.109
26654WAT     H180204   6.818   3.859   6.146
26654WAT     H280205   6.659   3.852   6.182
26655WAT      O80206   1.989   8.461   3.213
26655WAT     H180207   1.935   8.539   3.242
26655WAT     H280208   2.086   8.484   3.219
26656WAT      O80209   8.700   5.959   3.178
26656WAT     H180210   8.675   5.930   3.270
26656WAT     H280211   8.617   5.978   3.125
26657WAT      O80212   9.106   8.314   9.502
26657WAT     H180213   9.205   8.299   9.502
26657WAT     H280214   9.086   8.403   9.543
26658WAT      O80215   2.268   1.074   8.013
26658WAT     H180216   2.222   1.009   8.073
26658WAT     H280217   2.289   1.158   8.063
26659WAT      O80218   2.061   0.131   4.945
26659WAT     H180219   2.045   0.138   4.847
26659WAT     H280220   2.160   0.130   4.963
26660WAT      O80221   3.480   3.779   8.384
26660WAT     H180222   3.470   3.853   8.451
26660WAT     H280223   3.393   3.730   8.375
26661WAT      O80224   1.444   5.478   4.812
26661WAT     H180225   1.399   5.514   4.895
26661WAT     H280226   1.375   5.467   4.740
26662WAT      O80227   4.950   8.419   5.653
26662WAT     H180228   4.875   8.395   5.592
26662WAT     H280229   4.948   8.359   5.733
26663WAT      O80230   0.456   3.832   6.397
26663WAT     H180231   0.456   3.732   6.389
26663WAT     H280232   0.384   3.870   6.339
26664WAT      O80233   7.299   7.670   2.983
26664WAT     H180234   7.377   7.674   2.921
26664WAT     H280235   7.326   7.710   3.071
26665WAT      O80236   0.862   5.948   4.044
26665WAT     H180237   0.806   5.866   4.031
26665WAT     H280238   0.897   5.979   3.956
26666WAT      O80239   6.945   6.827   8.556
26666WAT     H180240   7.000   6.745   8.572
26666WAT     H280241   6.965   6.863   8.465
26667WAT      O80242   0.069   2.665   5.365
26667WAT     H180243   0.014   2.742   5.395
26667WAT     H280244   0.049   2.585   5.422
26668WAT      O80245   4.138   2.905   3.070
26668WAT     H180246   4.076   2.928   2.994
26668WAT     H280247   4.230   2.892   3.035
26669WAT      O80248   6.894   6.875   3.563
26669WAT     H180249   6.799   6.886   3.592
26669WAT     H280250   6.949   6.952   3.596
26670WAT      O80251   3.940   2.606   6.540
26670WAT     H180252   3.893   2.682   6.495
26670WAT     H280253   3.872   2.543   6.578
26671WAT      O80254   1.345   8.922   0.452
26671WAT     H180255   1.342   8.845   0.516
26671WAT     H280256   1.440   8.947   0.435
26672WAT      O80257   8.580   1.914   3.589
26672WAT     H180258   8.573   1.996   3.531
26672WAT     H280259   8.489   1.876   3.604
26673WAT      O80260   6.380   5.541   0.680
26673WAT     H180261   6.415   5.468   0.738
26673WAT     H280262   6.280   5.544   0.685
26674WAT      O80263   9.880   1.597   2.582
26674WAT     H180264   9.841   1.674   2.531
26674WAT     H280265   9.963   1.565   2.536
26675WAT      O80266   1.466   9.593   1.528
26675WAT     H180267   1.499   9.662   1.592
26675WAT     H280268   1.367   9.581   1.538
26676WAT      O80269   5.699   4.953   6.752
26676WAT     H180270   5.634   4.900   6.698
26676WAT     H280271   5.654   5.037   6.785
26677WAT      O80272   2.666   5.583   3.646
26677WAT     H180273   2.743   5.619   3.594
26677WAT     H280274   2.580   5.607   3.600
26678WAT      O80275   7.735   8.803   6.104
26678WAT     H180276   7.768   8.846   6.188
26678WAT     H280277   7.703   8.710   6.125
26679WAT      O80278   3.887   0.535   4.383
26679WAT     H180279   3.928   0.542   4.292
26679WAT     H280280   3.863   0.440   4.401
26680WAT      O80281   2.580   6.765   7.875
26680WAT     H180282   2.533   6.847   7.907
26680WAT     H280283   2.632   6.725   7.950
26681WAT      O80284   6.610   7.014   5.742
26681WAT     H180285   6.701   7.045   5.715
26681WAT     H280286   6.541   7.075   5.704
26682WAT      O80287   2.777   5.325   5.141
26682WAT     H180288   2.874   5.320   5.165
26682WAT     H280289   2.769   5.351   5.044
26683WAT      O80290   4.205   6.057   0.979
26683WAT     H180291   4.277   6.070   1.047
26683WAT     H280292   4.240   6.077   0.888
26684WAT      O80293   8.457   1.494   4.089
26684WAT     H180294   8.501   1.569   4.039
26684WAT     H280295   8.468   1.409   4.038
26685WAT      O80296   6.797   3.306   8.934
26685WAT     H180297   6.880   3.351   8.901
26685WAT     H280298   6.784   3.220   8.885
26686WAT      O80299   3.773   9.408   8.426
26686WAT     H180300   3.797   9.493   8.472
26686WAT     H280301   3.714   9.352   8.485
26687WAT      O80302   7.189   8.656   5.399
26687WAT     H180303   7.092   8.666   5.417
26687WAT     H280304   7.241   8.670   5.483
26688WAT      O80305   1.772   6.847   8.213
26688WAT     H180306   1.712   6.776   8.175
26688WAT     H280307   1.866   6.830   8.183
26689WAT      O80308   1.376   7.666   8.253
26689WAT     H180309   1.439   7.624   8.317
26689WAT     H280310   1.424   7.733   8.197
26690WAT      O80311   7.926   5.540   0.081
26690WAT     H180312   7.842   5.566   0.129
26690WAT     H280313   7.926   5.442   0.064
26691WAT      O80314   4.677   7.706   5.807
26691WAT     H180315   4.591   7.711   5.859
26691WAT     H280316   4.667   7.641   5.732
26692WAT      O80317   8.544   1.315   4.741
26692WAT     H180318   8.520   1.257   4.819
26692WAT     H280319   8.516   1.271   4.656
26693WAT      O80320   4.678   2.484   5.412
26693WAT     H180321   4.709   2.550   5.344
26693WAT     H280322   4.587   2.509   5.444
26694WAT      O80323   9.377   8.769   9.201
26694WAT     H180324   9.379   8.703   9.126
26694WAT     H280325   9.468   8.777   9.240
26695WAT      O80326   9.229   4.461   5.792
26695WAT     H180327   9.329   4.464   5.780
26695WAT     H280328   9.208   4.442   5.888
26696WAT      O80329   2.734   1.362   0.283
26696WAT     H180330   2.785   1.428   0.228
26696WAT     H280331   2.689   1.410   0.359
26697WAT      O80332   6.927   3.773   7.083
26697WAT     H180333   6.888   3.816   7.164
26697WAT     H280334   6.987   3.697   7.111
26698WAT      O80335   2.280   6.284   4.499
26698WAT     H180336   2.350   6.245   4.559
26698WAT     H280337   2.240   6.211   4.444
26699WAT      O80338   3.848   6.896   0.582
26699WAT     H180339   3.874   6.869   0.675
26699WAT     H280340   3.909   6.851   0.516
26700WAT      O80341   1.154   5.356   0.285
26700WAT     H180342   1.153   5.407   0.199
26700WAT     H280343   1.113   5.411   0.358
26701WAT      O80344   6.120   3.575   1.373
26701WAT     H180345   6.057   3.606   1.302
26701WAT     H280346   6.086   3.491   1.414
26702WAT      O80347   9.817   5.171   8.251
26702WAT     H180348   9.724   5.192   8.282
26702WAT     H280349   9.829   5.072   8.247
26703WAT      O80350   8.675   6.861   2.584
26703WAT     H180351   8.655   6.949   2.627
26703WAT     H280352   8.653   6.787   2.647
26704WAT      O80353   4.726   0.657   5.427
26704WAT     H180354   4.761   0.751   5.431
26704WAT     H280355   4.792   0.595   5.470
26705WAT      O80356   8.744   3.263   9.440
26705WAT     H180357   8.803   3.210   9.500
26705WAT     H280358   8.743   3.359   9.469
26706WAT      O80359   9.147   6.175   3.792
26706WAT     H180360   9.206   6.253   3.810
26706WAT     H280361   9.081   6.199   3.720
26707WAT      O80362   7.849   2.028   7.131
26707WAT     H180363   7.865   2.043   7.034
26707WAT     H280364   7.891   2.102   7.184
26708WAT      O80365   2.331   6.884   3.092
26708WAT     H180366   2.349   6.821   3.016
26708WAT     H280367   2.417   6.911   3.135
26709WAT      O80368   8.148   8.722   4.185
26709WAT     H180369   8.056   8.689   4.162
26709WAT     H280370   8.147   8.765   4.275
26710WAT      O80371   9.679   8.580   8.636
26710WAT     H180372   9.622   8.500   8.615
26710WAT     H280373   9.763   8.576   8.582
26711WAT      O80374   8.881   7.194   5.467
26711WAT     H180375   8.951   7.265   5.463
26711WAT     H280376   8.888   7.135   5.386
26712WAT      O80377   4.404   3.402   9.603
26712WAT     H180378   4.476   3.334   9.616
26712WAT     H280379   4.418   3.478   9.666
26713WAT      O80380   9.453   9.389   3.881
26713WAT     H180381   9.412   9.473   3.846
26713WAT     H280382   9.386   9.315   3.875
26714WAT      O80383   9.130   3.024   8.370
26714WAT     H180384   9.139   2.988   8.277
26714WAT     H280385   9.097   3.118   8.366
26715WAT      O80386   3.770   3.891   1.201
26715WAT     H180387   3.853   3.888   1.257
26715WAT     H280388   3.709   3.817   1.228
26716WAT      O80389   8.461   5.767   1.234
26716WAT     H180390   8.450   5.692   1.299
26716WAT     H280391   8.382   5.770   1.173
26717WAT      O80392   0.564   1.048   0.740
26717WAT     H180393   0.631   1.030   0.812
26717WAT     H280394   0.612   1.075   0.657
26718WAT      O80395   3.019   9.431   6.229
26718WAT     H180396   3.031   9.346   6.281
26718WAT     H280397   2.922   9.445   6.212
26719WAT      O80398   8.828   1.217   4.072
26719WAT     H180399   8.925   1.222   4.097
26719WAT     H280400   8.799   1.305   4.035
26720WAT      O80401   7.015   4.187   6.983
26720WAT     H180402   7.037   4.284   6.982
26720WAT     H280403   7.036   4.149   7.073
26721WAT      O80404   4.029   5.304   1.845
26721WAT     H180405   4.097   5.325   1.775
26721WAT     H280406   3.985   5.389   1.875
26722WAT      O80407   7.932   7.315   6.221
26722WAT     H180408   7.925   7.221   6.188
26722WAT     H280409   7.921   7.317   6.321
26723WAT      O80410   6.533   1.814   7.109
26723WAT     H180411   6.568   1.803   7.016
26723WAT     H280412   6.437   1.842   7.105
26724WAT      O80413   1.552   7.827   2.970
26724WAT     H180414   1.641   7.781   2.964
26724WAT     H280415   1.500   7.789   3.046
26725WAT      O80416   7.229   5.161   5.564
26725WAT     H180417   7.243   5.141   5.467
26725WAT     H280418   7.309   5.210   5.600
26726WAT      O80419   7.561   2.760   1.488
26726WAT     H180420   7.528   2.668   1.507
26726WAT     H280421   7.604   2.763   1.398
26727WAT      O80422   2.423   7.680   6.571
26727WAT     H180423   2.327   7.651   6.577
26727WAT     H280424   2.436   7.735   6.489
26728WAT      O80425   3.627   0.613   4.395
26728WAT     H180426   3.605   0.521   4.363
26728WAT     H280427   3.726   0.623   4.401
26729WAT      O80428   3.770   7.160   9.554
26729WAT     H180429   3.769   7.164   9.454
26729WAT     H280430   3.841   7.222   9.589
26730WAT      O80431   1.950   1.605   4.126
26730WAT     H180432   1.967   1.507   4.133
26730WAT     H280433   1.874   1.621   4.064
26731WAT      O80434   1.733   9.426   2.370
26731WAT     H180435   1.699   9.426   2.464
26731WAT     H280436   1.655   9.424   2.307
26732WAT      O80437   6.743   7.656   0.294
26732WAT     H180438   6.755   7.741   0.243
26732WAT     H280439   6.761   7.672   0.391
26733WAT      O80440   5.004   2.090   4.638
26733WAT     H180441   5.075   2.052   4.578
26733WAT     H280442   4.914   2.064   4.604
26734WAT      O80443   1.384   2.314   1.840
26734WAT     H180444   1.320   2.273   1.905
26734WAT     H280445   1.376   2.268   1.752
26735WAT      O80446   3.837   2.793   8.877
26735WAT     H180447   3.741   2.822   8.875
26735WAT     H280448   3.865   2.763   8.786
26736WAT      O80449   3.141   4.292   5.809
26736WAT     H180450   3.206   4.362   5.779
26736WAT     H280451   3.191   4.215   5.849
26737WAT      O80452   5.030   0.950   9.341
26737WAT     H180453   5.112   0.894   9.358
26737WAT     H280454   4.961   0.929   9.410
26738WAT      O80455   1.379   4.882   3.907
26738WAT     H180456   1.407   4.817   3.836
26738WAT     H280457   1.298   4.932   3.876
26739WAT      O80458   4.367   8.082   1.777
26739WAT     H180459   4.348   8.153   1.845
26739WAT     H280460   4.448   8.107   1.724
26740WAT      O80461   7.721   1.840   9.786
26740WAT     H180462   7.682   1.917   9.836
26740WAT     H280463   7.729   1.863   9.689
26741WAT      O80464   1.444   2.265   9.117
26741WAT     H180465   1.521   2.224   9.069
26741WAT     H280466   1.477   2.308   9.201
26742WAT      O80467   4.087   6.150   0.113
26742WAT     H180468   3.987   6.150   0.123
26742WAT     H280469   4.124   6.237   0.145
26743WAT      O80470   6.617   9.732   9.672
26743WAT     H180471   6.651   9.722   9.765
26743WAT     H280472   6.533   9.786   9.673
26744WAT      O80473   8.777   8.446   3.332
26744WAT     H180474   8.843   8.519   3.311
26744WAT     H280475   8.819   8.380   3.394
26745WAT      O80476   3.162   1.173   9.645
26745WAT     H180477   3.173   1.154   9.548
26745WAT     H280478   3.087   1.238   9.658
26746WAT      O80479   3.530   6.607   0.458
26746WAT     H180480   3.620   6.563   0.468
26746WAT     H280481   3.535   6.700   0.495
26747WAT      O80482   7.917   3.391   2.588
26747WAT     H180483   7.998   3.431   2.545
26747WAT     H280484   7.840   3.455   2.581
26748WAT      O80485   2.976   4.689   7.029
26748WAT     H180486   2.893   4.742   7.016
26748WAT     H280487   2.952   4.593   7.046
26749WAT      O80488   7.843   6.247   3.367
26749WAT     H180489   7.897   6.268   3.286
26749WAT     H280490   7.868   6.156   3.401
26750WAT      O80491   6.701   7.491   1.942
26750WAT     H180492   6.605   7.497   1.914
26750WAT     H280493   6.758   7.545   1.879
26751WAT      O80494   3.807   1.921   8.746
26751WAT     H180495   3.839   1.842   8.694
26751WAT     H280496   3.823   1.905   8.843
26752WAT      O80497   8.730   9.535   8.719
26752WAT     H180498   8.661   9.524   8.791
26752WAT     H280499   8.821   9.533   8.760
26753WAT      O80500   3.844   8.365   0.610
26753WAT     H180501   3.902   8.348   0.532
26753WAT     H280502   3.825   8.280   0.658
26754WAT      O80503   9.141   4.974   9.482
26754WAT     H180504   9.079   5.029   9.425
26754WAT     H280505   9.090   4.898   9.522
26755WAT      O80506   9.473   2.947   1.490
26755WAT     H180507   9.482   3.025   1.428
26755WAT     H280508   9.527   2.870   1.456
26756WAT      O80509   1.523   1.808   0.430
26756WAT     H180510   1.587   1.865   0.481
26756WAT     H280511   1.567   1.774   0.347
26757WAT      O80512   0.141   3.987   7.786
26757WAT     H180513   0.239   3.985   7.806
26757WAT     H280514   0.094   4.048   7.851
26758WAT      O80515   7.459   5.370   5.907
26758WAT     H180516   7.529   5.384   5.978
26758WAT     H280517   7.402   5.292   5.932
26759WAT      O80518   5.978   6.864   8.026
26759WAT     H180519   5.943   6.902   8.112
26759WAT     H280520   5.916   6.887   7.951
26760WAT      O80521   8.097   0.464   2.881
26760WAT     H180522   8.043   0.461   2.965
26760WAT     H280523   8.134   0.373   2.862
26761WAT      O80524   4.849   6.053   7.496
26761WAT     H180525   4.872   6.030   7.401
26761WAT     H280526   4.757   6.020   7.517
26762WAT      O80527   6.102   3.885   5.094
26762WAT     H180528   6.031   3.922   5.155
26762WAT     H280529   6.192   3.909   5.129
26763WAT      O80530   6.939   6.099   6.184
26763WAT     H180531   6.958   6.196   6.170
26763WAT     H280532   6.887   6.064   6.106
26764WAT      O80533   2.584   1.716   3.708
26764WAT     H180534   2.500   1.720   3.763
26764WAT     H280535   2.561   1.688   3.615
26765WAT      O80536   0.137   7.693   2.147
26765WAT     H180537   0.051   7.735   2.175
26765WAT     H280538   0.126   7.653   2.056
26766WAT      O80539   3.630   2.820   5.388
26766WAT     H180540   3.702   2.805   5.321
26766WAT     H280541   3.570   2.740   5.390
26767WAT      O80542   0.839   7.420   5.312
26767WAT     H180543   0.744   7.445   5.332
26767WAT     H280544   0.847   7.321   5.303
26768WAT      O80545   0.338   4.340   1.717
26768WAT     H180546   0.259   4.396   1.741
26768WAT     H280547   0.313   4.243   1.720
26769WAT      O80548   5.903   2.028   6.605
26769WAT     H180549   5.915   1.955   6.673
26769WAT     H280550   5.877   1.988   6.518
26770WAT      O80551   5.749   7.076   5.917
26770WAT     H180552   5.684   7.068   5.841
26770WAT     H280553   5.775   6.984   5.948
26771WAT      O80554   3.062   9.783   2.091
26771WAT     H180555   3.023   9.704   2.137
26771WAT     H280556   3.090   9.758   1.998
26772WAT      O80557   0.385   2.022   3.740
26772WAT     H180558   0.468   1.966   3.735
26772WAT     H280559   0.391   2.096   3.673
26773WAT      O80560   8.521   7.593   3.890
26773WAT     H180561   8.479   7.683   3.900
26773WAT     H280562   8.614   7.596   3.927
26774WAT      O80563   0.946   4.972   6.772
26774WAT     H180564   0.935   4.874   6.753
26774WAT     H280565   0.922   4.991   6.867
26775WAT      O80566   4.560   3.848   3.878
26775WAT     H180567   4.503   3.875   3.956
26775WAT     H280568   4.575   3.749   3.882
26776WAT      O80569   8.301   4.195   6.400
26776WAT     H180570   8.388   4.182   6.448
26776WAT     H280571   8.318   4.218   6.305
26777WAT      O80572   9.019   0.815   4.034
26777WAT     H180573   8.996   0.862   4.119
26777WAT     H280574   9.093   0.750   4.051
26778WAT      O80575   6.091   3.546   3.641
26778WAT     H180576   6.068   3.475   3.574
26778WAT     H280577   6.007   3.589   3.674
26779WAT      O80578   8.093   5.978   2.243
26779WAT     H180579   8.093   5.878   2.246
26779WAT     H280580   8.125   6.009   2.154
26780WAT      O80581   3.399   4.111   7.172
26780WAT     H180582   3.457   4.175   7.222
26780WAT     H280583   3.303   4.133   7.189
26781WAT      O80584   1.207   9.111   8.466
26781WAT     H180585   1.244   9.193   8.421
26781WAT     H280586   1.108   9.106   8.450
26782WAT      O80587   9.797   5.808   5.676
26782WAT     H180588   9.770   5.903   5.664
26782WAT     H280589   9.715   5.750   5.680
26783WAT      O80590   2.242   2.796   4.270
26783WAT     H180591   2.323   2.823   4.322
26783WAT     H280592   2.188   2.877   4.247
26784WAT      O80593   8.889   0.460   4.851
26784WAT     H180594   8.801   0.433   4.812
26784WAT     H280595   8.918   0.392   4.918
26785WAT      O80596   8.467   7.846   0.437
26785WAT     H180597   8.542   7.783   0.459
26785WAT     H280598   8.382   7.795   0.425
26786WAT      O80599   2.546   8.667   7.869
26786WAT     H180600   2.534   8.569   7.885
26786WAT     H280601   2.608   8.681   7.792
26787WAT      O80602   7.604   8.841   4.599
26787WAT     H180603   7.678   8.847   4.666
26787WAT     H280604   7.518   8.824   4.645
26788WAT      O80605   5.379   0.756   4.712
26788WAT     H180606   5.465   0.727   4.755
26788WAT     H280607   5.360   0.699   4.632
26789WAT      O80608   3.168   8.620   2.711
26789WAT     H180609   3.220   8.642   2.793
26789WAT     H280610   3.168   8.699   2.649
26790WAT      O80611   7.679   6.515   5.150
26790WAT     H180612   7.583   6.520   5.123
26790WAT     H280613   7.688   6.458   5.232
26791WAT      O80614   5.419   1.484   9.627
26791WAT     H180615   5.334   1.491   9.678
26791WAT     H280616   5.407   1.523   9.536
26792WAT      O80617   5.117   5.004   8.650
26792WAT     H180618   5.153   5.094   8.628
26792WAT     H280619   5.100   4.998   8.749
26793WAT      O80620   8.244   7.980   4.503
26793WAT     H180621   8.318   8.006   4.441
26793WAT     H280622   8.200   8.062   4.539
26794WAT      O80623   8.639   4.613   5.140
26794WAT     H180624   8.595   4.693   5.181
26794WAT     H280625   8.615   4.607   5.043
26795WAT      O80626   8.482   7.063   9.109
26795WAT     H180627   8.385   7.049   9.128
26795WAT     H280628   8.493   7.092   9.014
26796WAT      O80629   1.629   1.992   4.158
26796WAT     H180630   1.628   1.892   4.149
26796WAT     H280631   1.713   2.028   4.118
26797WAT      O80632   5.269   4.437   7.355
26797WAT     H180633   5.356   4.448   7.307
26797WAT     H280634   5.258   4.342   7.383
26798WAT      O80635   8.901   7.294   4.882
26798WAT     H180636   8.842   7.293   4.801
26798WAT     H280637   8.979   7.354   4.865
26799WAT      O80638   6.907   9.549   1.090
26799WAT     H180639   6.840   9.477   1.072
26799WAT     H280640   6.876   9.604   1.168
26800WAT      O80641   4.255   6.406   2.269
26800WAT     H180642   4.295   6.465   2.198
26800WAT     H280643   4.174   6.361   2.233
26801WAT      O80644   7.556   4.298   0.966
26801WAT     H180645   7.635   4.282   0.907
26801WAT     H280646   7.551   4.395   0.990
26802WAT      O80647   0.614   7.255   1.372
26802WAT     H180648   0.693   7.199   1.345
26802WAT     H280649   0.634   7.301   1.458
26803WAT      O80650   9.594   5.647   2.962
26803WAT     H180651   9.574   5.642   2.864
26803WAT     H280652   9.514   5.615   3.014
26804WAT      O80653   6.778   3.444   8.627
26804WAT     H180654   6.868   3.421   8.666
26804WAT     H280655   6.740   3.363   8.583
26805WAT      O80656   1.109   9.346   1.125
26805WAT     H180657   1.112   9.345   1.225
26805WAT     H280658   1.014   9.342   1.095
26806WAT      O80659   1.923   3.359   1.613
26806WAT     H180660   1.824   3.360   1.599
26806WAT     H280661   1.947   3.422   1.687
26807WAT      O80662   6.508   2.847   3.868
26807WAT     H180663   6.540   2.942   3.869
26807WAT     H280664   6.449   2.830   3.947
26808WAT      O80665   2.077   6.628   9.080
26808WAT     H180666   2.117   6.715   9.109
26808WAT     H280667   2.112   6.554   9.137
26809WAT      O80668   8.809   8.879   7.693
26809WAT     H180669   8.722   8.928   7.700
26809WAT     H280670   8.834   8.869   7.597
26810WAT      O80671   0.268   9.058   7.992
26810WAT     H180672   0.169   9.066   7.990
26810WAT     H280673   0.306   9.123   8.058
26811WAT      O80674   3.802   0.007   6.927
26811WAT     H180675   3.749  -0.077   6.940
26811WAT     H280676   3.752   0.085   6.964
26812WAT      O80677   6.050   0.840   6.659
26812WAT     H180678   6.098   0.903   6.720
26812WAT     H280679   6.013   0.764   6.712
26813WAT      O80680   8.413   0.286   7.627
26813WAT     H180681   8.421   0.385   7.642
26813WAT     H280682   8.493   0.253   7.576
26814WAT      O80683   5.453   5.176   8.670
26814WAT     H180684   5.491   5.090   8.637
26814WAT     H280685   5.483   5.250   8.610
26815WAT      O80686   7.741   1.924   8.335
26815WAT     H180687   7.656   1.951   8.380
26815WAT     H280688   7.749   1.971   8.247
26816WAT      O80689   7.022   3.719   0.509
26816WAT     H180690   6.972   3.801   0.481
26816WAT     H280691   7.014   3.706   0.608
26817WAT      O80692   1.257   6.770   5.613
26817WAT     H180693   1.354   6.793   5.622
26817WAT     H280694   1.208   6.847   5.573
26818WAT      O80695   8.051   8.096   9.015
26818WAT     H180696   8.077   8.188   8.985
26818WAT     H280697   8.103   8.028   8.963
26819WAT      O80698   0.885   5.761   7.285
26819WAT     H180699   0.822   5.839   7.289
26819WAT     H280700   0.867   5.700   7.362
26820WAT      O80701   0.841   8.207   1.839
26820WAT     H180702   0.839   8.240   1.933
26820WAT     H280703   0.885   8.118   1.836
26821WAT      O80704   9.215   9.268   5.222
26821WAT     H180705   9.237   9.363   5.241
26821WAT     H280706   9.277   9.233   5.151
26822WAT      O80707   9.513   6.752   3.103
26822WAT     H180708   9.427   6.734   3.152
26822WAT     H280709   9.518   6.848   3.078
26823WAT      O80710   2.924   7.350   2.485
26823WAT     H180711   2.888   7.257   2.482
26823WAT     H280712   2.924   7.389   2.393
26824WAT      O80713   3.451   8.895   9.270
26824WAT     H180714   3.459   8.825   9.199
26824WAT     H280715   3.404   8.856   9.349
26825WAT      O80716   2.887   2.069   6.939
26825WAT     H180717   2.924   2.160   6.921
26825WAT     H280718   2.787   2.075   6.944
26826WAT      O80719   8.887   8.940   5.695
26826WAT     H180720   8.977   8.923   5.735
26826WAT     H280721   8.890   9.025   5.642
26827WAT      O80722   9.834   7.282   8.866
26827WAT     H180723   9.872   7.370   8.896
26827WAT     H280724   9.873   7.258   8.777
26828WAT      O80725   4.072   1.870   7.952
26828WAT     H180726   4.038   1.778   7.934
26828WAT     H280727   4.112   1.908   7.868
26829WAT      O80728   4.429   5.982   0.206
26829WAT     H180729   4.351   5.921   0.216
26829WAT     H280730   4.492   5.946   0.137
26830WAT      O80731   0.141   4.679   6.036
26830WAT     H180732   0.215   4.626   6.078
26830WAT     H280733   0.135   4.655   5.939
26831WAT      O80734   8.370   2.450   8.628
26831WAT     H180735   8.343   2.455   8.724
26831WAT     H280736   8.303   2.501   8.572
26832WAT      O80737   6.219   1.427   0.319
26832WAT     H180738   6.257   1.519   0.332
26832WAT     H280739   6.129   1.422   0.362
26833WAT      O80740   1.074   9.547   6.246
26833WAT     H180741   1.026   9.583   6.166
26833WAT     H280742   1.142   9.613   6.277
26834WAT      O80743   6.140   4.535   7.594
26834WAT     H180744   6.059   4.513   7.540
26834WAT     H280745   6.169   4.629   7.575
26835WAT      O80746   1.691   3.139   4.100
26835WAT     H180747   1.611   3.151   4.160
26835WAT     H280748   1.696   3.214   4.035
26836WAT      O80749   1.579   4.237   6.068
26836WAT     H180750   1.659   4.296   6.076
26836WAT     H280751   1.581   4.189   5.981
26837WAT      O80752   6.685   3.854   4.870
26837WAT     H180753   6.618   3.913   4.914
26837WAT     H280754   6.769   3.851   4.926
26838WAT      O80755   3.254   4.988   3.789
26838WAT     H180756   3.287   4.899   3.818
26838WAT     H280757   3.200   5.029   3.862
26839WAT      O80758   8.677   6.828   1.983
26839WAT     H180759   8.765   6.796   1.948
26839WAT     H280760   8.622   6.749   2.010
26840WAT      O80761   7.193   5.422   1.452
26840WAT     H180762   7.116   5.384   1.503
26840WAT     H280763   7.228   5.354   1.388
26841WAT      O80764   5.143   4.843   0.561
26841WAT     H180765   5.220   4.895   0.525
26841WAT     H280766   5.074   4.906   0.597
26842WAT      O80767   0.186   3.759   7.662
26842WAT     H180768   0.150   3.834   7.717
26842WAT     H280769   0.168   3.778   7.565
26843WAT      O80770   8.152   4.510   2.177
26843WAT     H180771   8.082   4.548   2.117
26843WAT     H280772   8.111   4.443   2.238
26844WAT      O80773   5.269   0.218   7.415
26844WAT     H180774   5.197   0.150   7.427
26844WAT     H280775   5.236   0.307   7.445
26845WAT      O80776   2.842   9.314   2.032
26845WAT     H180777   2.854   9.253   2.110
26845WAT     H280778   2.748   9.306   1.997
26846WAT      O80779   3.258   5.618   2.070
26846WAT     H180780   3.234   5.704   2.116
26846WAT     H280781   3.310   5.638   1.987
26847WAT      O80782   7.702   4.268   2.541
26847WAT     H180783   7.719   4.172   2.518
26847WAT     H280784   7.607   4.279   2.571
26848WAT      O80785   4.472   2.472   9.866
26848WAT     H180786   4.471   2.407   9.942
26848WAT     H280787   4.380   2.511   9.855
26849WAT      O80788   0.244   1.763   2.273
26849WAT     H180789   0.343   1.776   2.277
26849WAT     H280790   0.214   1.761   2.177
26850WAT      O80791   6.935   7.845   6.181
26850WAT     H180792   7.035   7.850   6.175
26850WAT     H280793   6.895   7.909   6.116
26851WAT      O80794   2.943   2.389   4.525
26851WAT     H180795   2.953   2.343   4.437
26851WAT     H280796   2.871   2.343   4.578
26852WAT      O80797   6.488   8.150   3.266
26852WAT     H180798   6.551   8.097   3.208
26852WAT     H280799   6.395   8.118   3.252
26853WAT      O80800   1.621   7.104   3.946
26853WAT     H180801   1.564   7.035   3.902
26853WAT     H280802   1.633   7.182   3.884
26854WAT      O80803   8.638   3.374   4.204
26854WAT     H180804   8.687   3.461   4.212
26854WAT     H280805   8.560   3.385   4.142
26855WAT      O80806   5.376   8.550   5.995
26855WAT     H180807   5.434   8.630   5.980
26855WAT     H280808   5.428   8.480   6.044
26856WAT      O80809   5.490   8.300   6.077
26856WAT     H180810   5.563   8.305   6.146
26856WAT     H280811   5.430   8.223   6.098
26857WAT      O80812   4.952   9.331   5.965
26857WAT     H180813   5.021   9.310   6.034
26857WAT     H280814   4.949   9.429   5.949
26858WAT      O80815   2.027   8.272   1.618
26858WAT     H180816   2.049   8.260   1.521
26858WAT     H280817   2.112   8.273   1.671
26859WAT      O80818   7.006   4.051   6.583
26859WAT     H180819   7.103   4.044   6.563
26859WAT     H280820   6.982   3.986   6.656
26860WAT      O80821   4.029   4.681   5.227
26860WAT     H180822   4.071   4.698   5.316
26860WAT     H280823   3.985   4.765   5.194
26861WAT      O80824   7.710   1.380   1.502
26861WAT     H180825   7.702   1.328   1.417
26861WAT     H280826   7.619   1.401   1.537
26862WAT      O80827   7.493   3.559   8.137
26862WAT     H180828   7.533   3.479   8.180
26862WAT     H280829   7.543   3.579   8.052
26863WAT      O80830   4.409   3.542   9.837
26863WAT     H180831   4.335   3.543   9.904
26863WAT     H280832   4.483   3.484   9.871
26864WAT      O80833   2.547   2.302   3.469
26864WAT     H180834   2.495   2.370   3.520
26864WAT     H280835   2.484   2.247   3.413
26865WAT      O80836   1.135   7.026   6.051
26865WAT     H180837   1.189   7.109   6.035
26865WAT     H280838   1.097   6.994   5.964
26866WAT      O80839   3.014   5.481   5.594
26866WAT     H180840   3.060   5.565   5.563
26866WAT     H280841   3.061   5.402   5.555
26867WAT      O80842   2.635   1.931   4.838
26867WAT     H180843   2.581   1.848   4.824
26867WAT     H280844   2.671   1.931   4.932
26868WAT      O80845   2.233   1.527   1.318
26868WAT     H180846   2.248   1.444   1.371
26868WAT     H280847   2.317   1.550   1.268
26869WAT      O80848   3.971   5.330   5.362
26869WAT     H180849   3.918   5.248   5.338
26869WAT     H280850   4.061   5.324   5.320
26870WAT      O80851   1.447   7.629   6.336
26870WAT     H180852   1.398   7.617   6.250
26870WAT     H280853   1.466   7.539   6.376
26871WAT      O80854   8.800   5.169   3.583
26871WAT     H180855   8.750   5.254   3.599
26871WAT     H280856   8.773   5.102   3.652
26872WAT      O80857   4.000   0.082   7.709
26872WAT     H180858   3.994  -0.014   7.736
26872WAT     H280859   4.095   0.112   7.713
26873WAT      O80860   2.414   8.752   3.761
26873WAT     H180861   2.431   8.654   3.762
26873WAT     H280862   2.419   8.786   3.667
26874WAT      O80863   4.520   4.127   3.471
26874WAT     H180864   4.496   4.070   3.392
26874WAT     H280865   4.599   4.184   3.447
26875WAT      O80866   3.074   5.394   3.516
26875WAT     H180867   3.169   5.407   3.488
26875WAT     H280868   3.071   5.343   3.601
26876WAT      O80869   0.171   5.793   0.446
26876WAT     H180870   0.252   5.799   0.503
26876WAT     H280871   0.140   5.698   0.442
26877WAT      O80872   2.466   3.441   0.766
26877WAT     H180873   2.512   3.451   0.677
26877WAT     H280874   2.509   3.367   0.817
26878WAT      O80875   3.712   4.167   2.716
26878WAT     H180876   3.643   4.163   2.644
26878WAT     H280877   3.681   4.112   2.794
26879WAT      O80878   1.840   7.726   3.211
26879WAT     H180879   1.834   7.705   3.113
26879WAT     H280880   1.923   7.778   3.229
26880WAT      O80881   0.824   4.263   7.398
26880WAT     H180882   0.750   4.325   7.373
26880WAT     H280883   0.875   4.236   7.316
26881WAT      O80884   0.224   1.082   2.117
26881WAT     H180885   0.303   1.081   2.055
26881WAT     H280886   0.145   1.040   2.072
26882WAT      O80887   4.344   4.711   3.919
26882WAT     H180888   4.436   4.691   3.952
26882WAT     H280889   4.293   4.625   3.907
26883WAT      O80890   3.877   4.862   2.443
26883WAT     H180891   3.894   4.831   2.350
26883WAT     H280892   3.805   4.932   2.442
26884WAT      O80893   1.204   6.658   8.741
26884WAT     H180894   1.281   6.679   8.801
26884WAT     H280895   1.184   6.561   8.746
26885WAT      O80896   4.488   4.531   4.423
26885WAT     H180897   4.540   4.601   4.373
26885WAT     H280898   4.550   4.472   4.473
26886WAT      O80899   9.813   9.842   3.300
26886WAT     H180900   9.783   9.769   3.239
26886WAT     H280901   9.818   9.808   3.394
26887WAT      O80902   1.069   9.389   1.405
26887WAT     H180903   1.057   9.295   1.434
26887WAT     H280904   0.997   9.446   1.445
26888WAT      O80905   8.606   7.511   6.119
26888WAT     H180906   8.690   7.546   6.161
26888WAT     H280907   8.551   7.465   6.189
26889WAT      O80908   1.292   1.731   6.803
26889WAT     H180909   1.345   1.814   6.789
26889WAT     H280910   1.348   1.651   6.779
26890WAT      O80911   0.711   2.621   8.498
26890WAT     H180912   0.670   2.678   8.426
26890WAT     H280913   0.677   2.528   8.490
26891WAT      O80914   7.397   5.834   6.524
26891WAT     H180915   7.360   5.799   6.438
26891WAT     H280916   7.495   5.813   6.529
26892WAT      O80917   0.484   0.979   6.578
26892WAT     H180918   0.441   1.065   6.550
26892WAT     H280919   0.555   0.998   6.645
26893WAT      O80920   2.563   5.052   8.700
26893WAT     H180921   2.524   5.125   8.644
26893WAT     H280922   2.601   5.091   8.784
26894WAT      O80923   2.477   4.379   4.703
26894WAT     H180924   2.403   4.413   4.762
26894WAT     H280925   2.524   4.304   4.749
26895WAT      O80926   3.815   5.695   5.046
26895WAT     H180927   3.748   5.750   4.996
26895WAT     H280928   3.769   5.614   5.083
26896WAT      O80929   3.050   7.815   6.452
26896WAT     H180930   3.127   7.873   6.478
26896WAT     H280931   2.964   7.858   6.479
26897WAT      O80932   2.580   2.116   8.744
26897WAT     H180933   2.553   2.020   8.741
26897WAT     H280934   2.509   2.169   8.790
26898WAT      O80935   4.174   0.399   5.596
26898WAT     H180936   4.196   0.359   5.685
26898WAT     H280937   4.129   0.331   5.539
26899WAT      O80938   2.129   8.239   6.594
26899WAT     H180939   2.205   8.237   6.659
26899WAT     H280940   2.133   8.158   6.535
26900WAT      O80941   1.766   2.186   0.022
26900WAT     H180942   1.776   2.087   0.013
26900WAT     H280943   1.852   2.227   0.052
26901WAT      O80944   0.216   2.362   6.161
26901WAT     H180945   0.176   2.314   6.083
26901WAT     H280946   0.186   2.458   6.160
26902WAT      O80947   2.133   0.709   0.287
26902WAT     H180948   2.151   0.660   0.202
26902WAT     H280949   2.213   0.705   0.347
26903WAT      O80950   8.154   9.804   3.496
26903WAT     H180951   8.157   9.765   3.588
26903WAT     H280952   8.067   9.778   3.453
26904WAT      O80953   9.677   4.949   0.272
26904WAT     H180954   9.650   5.017   0.204
26904WAT     H280955   9.646   4.859   0.243
26905WAT      O80956   0.628   3.488   9.240
26905WAT     H180957   0.663   3.571   9.195
26905WAT     H280958   0.701   3.445   9.292
26906WAT      O80959   8.540   1.751   4.710
26906WAT     H180960   8.468   1.687   4.735
26906WAT     H280961   8.617   1.700   4.672
26907WAT      O80962   1.018   2.803   6.995
26907WAT     H180963   0.924   2.833   6.975
26907WAT     H280964   1.082   2.849   6.934
26908WAT      O80965   5.264   3.457   0.543
26908WAT     H180966   5.277   3.359   0.528
26908WAT     H280967   5.309   3.508   0.471
26909WAT      O80968   7.208   2.684   5.874
26909WAT     H180969   7.157   2.770   5.870
26909WAT     H280970   7.301   2.699   5.841
26910WAT      O80971   8.387   9.555   9.069
26910WAT     H180972   8.382   9.506   9.156
26910WAT     H280973   8.381   9.654   9.086
26911WAT      O80974   4.869   8.491   5.231
26911WAT     H180975   4.851   8.554   5.306
26911WAT     H280976   4.800   8.502   5.160
26912WAT      O80977   5.124   4.502   7.625
26912WAT     H180978   5.169   4.549   7.549
26912WAT     H280979   5.073   4.568   7.680
26913WAT      O80980   1.803   6.605   5.207
26913WAT     H180981   1.807   6.644   5.115
26913WAT     H280982   1.758   6.669   5.269
26914WAT      O80983   0.146   6.557   2.714
26914WAT     H180984   0.053   6.584   2.741
26914WAT     H280985   0.205   6.638   2.710
26915WAT      O80986   1.088   6.304   5.584
26915WAT     H180987   1.093   6.378   5.518
26915WAT     H280988   1.174   6.253   5.583
26916WAT      O80989   8.798   8.024   5.166
26916WAT     H180990   8.775   8.074   5.250
26916WAT     H280991   8.741   7.942   5.159
26917WAT      O80992   7.489   4.616   2.234
26917WAT     H180993   7.445   4.530   2.260
26917WAT     H280994   7.551   4.601   2.157
26918WAT      O80995   6.024   7.856   9.546
26918WAT     H180996   5.968   7.899   9.475
26918WAT     H280997   6.055   7.766   9.515
26919WAT      O80998   5.955   2.276   8.786
26919WAT     H180999   6.048   2.295   8.817
26919WAT     H281000   5.953   2.264   8.687
26920WAT      O81001   2.223   7.632   0.130
26920WAT     H181002   2.247   7.553   0.187
26920WAT     H281003   2.133   7.619   0.091
26921WAT      O81004   3.335   0.129   6.824
26921WAT     H181005   3.327   0.154   6.921
26921WAT     H281006   3.408   0.182   6.783
26922WAT      O81007   1.692   5.044   3.803
26922WAT     H181008   1.757   5.008   3.871
26922WAT     H281009   1.636   5.115   3.845
26923WAT      O81010   2.484   1.349   0.132
26923WAT     H181011   2.559   1.401   0.090
26923WAT     H281012   2.481   1.368   0.230
26924WAT      O81013   6.826   7.265   7.171
26924WAT     H181014   6.913   7.224   7.142
26924WAT     H281015   6.825   7.362   7.148
26925WAT      O81016   8.299   5.078   3.073
26925WAT     H181017   8.288   5.043   2.979
26925WAT     H281018   8.216   5.127   3.099
26926WAT      O81019   9.091   0.865   8.343
26926WAT     H181020   9.092   0.788   8.280
26926WAT     H281021   9.008   0.861   8.399
26927WAT      O81022   8.170   7.756   8.641
26927WAT     H181023   8.164   7.840   8.695
26927WAT     H281024   8.150   7.777   8.545
26928WAT      O81025   1.705   2.156   8.543
26928WAT     H181026   1.625   2.151   8.602
26928WAT     H281027   1.681   2.125   8.451
26929WAT      O81028   1.737   0.773   5.270
26929WAT     H181029   1.767   0.753   5.176
26929WAT     H281030   1.687   0.859   5.270
26930WAT      O81031   7.823   3.400   9.133
26930WAT     H181032   7.773   3.417   9.048
26930WAT     H281033   7.836   3.486   9.182
26931WAT      O81034   6.999   1.236   8.972
26931WAT     H181035   6.950   1.307   8.920
26931WAT     H281036   6.998   1.260   9.069
26932WAT      O81037   0.906   8.513   1.091
26932WAT     H181038   0.851   8.431   1.073
26932WAT     H281039   0.888   8.545   1.184
26933WAT      O81040   4.501   1.052   5.118
26933WAT     H181041   4.555   0.990   5.061
26933WAT     H281042   4.405   1.047   5.091
26934WAT      O81043   2.339   2.470   9.335
26934WAT     H181044   2.352   2.536   9.261
26934WAT     H281045   2.327   2.519   9.422
26935WAT      O81046   6.159   9.696   1.284
26935WAT     H181047   6.100   9.760   1.234
26935WAT     H281048   6.240   9.744   1.318
26936WAT      O81049   6.747   3.052   1.004
26936WAT     H181050   6.647   3.046   1.002
26936WAT     H281051   6.785   2.960   1.004
26937WAT      O81052   6.018   7.591   6.555
26937WAT     H181053   5.939   7.546   6.596
26937WAT     H281054   6.026   7.564   6.459
26938WAT      O81055   8.407   6.991   1.989
26938WAT     H181056   8.396   6.963   1.893
26938WAT     H281057   8.467   6.925   2.035
26939WAT      O81058   0.931   3.745   9.308
26939WAT     H181059   0.862   3.722   9.239
26939WAT     H281060   0.949   3.665   9.366
26940WAT      O81061   0.532   3.898   8.285
26940WAT     H181062   0.530   3.944   8.374
26940WAT     H281063   0.440   3.899   8.245
26941WAT      O81064   8.284   7.577   6.611
26941WAT     H181065   8.197   7.625   6.600
26941WAT     H281066   8.346   7.601   6.536
26942WAT      O81067   5.124   7.121   6.094
26942WAT     H181068   5.063   7.196   6.117
26942WAT     H281069   5.133   7.060   6.173
26943WAT      O81070   1.879   4.723   7.728
26943WAT     H181071   1.877   4.673   7.814
26943WAT     H281072   1.968   4.768   7.718
26944WAT      O81073   0.551   5.507   4.867
26944WAT     H181074   0.617   5.577   4.838
26944WAT     H281075   0.585   5.462   4.949
26945WAT      O81076   4.265   0.379   7.166
26945WAT     H181077   4.260   0.446   7.239
26945WAT     H281078   4.305   0.421   7.084
26946WAT      O81079   5.491   8.505   0.581
26946WAT     H181080   5.536   8.594   0.594
26946WAT     H281081   5.510   8.447   0.660
26947WAT      O81082   5.032   2.322   4.821
26947WAT     H181083   4.950   2.364   4.860
26947WAT     H281084   5.006   2.252   4.755
26948WAT      O81085   5.459   8.814   4.549
26948WAT     H181086   5.420   8.886   4.606
26948WAT     H281087   5.493   8.740   4.607
26949WAT      O81088   9.147   2.889   1.310
26949WAT     H181089   9.196   2.972   1.336
26949WAT     H281090   9.091   2.859   1.387
26950WAT      O81091   0.375   5.231   1.873
26950WAT     H181092   0.313   5.262   1.945
26950WAT     H281093   0.377   5.131   1.873
26951WAT      O81094   2.727   7.322   1.873
26951WAT     H181095   2.722   7.299   1.776
26951WAT     H281096   2.719   7.421   1.885
26952WAT      O81097   1.820   5.195   3.597
26952WAT     H181098   1.771   5.142   3.666
26952WAT     H281099   1.756   5.229   3.529
26953WAT      O81100   1.879   2.930   2.902
26953WAT     H181101   1.820   2.858   2.865
26953WAT     H281102   1.865   2.937   3.001
26954WAT      O81103   4.762   6.456   8.487
26954WAT     H181104   4.670   6.488   8.461
26954WAT     H281105   4.822   6.463   8.407
26955WAT      O81106   5.181   3.130   6.207
26955WAT     H181107   5.261   3.143   6.266
26955WAT     H281108   5.194   3.182   6.123
26956WAT      O81109   7.384   2.667   6.649
26956WAT     H181110   7.331   2.590   6.615
26956WAT     H281111   7.432   2.641   6.732
26957WAT      O81112   4.517   9.644   9.482
26957WAT     H181113   4.506   9.736   9.518
26957WAT     H281114   4.601   9.639   9.427
26958WAT      O81115   8.886   2.945   4.218
26958WAT     H181116   8.820   2.869   4.214
26958WAT     H281117   8.884   2.994   4.131
26959WAT      O81118   5.618   6.817   7.122
26959WAT     H181119   5.652   6.780   7.035
26959WAT     H281120   5.519   6.828   7.118
26960WAT      O81121   2.367   6.201   7.182
26960WAT     H181122   2.340   6.207   7.278
26960WAT     H281123   2.317   6.270   7.129
26961WAT      O81124   4.968   9.336   0.586
26961WAT     H181125   4.910   9.347   0.505
26961WAT     H281126   5.000   9.241   0.590
26962WAT      O81127   1.416   0.605   1.160
26962WAT     H181128   1.413   0.569   1.067
26962WAT     H281129   1.323   0.608   1.198
26963WAT      O81130   3.751   3.756   5.291
26963WAT     H181131   3.754   3.657   5.288
26963WAT     H281132   3.706   3.791   5.209
26964WAT      O81133   2.722   6.870   8.531
26964WAT     H181134   2.686   6.962   8.544
26964WAT     H281135   2.722   6.846   8.434
26965WAT      O81136   6.754   1.991   8.129
26965WAT     H181137   6.780   2.070   8.074
26965WAT     H281138   6.689   1.935   8.079
26966WAT      O81139   4.484   2.323   2.369
26966WAT     H181140   4.533   2.253   2.421
26966WAT     H281141   4.536   2.408   2.373
26967WAT      O81142   1.591   1.320   2.211
26967WAT     H181143   1.622   1.252   2.277
26967WAT     H281144   1.626   1.296   2.120
26968WAT      O81145   9.337   9.831   9.764
26968WAT     H181146   9.293   9.913   9.727
26968WAT     H281147   9.266   9.768   9.796
26969WAT      O81148   6.145   4.800   4.886
26969WAT     H181149   6.151   4.862   4.964
26969WAT     H281150   6.225   4.739   4.886
26970WAT      O81151   4.370   8.263   8.511
26970WAT     H181152   4.455   8.279   8.462
26970WAT     H281153   4.294   8.307   8.462
26971WAT      O81154   5.106   7.026   8.658
26971WAT     H181155   5.204   7.040   8.665
26971WAT     H281156   5.072   6.983   8.743
26972WAT      O81157   2.925   0.320   2.556
26972WAT     H181158   2.872   0.355   2.633
26972WAT     H281159   3.013   0.367   2.552
26973WAT      O81160   0.407   4.922   5.167
26973WAT     H181161   0.326   4.950   5.218
26973WAT     H281162   0.479   4.896   5.231
26974WAT      O81163   1.795   4.100   1.794
26974WAT     H181164   1.712   4.138   1.835
26974WAT     H281165   1.861   4.174   1.780
26975WAT      O81166   7.619   1.786   6.763
26975WAT     H181167   7.571   1.723   6.702
26975WAT     H281168   7.646   1.868   6.712
26976WAT      O81169   4.070   2.981   5.798
26976WAT     H181170   4.027   2.957   5.711
26976WAT     H281171   4.123   3.065   5.787
26977WAT      O81172   2.466   7.609   2.315
26977WAT     H181173   2.385   7.665   2.331
26977WAT     H281174   2.504   7.578   2.402
26978WAT      O81175   8.201   1.973   4.445
26978WAT     H181176   8.149   1.908   4.389
26978WAT     H281177   8.169   1.968   4.539
26979WAT      O81178   8.257   9.072   2.501
26979WAT     H181179   8.229   9.141   2.568
26979WAT     H281180   8.182   9.007   2.486
26980WAT      O81181   8.161   0.082   5.747
26980WAT     H181182   8.200   0.149   5.684
26980WAT     H281183   8.227   0.059   5.818
26981WAT      O81184   6.953   0.383   6.674
26981WAT     H181185   6.987   0.320   6.744
26981WAT     H281186   6.980   0.476   6.697
26982WAT      O81187   8.603   9.347   5.270
26982WAT     H181188   8.547   9.356   5.187
26982WAT     H281189   8.699   9.342   5.244
26983WAT      O81190   1.597   8.941   2.632
26983WAT     H181191   1.656   8.995   2.572
26983WAT     H281192   1.630   8.847   2.636
26984WAT      O81193   9.047   2.389   5.015
26984WAT     H181194   9.138   2.348   5.024
26984WAT     H281195   9.030   2.410   4.918
26985WAT      O81196   7.373   6.765   5.898
26985WAT     H181197   7.472   6.752   5.893
26985WAT     H281198   7.344   6.769   5.994
26986WAT      O81199   8.374   3.910   4.041
26986WAT     H181200   8.438   3.834   4.037
26986WAT     H281201   8.369   3.944   4.135
26987WAT      O81202   8.289   6.790   1.058
26987WAT     H181203   8.336   6.826   1.138
26987WAT     H281204   8.322   6.698   1.038
26988WAT      O81205   2.796   2.562   5.029
26988WAT     H181206   2.718   2.625   5.023
26988WAT     H281207   2.763   2.468   5.017
26989WAT      O81208   9.566   6.912   5.025
26989WAT     H181209   9.651   6.870   5.060
26989WAT     H281210   9.508   6.840   4.987
26990WAT      O81211   3.524   7.680   0.511
26990WAT     H181212   3.500   7.609   0.444
26990WAT     H281213   3.609   7.655   0.556
26991WAT      O81214   8.636   8.448   3.092
26991WAT     H181215   8.680   8.441   3.181
26991WAT     H281216   8.593   8.361   3.069
26992WAT      O81217   0.428   1.584   9.159
26992WAT     H181218   0.377   1.617   9.080
26992WAT     H281219   0.417   1.484   9.166
26993WAT      O81220   3.722   2.166   3.284
26993WAT     H181221   3.722   2.131   3.377
26993WAT     H281222   3.741   2.264   3.284
26994WAT      O81223   6.602   3.780   3.705
26994WAT     H181224   6.693   3.822   3.707
26994WAT     H281225   6.605   3.696   3.650
26995WAT      O81226   4.755   0.885   6.053
26995WAT     H181227   4.842   0.848   6.019
26995WAT     H281228   4.702   0.920   5.976
26996WAT      O81229   1.219   4.405   0.730
26996WAT     H181230   1.156   4.347   0.781
26996WAT     H281231   1.297   4.350   0.698
26997WAT      O81232   8.793   4.320   1.682
26997WAT     H181233   8.782   4.268   1.767
26997WAT     H281234   8.774   4.417   1.700
26998WAT      O81235   5.697   0.392   1.467
26998WAT     H181236   5.672   0.376   1.563
26998WAT     H281237   5.620   0.437   1.420
26999WAT      O81238   8.523   4.172   3.866
26999WAT     H181239   8.613   4.201   3.898
26999WAT     H281240   8.503   4.080   3.902
27000WAT      O81241   4.434   5.549   3.402
27000WAT     H181242   4.447   5.452   3.423
27000WAT     H281243   4.423   5.560   3.303
27001WAT      O81244   9.268   6.190   2.092
27001WAT     H181245   9.306   6.225   2.177
27001WAT     H281246   9.248   6.093   2.101
27002WAT      O81247   9.019   6.706   4.212
27002WAT     H181248   8.946   6.644   4.242
27002WAT     H281249   9.086   6.716   4.285
27003WAT      O81250   6.538   5.044   9.304
27003WAT     H181251   6.484   5.037   9.220
27003WAT     H281252   6.586   4.958   9.319
27004WAT      O81253   3.982   9.010   6.049
27004WAT     H181254   3.945   8.917   6.048
27004WAT     H281255   3.984   9.044   6.143
27005WAT      O81256   3.663   3.822   6.813
27005WAT     H181257   3.652   3.836   6.911
27005WAT     H281258   3.756   3.849   6.786
27006WAT      O81259   5.577   0.678   6.965
27006WAT     H181260   5.528   0.714   6.886
27006WAT     H281261   5.658   0.735   6.983
27007WAT      O81262   5.121   9.751   4.888
27007WAT     H181263   5.033   9.743   4.843
27007WAT     H281264   5.190   9.783   4.822
27008WAT      O81265   6.914   0.535   0.257
27008WAT     H181266   6.979   0.480   0.205
27008WAT     H281267   6.961   0.578   0.335
27009WAT      O81268   6.499   3.381   2.528
27009WAT     H181269   6.544   3.468   2.507
27009WAT     H281270   6.568   3.309   2.531
27010WAT      O81271   6.470   1.204   1.992
27010WAT     H181272   6.523   1.206   1.907
27010WAT     H281273   6.443   1.297   2.016
27011WAT      O81274   0.782   8.198   9.798
27011WAT     H181275   0.828   8.110   9.792
27011WAT     H281276   0.764   8.234   9.706
27012WAT      O81277   2.418   0.683   4.744
27012WAT     H181278   2.509   0.647   4.723
27012WAT     H281279   2.357   0.607   4.765
27013WAT      O81280   2.899   1.877   9.800
27013WAT     H181281   2.874   1.893   9.705
27013WAT     H281282   2.936   1.784   9.810
27014WAT      O81283   4.424   1.467   5.278
27014WAT     H181284   4.513   1.488   5.319
27014WAT     H281285   4.412   1.368   5.276
27015WAT      O81286   2.388   4.773   2.076
27015WAT     H181287   2.440   4.829   2.140
27015WAT     H281288   2.381   4.821   1.988
27016WAT      O81289   3.217   5.767   1.684
27016WAT     H181290   3.174   5.687   1.641
27016WAT     H281291   3.176   5.782   1.774
27017WAT      O81292   1.109   3.191   8.718
27017WAT     H181293   1.019   3.234   8.719
27017WAT     H281294   1.143   3.182   8.811
27018WAT      O81295   0.117   5.314   8.932
27018WAT     H181296   0.167   5.360   9.005
27018WAT     H281297   0.084   5.226   8.964
27019WAT      O81298   8.570   6.253   4.190
27019WAT     H181299   8.636   6.268   4.263
27019WAT     H281300   8.590   6.165   4.145
27020WAT      O81301   4.280   9.806   0.310
27020WAT     H181302   4.272   9.786   0.408
27020WAT     H281303   4.236   9.733   0.258
27021WAT      O81304   2.621   9.259   6.706
27021WAT     H181305   2.542   9.221   6.658
27021WAT     H281306   2.590   9.309   6.788
27022WAT      O81307   5.733   0.391   2.914
27022WAT     H181308   5.691   0.353   2.831
27022WAT     H281309   5.801   0.326   2.949
27023WAT      O81310   4.769   5.224   9.720
27023WAT     H181311   4.736   5.207   9.627
27023WAT     H281312   4.858   5.181   9.733
27024WAT      O81313   7.622   6.427   0.749
27024WAT     H181314   7.682   6.399   0.675
27024WAT     H281315   7.538   6.373   0.747
27025WAT      O81316   5.821   2.257   0.624
27025WAT     H181317   5.913   2.225   0.645
27025WAT     H281318   5.825   2.348   0.585
27026WAT      O81319   2.648   3.931   6.348
27026WAT     H181320   2.701   3.988   6.410
27026WAT     H281321   2.554   3.965   6.342
27027WAT      O81322   6.694   6.871   5.401
27027WAT     H181323   6.669   6.893   5.307
27027WAT     H281324   6.792   6.848   5.404
27028WAT      O81325   4.017   6.885   8.253
27028WAT     H181326   4.098   6.878   8.311
27028WAT     H281327   4.046   6.882   8.157
27029WAT      O81328   8.451   0.926   5.899
27029WAT     H181329   8.455   0.839   5.850
27029WAT     H281330   8.506   0.919   5.983
27030WAT      O81331   4.427   1.836   2.129
27030WAT     H181332   4.433   1.893   2.211
27030WAT     H281333   4.443   1.892   2.048
27031WAT      O81334   3.086   6.827   6.423
27031WAT     H181335   3.170   6.881   6.420
27031WAT     H281336   3.039   6.833   6.335
27032WAT      O81337   6.204   5.635   2.238
27032WAT     H181338   6.237   5.708   2.298
27032WAT     H281339   6.137   5.673   2.173
27033WAT      O81340   0.383   9.806   1.510
27033WAT     H181341   0.382   9.731   1.444
27033WAT     H281342   0.398   9.769   1.602
27034WAT      O81343   9.424   3.501   0.703
27034WAT     H181344   9.479   3.418   0.708
27034WAT     H281345   9.403   3.532   0.796
27035WAT      O81346   2.494   1.119   3.683
27035WAT     H181347   2.442   1.103   3.767
27035WAT     H281348   2.501   1.217   3.667
27036WAT      O81349   2.127   0.801   3.098
27036WAT     H181350   2.150   0.810   3.001
27036WAT     H281351   2.028   0.800   3.109
27037WAT      O81352   2.492   7.379   9.045
27037WAT     H181353   2.474   7.456   9.106
27037WAT     H281354   2.583   7.343   9.063
27038WAT      O81355   0.639   4.225   1.087
27038WAT     H181356   0.714   4.191   1.145
27038WAT     H281357   0.658   4.202   0.991
27039WAT      O81358   2.796   1.223   6.800
27039WAT     H181359   2.808   1.280   6.719
27039WAT     H281360   2.830   1.131   6.781
27040WAT      O81361   3.232   4.294   2.012
27040WAT     H181362   3.168   4.289   1.935
27040WAT     H281363   3.182   4.316   2.096
27041WAT      O81364   1.489   3.419   5.862
27041WAT     H181365   1.462   3.389   5.954
27041WAT     H281366   1.537   3.344   5.816
27042WAT      O81367   0.562   3.226   8.447
27042WAT     H181368   0.638   3.287   8.471
27042WAT     H281369   0.562   3.210   8.348
27043WAT      O81370   4.370   8.457   3.721
27043WAT     H181371   4.366   8.400   3.803
27043WAT     H281372   4.313   8.417   3.650
27044WAT      O81373   1.715   8.216   5.133
27044WAT     H181374   1.670   8.140   5.178
27044WAT     H281375   1.721   8.294   5.195
27045WAT      O81376   1.378   8.992   9.460
27045WAT     H181377   1.296   8.954   9.419
27045WAT     H281378   1.449   8.922   9.464
27046WAT      O81379   4.800   1.901   7.204
27046WAT     H181380   4.864   1.867   7.135
27046WAT     H281381   4.785   1.831   7.273
27047WAT      O81382   5.197   6.737   3.792
27047WAT     H181383   5.290   6.771   3.807
27047WAT     H281384   5.175   6.671   3.863
27048WAT      O81385   2.707   1.946   7.840
27048WAT     H181386   2.786   1.909   7.791
27048WAT     H281387   2.737   1.983   7.928
27049WAT      O81388   6.704   4.357   8.705
27049WAT     H181389   6.680   4.439   8.756
27049WAT     H281390   6.774   4.305   8.754
27050WAT      O81391   7.320   6.198   1.577
27050WAT     H181392   7.232   6.213   1.621
27050WAT     H281393   7.326   6.253   1.493
27051WAT      O81394   2.964   3.510   8.252
27051WAT     H181395   2.885   3.559   8.289
27051WAT     H281396   2.947   3.412   8.256
27052WAT      O81397   0.607   7.761   1.547
27052WAT     H181398   0.648   7.826   1.483
27052WAT     H281399   0.679   7.706   1.590
27053WAT      O81400   0.563   6.259   7.695
27053WAT     H181401   0.511   6.286   7.613
27053WAT     H281402   0.542   6.163   7.716
27054WAT      O81403   0.079   0.835   6.294
27054WAT     H181404   0.109   0.919   6.339
27054WAT     H281405   0.116   0.756   6.345
27055WAT      O81406   6.053   3.724   0.633
27055WAT     H181407   5.962   3.700   0.600
27055WAT     H281408   6.052   3.817   0.670
27056WAT      O81409   8.310   2.639   7.454
27056WAT     H181410   8.307   2.562   7.390
27056WAT     H281411   8.221   2.650   7.498
27057WAT      O81412   0.706   6.224   4.051
27057WAT     H181413   0.724   6.138   4.098
27057WAT     H281414   0.639   6.277   4.103
27058WAT      O81415   2.820   1.108   0.283
27058WAT     H181416   2.780   1.199   0.281
27058WAT     H281417   2.820   1.074   0.378
27059WAT      O81418   1.289   6.032   1.060
27059WAT     H181419   1.330   5.950   1.019
27059WAT     H281420   1.221   6.070   0.997
27060WAT      O81421   0.860   8.652   3.605
27060WAT     H181422   0.862   8.743   3.563
27060WAT     H281423   0.844   8.662   3.704
27061WAT      O81424   0.306   1.137   8.252
27061WAT     H181425   0.273   1.189   8.173
27061WAT     H281426   0.379   1.075   8.223
27062WAT      O81427   9.760   1.476   9.646
27062WAT     H181428   9.786   1.438   9.735
27062WAT     H281429   9.804   1.565   9.634
27063WAT      O81430   4.249   2.828   5.915
27063WAT     H181431   4.195   2.908   5.889
27063WAT     H281432   4.329   2.857   5.967
27064WAT      O81433   8.022   8.706   6.222
27064WAT     H181434   8.040   8.765   6.144
27064WAT     H281435   8.028   8.759   6.307
27065WAT      O81436   7.262   7.193   2.929
27065WAT     H181437   7.185   7.174   2.990
27065WAT     H281438   7.230   7.248   2.852
27066WAT      O81439   0.829   7.403   0.794
27066WAT     H181440   0.915   7.368   0.756
27066WAT     H281441   0.849   7.475   0.861
27067WAT      O81442   6.513   1.213   7.748
27067WAT     H181443   6.481   1.244   7.838
27067WAT     H281444   6.612   1.223   7.743
27068WAT      O81445   6.329   1.567   5.325
27068WAT     H181446   6.244   1.519   5.346
27068WAT     H281447   6.331   1.590   5.228
27069WAT      O81448   5.734   6.819   0.432
27069WAT     H181449   5.656   6.876   0.406
27069WAT     H281450   5.806   6.829   0.365
27070WAT      O81451   5.675   0.076   5.852
27070WAT     H181452   5.668   0.011   5.927
27070WAT     H281453   5.771   0.093   5.831
27071WAT      O81454   7.803   9.263   2.876
27071WAT     H181455   7.712   9.229   2.900
27071WAT     H281456   7.794   9.330   2.802
27072WAT      O81457   7.393   5.817   0.035
27072WAT     H181458   7.433   5.790   0.123
27072WAT     H281459   7.416   5.749  -0.034
27073WAT      O81460   1.560   3.856   5.785
27073WAT     H181461   1.585   3.868   5.689
27073WAT     H281462   1.613   3.781   5.824
27074WAT      O81463   4.415   9.007   9.411
27074WAT     H181464   4.505   9.042   9.439
27074WAT     H281465   4.424   8.911   9.385
27075WAT      O81466   6.363   6.061   1.232
27075WAT     H181467   6.441   5.999   1.233
27075WAT     H281468   6.313   6.054   1.318
27076WAT      O81469   7.973   6.627   2.308
27076WAT     H181470   7.890   6.579   2.334
27076WAT     H281471   8.051   6.587   2.356
27077WAT      O81472   5.507   3.042   4.164
27077WAT     H181473   5.548   3.025   4.254
27077WAT     H281474   5.580   3.055   4.096
27078WAT      O81475   2.836   4.848   8.555
27078WAT     H181476   2.791   4.935   8.573
27078WAT     H281477   2.903   4.859   8.482
27079WAT      O81478   4.794   1.737   3.323
27079WAT     H181479   4.848   1.813   3.361
27079WAT     H281480   4.709   1.728   3.375
27080WAT      O81481   8.324   8.494   3.729
27080WAT     H181482   8.369   8.576   3.692
27080WAT     H281483   8.273   8.518   3.811
27081WAT      O81484   7.779   2.917   8.083
27081WAT     H181485   7.780   2.818   8.071
27081WAT     H281486   7.839   2.960   8.016
27082WAT      O81487   3.409   5.238   3.283
27082WAT     H181488   3.454   5.206   3.366
27082WAT     H281489   3.314   5.209   3.283
27083WAT      O81490   7.206   9.702   6.877
27083WAT     H181491   7.126   9.754   6.846
27083WAT     H281492   7.227   9.727   6.971
27084WAT      O81493   3.633   0.151   4.207
27084WAT     H181494   3.723   0.192   4.193
27084WAT     H281495   3.565   0.223   4.218
27085WAT      O81496   0.765   9.211   6.231
27085WAT     H181497   0.834   9.195   6.160
27085WAT     H281498   0.744   9.309   6.235
27086WAT      O81499   4.363   3.436   6.792
27086WAT     H181500   4.309   3.466   6.714
27086WAT     H281501   4.323   3.473   6.876
27087WAT      O81502   0.891   7.562   6.257
27087WAT     H181503   0.960   7.586   6.188
27087WAT     H281504   0.804   7.541   6.212
27088WAT      O81505   4.427   9.400   6.864
27088WAT     H181506   4.394   9.476   6.807
27088WAT     H281507   4.356   9.330   6.870
27089WAT      O81508   8.954   5.337   0.590
27089WAT     H181509   8.920   5.332   0.684
27089WAT     H281510   8.882   5.306   0.527
27090WAT      O81511   4.591   0.606   6.896
27090WAT     H181512   4.581   0.637   6.990
27090WAT     H281513   4.539   0.667   6.835
27091WAT      O81514   3.653   9.570   0.177
27091WAT     H181515   3.726   9.589   0.244
27091WAT     H281516   3.614   9.656   0.145
27092WAT      O81517   6.690   1.262   4.274
27092WAT     H181518   6.626   1.185   4.279
27092WAT     H281519   6.778   1.235   4.313
27093WAT      O81520   9.746   3.791   0.931
27093WAT     H181521   9.656   3.812   0.893
27093WAT     H281522   9.751   3.694   0.954
27094WAT      O81523   9.707   8.297   9.163
27094WAT     H181524   9.624   8.244   9.178
27094WAT     H281525   9.776   8.270   9.230
27095WAT      O81526   6.742   5.518   4.153
27095WAT     H181527   6.766   5.453   4.226
27095WAT     H281528   6.647   5.504   4.126
27096WAT      O81529   3.217   2.426   9.293
27096WAT     H181530   3.300   2.482   9.292
27096WAT     H281531   3.206   2.381   9.204
27097WAT      O81532   8.981   2.485   7.202
27097WAT     H181533   8.890   2.522   7.223
27097WAT     H281534   8.996   2.488   7.103
27098WAT      O81535   2.366   5.290   2.240
27098WAT     H181536   2.399   5.384   2.233
27098WAT     H281537   2.416   5.232   2.176
27099WAT      O81538   5.700   3.360   2.273
27099WAT     H181539   5.713   3.459   2.262
27099WAT     H281540   5.648   3.325   2.196
27100WAT      O81541   9.126   1.939   2.568
27100WAT     H181542   9.201   1.873   2.578
27100WAT     H281543   9.041   1.891   2.548
27101WAT      O81544   0.457   2.093   5.725
27101WAT     H181545   0.542   2.074   5.773
27101WAT     H281546   0.420   2.008   5.687
27102WAT      O81547   2.501   4.314   9.181
27102WAT     H181548   2.482   4.355   9.270
27102WAT     H281549   2.588   4.348   9.146
27103WAT      O81550   7.310   5.753   6.256
27103WAT     H181551   7.286   5.794   6.167
27103WAT     H281552   7.315   5.654   6.247
27104WAT      O81553   8.786   8.819   5.341
27104WAT     H181554   8.745   8.765   5.415
27104WAT     H281555   8.720   8.886   5.308
27105WAT      O81556   1.875   8.577   5.716
27105WAT     H181557   1.857   8.497   5.659
27105WAT     H281558   1.974   8.590   5.726
27106WAT      O81559   2.975   8.112   3.743
27106WAT     H181560   3.068   8.074   3.742
27106WAT     H281561   2.963   8.174   3.666
27107WAT      O81562   1.764   7.077   4.486
27107WAT     H181563   1.664   7.077   4.481
27107WAT     H281564   1.795   7.159   4.533
27108WAT      O81565   5.623   3.800   7.696
27108WAT     H181566   5.699   3.738   7.678
27108WAT     H281567   5.595   3.845   7.611
27109WAT      O81568   1.833   1.614   2.493
27109WAT     H181569   1.873   1.692   2.444
27109WAT     H281570   1.742   1.595   2.457
27110WAT      O81571   7.605   6.116   3.718
27110WAT     H181572   7.640   6.057   3.645
27110WAT     H281573   7.672   6.189   3.736
27111WAT      O81574   1.890   9.415   7.589
27111WAT     H181575   1.867   9.351   7.516
27111WAT     H281576   1.979   9.391   7.628
27112WAT      O81577   9.554   3.845   7.581
27112WAT     H181578   9.535   3.903   7.660
27112WAT     H281579   9.645   3.864   7.546
27113WAT      O81580   3.318   5.964   3.297
27113WAT     H181581   3.333   5.912   3.213
27113WAT     H281582   3.302   6.060   3.275
27114WAT      O81583   3.949   7.623   0.235
27114WAT     H181584   3.990   7.712   0.215
27114WAT     H281585   3.851   7.627   0.217
27115WAT      O81586   5.320   1.364   2.851
27115WAT     H181587   5.345   1.272   2.879
27115WAT     H281588   5.315   1.369   2.752
27116WAT      O81589   3.677   7.857   5.303
27116WAT     H181590   3.670   7.816   5.394
27116WAT     H281591   3.593   7.908   5.284
27117WAT      O81592   4.333   6.303   4.636
27117WAT     H181593   4.297   6.210   4.621
27117WAT     H281594   4.312   6.360   4.556
27118WAT      O81595   1.535   7.537   5.863
27118WAT     H181596   1.531   7.615   5.925
27118WAT     H281597   1.626   7.531   5.822
27119WAT      O81598   9.561   0.774   8.539
27119WAT     H181599   9.624   0.750   8.613
27119WAT     H281600   9.603   0.754   8.451
27120WAT      O81601   9.200   6.525   8.867
27120WAT     H181602   9.106   6.523   8.902
27120WAT     H281603   9.264   6.520   8.943
27121WAT      O81604   4.513   4.890   0.553
27121WAT     H181605   4.458   4.912   0.473
27121WAT     H281606   4.453   4.867   0.630
27122WAT      O81607   0.827   0.670   2.034
27122WAT     H181608   0.779   0.586   2.007
27122WAT     H281609   0.925   0.652   2.038
27123WAT      O81610   6.044   4.835   9.161
27123WAT     H181611   6.108   4.911   9.158
27123WAT     H281612   6.094   4.750   9.176
27124WAT      O81613   6.694   1.671   6.725
27124WAT     H181614   6.679   1.711   6.635
27124WAT     H281615   6.784   1.627   6.727
27125WAT      O81616   5.502   7.794   1.131
27125WAT     H181617   5.583   7.749   1.092
27125WAT     H281618   5.420   7.747   1.098
27126WAT      O81619   5.875   3.668   0.433
27126WAT     H181620   5.937   3.593   0.413
27126WAT     H281621   5.865   3.726   0.352
27127WAT      O81622   4.289   6.091   3.563
27127WAT     H181623   4.236   6.011   3.591
27127WAT     H281624   4.359   6.111   3.632
27128WAT      O81625   1.664   6.192   1.834
27128WAT     H181626   1.645   6.097   1.809
27128WAT     H281627   1.763   6.204   1.845
27129WAT      O81628   4.504   8.059   4.305
27129WAT     H181629   4.475   7.964   4.292
27129WAT     H281630   4.495   8.084   4.401
27130WAT      O81631   5.555   2.955   0.527
27130WAT     H181632   5.479   2.931   0.466
27130WAT     H281633   5.529   2.937   0.621
27131WAT      O81634   8.960   0.150   2.067
27131WAT     H181635   8.943   0.241   2.029
27131WAT     H281636   8.875   0.114   2.105
27132WAT      O81637   6.235   5.520   3.644
27132WAT     H181638   6.144   5.521   3.684
27132WAT     H281639   6.252   5.430   3.603
27133WAT      O81640   3.271   6.364   2.934
27133WAT     H181641   3.238   6.274   2.907
27133WAT     H281642   3.208   6.434   2.899
27134WAT      O81643   8.207   8.477   5.165
27134WAT     H181644   8.241   8.499   5.074
27134WAT     H281645   8.275   8.503   5.233
27135WAT      O81646   0.616   2.740   8.745
27135WAT     H181647   0.661   2.694   8.669
27135WAT     H281648   0.625   2.839   8.734
27136WAT      O81649   2.737   0.250   9.179
27136WAT     H181650   2.814   0.295   9.133
27136WAT     H281651   2.693   0.314   9.242
27137WAT      O81652   4.051   1.584   5.861
27137WAT     H181653   3.962   1.590   5.907
27137WAT     H281654   4.037   1.586   5.762
27138WAT      O81655   8.667   7.103   2.692
27138WAT     H181656   8.634   7.163   2.619
27138WAT     H281657   8.655   7.148   2.781
27139WAT      O81658   7.800   8.601   2.961
27139WAT     H181659   7.765   8.677   2.906
27139WAT     H281660   7.873   8.634   3.020
27140WAT      O81661   1.799   4.214   6.785
27140WAT     H181662   1.880   4.224   6.843
27140WAT     H281663   1.717   4.217   6.841
27141WAT      O81664   2.941   3.278   4.924
27141WAT     H181665   2.879   3.261   5.001
27141WAT     H281666   2.890   3.266   4.838
27142WAT      O81667   7.566   4.391   4.541
27142WAT     H181668   7.496   4.345   4.595
27142WAT     H281669   7.527   4.475   4.501
27143WAT      O81670   1.916   0.889   2.823
27143WAT     H181671   1.935   0.837   2.740
27143WAT     H281672   1.992   0.951   2.843
27144WAT      O81673   6.951   7.168   0.773
27144WAT     H181674   6.979   7.240   0.837
27144WAT     H281675   6.941   7.207   0.681
27145WAT      O81676   9.116   0.056   0.613
27145WAT     H181677   9.096   0.154   0.608
27145WAT     H281678   9.140   0.022   0.522
27146WAT      O81679   7.709   4.252   7.432
27146WAT     H181680   7.738   4.345   7.451
27146WAT     H281681   7.789   4.195   7.412
27147WAT      O81682   0.941   9.078   1.367
27147WAT     H181683   1.004   9.007   1.335
27147WAT     H281684   0.848   9.058   1.334
27148WAT      O81685   2.586   0.057   8.356
27148WAT     H181686   2.664   0.097   8.309
27148WAT     H281687   2.601  -0.041   8.368
27149WAT      O81688   8.873   7.685   7.897
27149WAT     H181689   8.778   7.713   7.913
27149WAT     H281690   8.884   7.589   7.923
27150WAT      O81691   4.033   8.933   9.433
27150WAT     H181692   3.957   8.886   9.479
27150WAT     H281693   4.078   8.995   9.498
27151WAT      O81694   0.462   4.796   6.348
27151WAT     H181695   0.443   4.876   6.291
27151WAT     H281696   0.522   4.733   6.297
27152WAT      O81697   9.298   6.716   3.260
27152WAT     H181698   9.250   6.798   3.230
27152WAT     H281699   9.357   6.739   3.338
27153WAT      O81700   2.645   3.144   0.485
27153WAT     H181701   2.693   3.120   0.401
27153WAT     H281702   2.563   3.086   0.494
27154WAT      O81703   6.483   0.239   9.773
27154WAT     H181704   6.483   0.215   9.870
27154WAT     H281705   6.539   0.321   9.759
27155WAT      O81706   4.041   6.637   3.321
27155WAT     H181707   4.077   6.544   3.329
27155WAT     H281708   3.982   6.657   3.400
27156WAT      O81709   0.171   0.686   3.941
27156WAT     H181710   0.108   0.743   3.888
27156WAT     H281711   0.263   0.690   3.900
27157WAT      O81712   8.695   2.701   2.565
27157WAT     H181713   8.725   2.608   2.587
27157WAT     H281714   8.772   2.753   2.529
27158WAT      O81715   3.753   3.518   2.325
27158WAT     H181716   3.752   3.419   2.329
27158WAT     H281717   3.847   3.552   2.322
27159WAT      O81718   2.977   2.090   2.994
27159WAT     H181719   2.958   1.992   3.004
27159WAT     H281720   2.962   2.117   2.899
27160WAT      O81721   5.130   2.646   7.378
27160WAT     H181722   5.185   2.652   7.460
27160WAT     H281723   5.188   2.620   7.300
27161WAT      O81724   7.289   3.756   1.226
27161WAT     H181725   7.213   3.818   1.244
27161WAT     H281726   7.346   3.793   1.153
27162WAT      O81727   3.165   2.085   6.052
27162WAT     H181728   3.113   2.122   5.975
27162WAT     H281729   3.215   2.159   6.097
27163WAT      O81730   2.749   6.530   7.265
27163WAT     H181731   2.723   6.434   7.258
27163WAT     H281732   2.757   6.556   7.362
27164WAT      O81733   1.426   5.838   0.567
27164WAT     H181734   1.379   5.922   0.594
27164WAT     H281735   1.500   5.861   0.502
27165WAT      O81736   7.969   1.901   6.599
27165WAT     H181737   7.977   1.811   6.642
27165WAT     H281738   7.883   1.906   6.549
27166WAT      O81739   3.687   0.170   0.223
27166WAT     H181740   3.664   0.247   0.283
27166WAT     H281741   3.785   0.170   0.205
27167WAT      O81742   3.818   1.968   3.112
27167WAT     H181743   3.763   2.014   3.182
27167WAT     H281744   3.792   2.002   3.022
27168WAT      O81745   4.881   7.535   5.963
27168WAT     H181746   4.826   7.610   5.924
27168WAT     H281747   4.821   7.457   5.983
27169WAT      O81748   0.204   1.322   5.523
27169WAT     H181749   0.146   1.285   5.450
27169WAT     H281750   0.289   1.270   5.528
27170WAT      O81751   3.826   0.269   1.252
27170WAT     H181752   3.905   0.285   1.193
27170WAT     H281753   3.830   0.176   1.289
27171WAT      O81754   5.885   3.848   9.543
27171WAT     H181755   5.816   3.776   9.553
27171WAT     H281756   5.974   3.812   9.570
27172WAT      O81757   4.674   5.132   8.191
27172WAT     H181758   4.733   5.206   8.224
27172WAT     H281759   4.672   5.058   8.258
27173WAT      O81760   9.757   9.473   2.126
27173WAT     H181761   9.840   9.526   2.144
27173WAT     H281762   9.781   9.378   2.107
27174WAT      O81763   9.550   9.275   1.387
27174WAT     H181764   9.462   9.263   1.340
27174WAT     H281765   9.542   9.349   1.453
27175WAT      O81766   3.737   0.539   8.869
27175WAT     H181767   3.739   0.607   8.942
27175WAT     H281768   3.712   0.583   8.783
27176WAT      O81769   3.652   7.862   9.891
27176WAT     H181770   3.720   7.819   9.831
27176WAT     H281771   3.698   7.923   9.955
27177WAT      O81772   0.435   7.176   5.723
27177WAT     H181773   0.367   7.159   5.794
27177WAT     H281774   0.507   7.236   5.759
27178WAT      O81775   6.282   3.372   1.955
27178WAT     H181776   6.296   3.406   1.862
27178WAT     H281777   6.370   3.374   2.004
27179WAT      O81778   6.321   8.788   4.043
27179WAT     H181779   6.412   8.801   4.083
27179WAT     H281780   6.254   8.841   4.094
27180WAT      O81781   1.902   3.438   5.737
27180WAT     H181782   1.968   3.417   5.809
27180WAT     H281783   1.903   3.536   5.718
27181WAT      O81784   3.518   4.253   0.994
27181WAT     H181785   3.432   4.248   0.943
27181WAT     H281786   3.503   4.305   1.078
27182WAT      O81787   6.266   1.404   2.683
27182WAT     H181788   6.344   1.455   2.719
27182WAT     H281789   6.190   1.410   2.748
27183WAT      O81790   1.052   4.876   7.564
27183WAT     H181791   1.022   4.913   7.652
27183WAT     H281792   0.990   4.804   7.534
27184WAT      O81793   1.181   0.163   6.726
27184WAT     H181794   1.158   0.190   6.820
27184WAT     H281795   1.272   0.122   6.725
27185WAT      O81796   3.402   5.667   2.545
27185WAT     H181797   3.420   5.740   2.479
27185WAT     H281798   3.332   5.696   2.609
27186WAT      O81799   7.423   8.945   7.989
27186WAT     H181800   7.371   8.864   7.961
27186WAT     H281801   7.474   8.980   7.910
27187WAT      O81802   6.056   9.447   9.357
27187WAT     H181803   5.972   9.457   9.411
27187WAT     H281804   6.040   9.484   9.265
27188WAT      O81805   2.516   9.166   4.962
27188WAT     H181806   2.491   9.250   5.011
27188WAT     H281807   2.566   9.190   4.879
27189WAT      O81808   3.700   6.579   8.343
27189WAT     H181809   3.748   6.664   8.366
27189WAT     H281810   3.762   6.518   8.294
27190WAT      O81811   1.315   2.644   1.855
27190WAT     H181812   1.290   2.730   1.899
27190WAT     H281813   1.401   2.610   1.895
27191WAT      O81814   2.603   4.072   5.400
27191WAT     H181815   2.557   4.075   5.312
27191WAT     H281816   2.538   4.094   5.473
27192WAT      O81817   3.487   5.358   0.128
27192WAT     H181818   3.420   5.431   0.116
27192WAT     H281819   3.549   5.357   0.049
27193WAT      O81820   7.606   7.329   8.380
27193WAT     H181821   7.535   7.363   8.318
27193WAT     H281822   7.695   7.338   8.337
27194WAT      O81823   5.657   8.921   8.026
27194WAT     H181824   5.671   8.887   7.933
27194WAT     H281825   5.589   8.865   8.072
27195WAT      O81826   8.302   1.692   4.246
27195WAT     H181827   8.352   1.608   4.225
27195WAT     H281828   8.347   1.740   4.321
27196WAT      O81829   6.238   5.446   2.518
27196WAT     H181830   6.194   5.535   2.500
27196WAT     H281831   6.307   5.429   2.448
27197WAT      O81832   9.300   0.784   5.996
27197WAT     H181833   9.311   0.806   5.899
27197WAT     H281834   9.335   0.693   6.014
27198WAT      O81835   1.255   4.086   9.618
27198WAT     H181836   1.297   4.050   9.534
27198WAT     H281837   1.275   4.024   9.694
27199WAT      O81838   9.380   5.597   8.467
27199WAT     H181839   9.395   5.507   8.426
27199WAT     H281840   9.332   5.586   8.554
27200WAT      O81841   2.666   1.688   6.172
27200WAT     H181842   2.602   1.676   6.248
27200WAT     H281843   2.716   1.774   6.184
27201WAT      O81844   0.441   4.360   0.306
27201WAT     H181845   0.471   4.449   0.340
27201WAT     H281846   0.362   4.329   0.359
27202WAT      O81847   9.874   9.476   3.276
27202WAT     H181848   9.822   9.552   3.237
27202WAT     H281849   9.968   9.479   3.242
27203WAT      O81850   4.780   6.668   4.157
27203WAT     H181851   4.755   6.625   4.244
27203WAT     H281852   4.752   6.609   4.081
27204WAT      O81853   1.757   2.419   8.432
27204WAT     H181854   1.779   2.322   8.450
27204WAT     H281855   1.658   2.430   8.423
27205WAT      O81856   8.332   1.110   1.474
27205WAT     H181857   8.363   1.167   1.550
27205WAT     H281858   8.319   1.166   1.392
27206WAT      O81859   7.670   0.748   3.792
27206WAT     H181860   7.649   0.810   3.869
27206WAT     H281861   7.622   0.780   3.711
27207WAT      O81862   2.533   4.372   5.575
27207WAT     H181863   2.552   4.377   5.673
27207WAT     H281864   2.609   4.410   5.524
27208WAT      O81865   2.255   2.124   5.820
27208WAT     H181866   2.190   2.127   5.896
27208WAT     H281867   2.250   2.211   5.770
27209WAT      O81868   8.383   0.756   8.696
27209WAT     H181869   8.417   0.689   8.763
27209WAT     H281870   8.303   0.802   8.734
27210WAT      O81871   6.652   7.243   7.576
27210WAT     H181872   6.750   7.261   7.570
27210WAT     H281873   6.627   7.226   7.671
27211WAT      O81874   9.302   9.597   3.833
27211WAT     H181875   9.267   9.649   3.911
27211WAT     H281876   9.283   9.647   3.748
27212WAT      O81877   8.871   7.633   1.463
27212WAT     H181878   8.787   7.687   1.462
27212WAT     H281879   8.847   7.536   1.461
27213WAT      O81880   9.305   2.633   2.324
27213WAT     H181881   9.330   2.629   2.420
27213WAT     H281882   9.386   2.654   2.269
27214WAT      O81883   4.073   9.371   1.470
27214WAT     H181884   4.105   9.463   1.492
27214WAT     H281885   4.113   9.305   1.534
27215WAT      O81886   7.399   2.183   3.112
27215WAT     H181887   7.470   2.160   3.179
27215WAT     H281888   7.345   2.260   3.145
27216WAT      O81889   3.770   8.598   6.155
27216WAT     H181890   3.779   8.536   6.232
27216WAT     H281891   3.855   8.649   6.142
27217WAT      O81892   7.956   1.098   9.415
27217WAT     H181893   7.944   1.038   9.493
27217WAT     H281894   8.006   1.180   9.443
27218WAT      O81895   0.818   3.990   9.440
27218WAT     H181896   0.854   3.901   9.410
27218WAT     H281897   0.799   4.046   9.359
27219WAT      O81898   5.839   9.395   0.366
27219WAT     H181899   5.780   9.469   0.398
27219WAT     H281900   5.927   9.432   0.337
27220WAT      O81901   2.371   2.804   5.248
27220WAT     H181902   2.406   2.895   5.227
27220WAT     H281903   2.305   2.810   5.323
27221WAT      O81904   3.925   0.932   6.293
27221WAT     H181905   3.845   0.983   6.262
27221WAT     H281906   3.988   0.918   6.216
27222WAT      O81907   4.901   8.350   7.847
27222WAT     H181908   4.987   8.397   7.863
27222WAT     H281909   4.835   8.414   7.807
27223WAT      O81910   7.235   4.460   7.742
27223WAT     H181911   7.172   4.383   7.731
27223WAT     H281912   7.202   4.520   7.814
27224WAT      O81913   6.124   3.080   0.901
27224WAT     H181914   6.196   3.011   0.887
27224WAT     H281915   6.126   3.146   0.826
27225WAT      O81916   2.874   9.728   8.089
27225WAT     H181917   2.909   9.815   8.055
27225WAT     H281918   2.927   9.699   8.170
27226WAT      O81919   3.324   2.548   3.628
27226WAT     H181920   3.408   2.493   3.631
27226WAT     H281921   3.340   2.636   3.671
27227WAT      O81922   9.773   5.839   1.224
27227WAT     H181923   9.791   5.857   1.321
27227WAT     H281924   9.852   5.793   1.184
27228WAT      O81925   2.655   4.116   6.687
27228WAT     H181926   2.705   4.156   6.610
27228WAT     H281927   2.698   4.029   6.712
27229WAT      O81928   4.149   3.277   7.916
27229WAT     H181929   4.068   3.294   7.972
27229WAT     H281930   4.120   3.253   7.823
27230WAT      O81931   8.872   2.441   3.382
27230WAT     H181932   8.902   2.533   3.407
27230WAT     H281933   8.950   2.379   3.382
27231WAT      O81934   1.868   3.347   2.543
27231WAT     H181935   1.851   3.306   2.633
27231WAT     H281936   1.812   3.302   2.474
27232WAT      O81937   2.940   6.457   6.017
27232WAT     H181938   2.871   6.386   6.010
27232WAT     H281939   2.964   6.471   6.113
27233WAT      O81940   2.280   8.446   5.640
27233WAT     H181941   2.219   8.367   5.631
27233WAT     H281942   2.373   8.414   5.659
27234WAT      O81943   0.770   2.516   3.870
27234WAT     H181944   0.719   2.537   3.953
27234WAT     H281945   0.707   2.488   3.798
27235WAT      O81946   9.329   7.322   2.216
27235WAT     H181947   9.415   7.276   2.194
27235WAT     H281948   9.252   7.267   2.184
27236WAT      O81949   7.745   1.149   1.037
27236WAT     H181950   7.687   1.140   0.956
27236WAT     H281951   7.757   1.059   1.080
27237WAT      O81952   9.160   2.569   5.505
27237WAT     H181953   9.143   2.515   5.587
27237WAT     H281954   9.082   2.562   5.444
27238WAT      O81955   5.609   2.703   2.432
27238WAT     H181956   5.553   2.629   2.470
27238WAT     H281957   5.600   2.705   2.333
27239WAT      O81958   0.141   6.361   7.745
27239WAT     H181959   0.217   6.414   7.707
27239WAT     H281960   0.175   6.297   7.813
27240WAT      O81961   0.112   2.470   0.149
27240WAT     H181962   0.171   2.442   0.225
27240WAT     H281963   0.165   2.473   0.064
27241WAT      O81964   0.407   7.155   3.157
27241WAT     H181965   0.385   7.219   3.083
27241WAT     H281966   0.323   7.124   3.201
27242WAT      O81967   7.888   9.075   0.347
27242WAT     H181968   7.812   9.040   0.402
27242WAT     H281969   7.893   9.174   0.355
27243WAT      O81970   8.068   8.757   1.999
27243WAT     H181971   8.101   8.827   2.063
27243WAT     H281972   8.060   8.669   2.047
27244WAT      O81973   9.717   3.218   9.849
27244WAT     H181974   9.784   3.245   9.779
27244WAT     H281975   9.765   3.173   9.924
27245WAT      O81976   8.545   3.861   8.020
27245WAT     H181977   8.445   3.863   8.017
27245WAT     H281978   8.577   3.778   7.974
27246WAT      O81979   0.299   8.063   3.773
27246WAT     H181980   0.245   8.109   3.703
27246WAT     H281981   0.321   7.970   3.743
27247WAT      O81982   2.724   3.121   8.529
27247WAT     H181983   2.737   3.128   8.627
27247WAT     H281984   2.742   3.209   8.486
27248WAT      O81985   5.539   8.382   2.642
27248WAT     H181986   5.609   8.426   2.587
27248WAT     H281987   5.565   8.287   2.661
27249WAT      O81988   6.500   9.489   0.718
27249WAT     H181989   6.556   9.448   0.646
27249WAT     H281990   6.442   9.561   0.678
27250WAT      O81991   5.663   1.450   3.899
27250WAT     H181992   5.574   1.423   3.935
27250WAT     H281993   5.684   1.544   3.929
27251WAT      O81994   8.882   5.941   0.308
27251WAT     H181995   8.981   5.953   0.296
27251WAT     H281996   8.862   5.933   0.406
27252WAT      O81997   6.281   3.584   0.664
27252WAT     H181998   6.191   3.627   0.652
27252WAT     H281999   6.274   3.486   0.642
27253WAT      O82000   7.818   5.921   5.768
27253WAT     H182001   7.798   5.946   5.673
27253WAT     H282002   7.893   5.978   5.802
27254WAT      O82003   0.582   6.704   6.383
27254WAT     H182004   0.612   6.610   6.367
27254WAT     H282005   0.574   6.721   6.481
27255WAT      O82006   4.242   1.836   8.988
27255WAT     H182007   4.212   1.742   9.000
27255WAT     H282008   4.250   1.856   8.890
27256WAT      O82009   0.117   9.808   8.943
27256WAT     H182010   0.080   9.731   8.994
27256WAT     H282011   0.092   9.893   8.988
27257WAT      O82012   5.064   6.520   0.386
27257WAT     H182013   4.964   6.512   0.385
27257WAT     H282014   5.101   6.467   0.462
27258WAT      O82015   5.606   0.046   4.662
27258WAT     H182016   5.705   0.035   4.666
27258WAT     H282017   5.578   0.120   4.723
27259WAT      O82018   8.074   4.557   1.329
27259WAT     H182019   8.153   4.495   1.328
27259WAT     H282020   8.096   4.640   1.278
27260WAT      O82021   0.043   4.798   4.089
27260WAT     H182022  -0.010   4.863   4.144
27260WAT     H282023  -0.001   4.786   4.000
27261WAT      O82024   8.220   0.745   7.023
27261WAT     H182025   8.278   0.664   7.026
27261WAT     H282026   8.263   0.814   6.965
27262WAT      O82027   9.797   3.397   7.989
27262WAT     H182028   9.827   3.303   8.006
27262WAT     H282029   9.716   3.418   8.044
27263WAT      O82030   1.989   5.336   9.476
27263WAT     H182031   1.957   5.430   9.477
27263WAT     H282032   1.928   5.279   9.421
27264WAT      O82033   5.166   0.693   8.001
27264WAT     H182034   5.227   0.764   8.036
27264WAT     H282035   5.204   0.603   8.020
27265WAT      O82036   1.052   2.950   1.674
27265WAT     H182037   1.013   2.983   1.760
27265WAT     H282038   1.062   2.850   1.679
27266WAT      O82039   0.011   6.770   3.567
27266WAT     H182040   0.040   6.693   3.624
27266WAT     H282041   0.090   6.808   3.521
27267WAT      O82042   7.369   3.414   3.571
27267WAT     H182043   7.439   3.392   3.639
27267WAT     H282044   7.283   3.370   3.597
27268WAT      O82045   5.170   8.958   0.830
27268WAT     H182046   5.081   8.918   0.852
27268WAT     H282047   5.215   8.987   0.915
27269WAT      O82048   4.897   2.687   4.039
27269WAT     H182049   4.897   2.588   4.053
27269WAT     H282050   4.826   2.711   3.972
27270WAT      O82051   6.417   9.344   0.052
27270WAT     H182052   6.464   9.317  -0.032
27270WAT     H282053   6.462   9.302   0.130
27271WAT      O82054   1.293   0.315   4.878
27271WAT     H182055   1.248   0.399   4.910
27271WAT     H282056   1.286   0.244   4.948
27272WAT      O82057   1.748   5.944   9.443
27272WAT     H182058   1.681   5.885   9.489
27272WAT     H282059   1.802   5.992   9.511
27273WAT      O82060   3.151   1.121   5.566
27273WAT     H182061   3.122   1.204   5.615
27273WAT     H282062   3.142   1.136   5.468
27274WAT      O82063   2.910   5.581   7.221
27274WAT     H182064   2.984   5.566   7.287
27274WAT     H282065   2.949   5.590   7.130
27275WAT      O82066   7.230   6.825   6.197
27275WAT     H182067   7.218   6.914   6.154
27275WAT     H282068   7.214   6.833   6.296
27276WAT      O82069   7.691   2.833   2.606
27276WAT     H182070   7.682   2.752   2.664
27276WAT     H282071   7.769   2.887   2.636
27277WAT      O82072   9.091   2.998   6.536
27277WAT     H182073   9.174   2.944   6.523
27277WAT     H282074   9.114   3.084   6.581
27278WAT      O82075   2.054   4.206   0.993
27278WAT     H182076   2.109   4.127   1.022
27278WAT     H282077   1.966   4.203   1.040
27279WAT      O82078   3.066   8.898   4.165
27279WAT     H182079   2.983   8.937   4.125
27279WAT     H282080   3.107   8.834   4.100
27280WAT      O82081   9.745   6.265   9.225
27280WAT     H182082   9.737   6.221   9.315
27280WAT     H282083   9.655   6.269   9.182
27281WAT      O82084   5.059   2.258   7.954
27281WAT     H182085   5.110   2.210   7.882
27281WAT     H282086   5.121   2.279   8.030
27282WAT      O82087   1.179   2.363   5.032
27282WAT     H182088   1.152   2.443   5.086
27282WAT     H282089   1.097   2.317   4.997
27283WAT      O82090   9.873   2.217   9.544
27283WAT     H182091   9.854   2.176   9.633
27283WAT     H282092   9.909   2.147   9.482
27284WAT      O82093   6.171   2.623   6.527
27284WAT     H182094   6.191   2.720   6.541
27284WAT     H282095   6.083   2.613   6.480
27285WAT      O82096   1.388   0.790   8.613
27285WAT     H182097   1.429   0.753   8.530
27285WAT     H282098   1.298   0.750   8.627
27286WAT      O82099   6.480   2.519   8.592
27286WAT     H182100   6.432   2.593   8.639
27286WAT     H282101   6.578   2.542   8.586
27287WAT      O82102   5.332   1.791   2.875
27287WAT     H182103   5.347   1.876   2.825
27287WAT     H282104   5.419   1.743   2.886
27288WAT      O82105   0.746   3.818   7.197
27288WAT     H182106   0.779   3.725   7.183
27288WAT     H282107   0.792   3.858   7.277
27289WAT      O82108   0.329   0.506   7.839
27289WAT     H182109   0.268   0.462   7.773
27289WAT     H282110   0.424   0.489   7.813
27290WAT      O82111   9.599   9.123   5.007
27290WAT     H182112   9.646   9.205   4.975
27290WAT     H282113   9.660   9.070   5.067
27291WAT      O82114   9.566   4.857   8.829
27291WAT     H182115   9.564   4.908   8.743
27291WAT     H282116   9.656   4.864   8.871
27292WAT      O82117   8.769   9.220   9.332
27292WAT     H182118   8.774   9.313   9.295
27292WAT     H282119   8.851   9.169   9.307
27293WAT      O82120   1.004   6.611   8.175
27293WAT     H182121   0.913   6.651   8.172
27293WAT     H282122   1.008   6.542   8.247
27294WAT      O82123   9.424   8.385   5.654
27294WAT     H182124   9.439   8.429   5.743
27294WAT     H282125   9.446   8.450   5.581
27295WAT      O82126   4.399   2.699   3.223
27295WAT     H182127   4.409   2.720   3.126
27295WAT     H282128   4.389   2.784   3.275
27296WAT      O82129   9.747   4.080   8.691
27296WAT     H182130   9.772   4.167   8.735
27296WAT     H282131   9.770   4.084   8.594
27297WAT      O82132   4.877   5.975   7.219
27297WAT     H182133   4.893   6.054   7.160
27297WAT     H282134   4.786   5.938   7.200
27298WAT      O82135   6.372   5.047   7.162
27298WAT     H182136   6.310   4.970   7.176
27298WAT     H282137   6.363   5.111   7.238
27299WAT      O82138   1.068   8.254   8.152
27299WAT     H182139   1.130   8.333   8.154
27299WAT     H282140   1.101   8.187   8.086
27300WAT      O82141   4.759   0.898   7.017
27300WAT     H182142   4.841   0.848   7.043
27300WAT     H282143   4.729   0.956   7.093
27301WAT      O82144   0.195   4.170   2.069
27301WAT     H182145   0.172   4.075   2.089
27301WAT     H282146   0.197   4.184   1.970
27302WAT      O82147   8.290   0.320   2.456
27302WAT     H182148   8.209   0.262   2.466
27302WAT     H282149   8.263   0.409   2.421
27303WAT      O82150   5.426   9.086   9.336
27303WAT     H182151   5.338   9.068   9.292
27303WAT     H282152   5.480   9.002   9.338
27304WAT      O82153   7.225   1.440   2.029
27304WAT     H182154   7.190   1.522   1.984
27304WAT     H282155   7.249   1.462   2.124
27305WAT      O82156   1.770   3.018   6.615
27305WAT     H182157   1.722   3.065   6.689
27305WAT     H282158   1.844   3.077   6.582
27306WAT      O82159   4.782   9.212   3.685
27306WAT     H182160   4.732   9.217   3.772
27306WAT     H282161   4.843   9.132   3.686
27307WAT      O82162   4.161   5.892   0.191
27307WAT     H182163   4.121   5.984   0.201
27307WAT     H282164   4.143   5.858   0.099
27308WAT      O82165   2.771   4.272   5.046
27308WAT     H182166   2.800   4.216   5.123
27308WAT     H282167   2.822   4.245   4.964
27309WAT      O82168   3.785   2.422   6.683
27309WAT     H182169   3.829   2.344   6.726
27309WAT     H282170   3.686   2.411   6.687
27310WAT      O82171   2.360   9.652   1.421
27310WAT     H182172   2.287   9.694   1.367
27310WAT     H282173   2.387   9.565   1.380
27311WAT      O82174   4.286   1.141   5.683
27311WAT     H182175   4.214   1.177   5.741
27311WAT     H282176   4.246   1.102   5.600
27312WAT      O82177   2.309   7.181   0.463
27312WAT     H182178   2.321   7.081   0.467
27312WAT     H282179   2.396   7.225   0.487
27313WAT      O82180   2.115   1.346   6.254
27313WAT     H182181   2.101   1.253   6.288
27313WAT     H282182   2.038   1.373   6.196
27314WAT      O82183   7.042   5.321   6.574
27314WAT     H182184   6.971   5.320   6.504
27314WAT     H282185   7.105   5.245   6.558
27315WAT      O82186   2.847   5.229   1.403
27315WAT     H182187   2.844   5.304   1.336
27315WAT     H282188   2.762   5.178   1.399
27316WAT      O82189   1.101   2.808   4.967
27316WAT     H182190   1.089   2.906   4.952
27316WAT     H282191   1.126   2.764   4.881
27317WAT      O82192   6.688   1.023   7.275
27317WAT     H182193   6.589   1.028   7.288
27317WAT     H282194   6.709   1.030   7.177
27318WAT      O82195   1.669   7.092   7.013
27318WAT     H182196   1.658   7.000   6.977
27318WAT     H282197   1.597   7.112   7.079
27319WAT      O82198   8.251   8.696   5.797
27319WAT     H182199   8.206   8.607   5.795
27319WAT     H282200   8.199   8.761   5.742
27320WAT      O82201   9.261   4.343   1.692
27320WAT     H182202   9.250   4.258   1.640
27320WAT     H282203   9.171   4.384   1.707
27321WAT      O82204   5.976   9.369   8.376
27321WAT     H182205   6.027   9.396   8.295
27321WAT     H282206   5.997   9.431   8.451
27322WAT      O82207   4.947   2.628   3.084
27322WAT     H182208   4.925   2.538   3.120
27322WAT     H282209   4.863   2.678   3.063
27323WAT      O82210   3.006   2.539   0.297
27323WAT     H182211   3.076   2.477   0.261
27323WAT     H282212   2.928   2.486   0.329
27324WAT      O82213   8.440   5.138   9.078
27324WAT     H182214   8.395   5.055   9.112
27324WAT     H282215   8.534   5.140   9.110
27325WAT      O82216   1.410   7.653   4.766
27325WAT     H182217   1.381   7.611   4.680
27325WAT     H282218   1.372   7.602   4.843
27326WAT      O82219   4.027   5.546   8.806
27326WAT     H182220   4.061   5.464   8.761
27326WAT     H282221   4.059   5.627   8.757
27327WAT      O82222   9.739   8.749   7.829
27327WAT     H182223   9.662   8.721   7.886
27327WAT     H282224   9.753   8.682   7.756
27328WAT      O82225   2.306   1.051   7.430
27328WAT     H182226   2.348   0.970   7.472
27328WAT     H282227   2.339   1.061   7.336
27329WAT      O82228   9.570   1.272   8.944
27329WAT     H182229   9.616   1.261   8.856
27329WAT     H282230   9.628   1.234   9.016
27330WAT      O82231   9.191   4.498   6.612
27330WAT     H182232   9.142   4.412   6.629
27330WAT     H282233   9.256   4.486   6.537
27331WAT      O82234   4.248   1.881   0.931
27331WAT     H182235   4.273   1.830   0.849
27331WAT     H282236   4.310   1.857   1.005
27332WAT      O82237   9.322   7.925   0.788
27332WAT     H182238   9.223   7.925   0.773
27332WAT     H282239   9.365   7.990   0.726
27333WAT      O82240   4.765   5.771   5.298
27333WAT     H182241   4.750   5.743   5.203
27333WAT     H282242   4.740   5.868   5.309
27334WAT      O82243   4.455   0.861   0.457
27334WAT     H182244   4.376   0.829   0.405
27334WAT     H282245   4.507   0.782   0.491
27335WAT      O82246   6.550   7.688   6.013
27335WAT     H182247   6.642   7.689   6.052
27335WAT     H282248   6.553   7.645   5.923
27336WAT      O82249   4.231   8.636   2.266
27336WAT     H182250   4.202   8.652   2.172
27336WAT     H282251   4.331   8.629   2.268
27337WAT      O82252   5.828   1.953   3.067
27337WAT     H182253   5.738   1.910   3.064
27337WAT     H282254   5.831   2.019   3.142
27338WAT      O82255   5.261   1.250   3.890
27338WAT     H182256   5.259   1.301   3.805
27338WAT     H282257   5.348   1.201   3.898
27339WAT      O82258   6.178   4.587   8.903
27339WAT     H182259   6.222   4.534   8.830
27339WAT     H282260   6.086   4.552   8.918
27340WAT      O82261   5.866   3.076   9.857
27340WAT     H182262   5.769   3.077   9.833
27340WAT     H282263   5.914   3.145   9.804
27341WAT      O82264   4.014   0.442   4.986
27341WAT     H182265   3.999   0.356   5.035
27341WAT     H282266   4.109   0.446   4.953
27342WAT      O82267   8.942   9.717   7.742
27342WAT     H182268   8.934   9.636   7.799
27342WAT     H282269   8.940   9.799   7.799
27343WAT      O82270   3.952   8.207   7.900
27343WAT     H182271   3.974   8.112   7.877
27343WAT     H282272   3.900   8.249   7.826
27344WAT      O82273   6.006   5.250   6.755
27344WAT     H182274   6.047   5.228   6.667
27344WAT     H282275   5.985   5.347   6.760
27345WAT      O82276   3.380   1.432   5.068
27345WAT     H182277   3.286   1.420   5.036
27345WAT     H282278   3.396   1.372   5.146
27346WAT      O82279   4.960   6.075   0.250
27346WAT     H182280   5.026   6.149   0.235
27346WAT     H282281   4.877   6.112   0.291
27347WAT      O82282   7.386   7.565   5.004
27347WAT     H182283   7.406   7.480   5.053
27347WAT     H282284   7.462   7.630   5.017
27348WAT      O82285   2.116   0.726   9.883
27348WAT     H182286   2.111   0.720   9.784
27348WAT     H282287   2.128   0.822   9.910
27349WAT      O82288   3.363   5.642   3.649
27349WAT     H182289   3.407   5.717   3.600
27349WAT     H282290   3.350   5.564   3.588
27350WAT      O82291   6.997   4.818   1.814
27350WAT     H182292   6.921   4.761   1.782
27350WAT     H282293   7.026   4.788   1.905
27351WAT      O82294   6.977   8.722   3.832
27351WAT     H182295   6.894   8.738   3.778
27351WAT     H282296   7.026   8.643   3.795
27352WAT      O82297   0.250   3.056   8.999
27352WAT     H182298   0.154   3.062   9.028
27352WAT     H282299   0.309   3.054   9.080
27353WAT      O82300   5.134   0.071   0.195
27353WAT     H182301   5.159   0.091   0.101
27353WAT     H282302   5.167   0.144   0.255
27354WAT      O82303   1.033   9.325   5.242
27354WAT     H182304   0.977   9.248   5.211
27354WAT     H282305   1.128   9.296   5.248
27355WAT      O82306   4.766   4.656   5.660
27355WAT     H182307   4.783   4.749   5.692
27355WAT     H282308   4.755   4.656   5.561
27356WAT      O82309   6.554   9.507   9.538
27356WAT     H182310   6.499   9.533   9.459
27356WAT     H282311   6.591   9.590   9.580
27357WAT      O82312   2.526   4.027   5.992
27357WAT     H182313   2.576   4.060   6.071
27357WAT     H282314   2.579   4.044   5.909
27358WAT      O82315   2.693   2.556   9.545
27358WAT     H182316   2.757   2.537   9.471
27358WAT     H282317   2.744   2.575   9.629
27359WAT      O82318   9.062   1.882   3.707
27359WAT     H182319   9.083   1.859   3.802
27359WAT     H282320   8.964   1.900   3.698
27360WAT      O82321   7.201   6.710   9.621
27360WAT     H182322   7.140   6.762   9.562
27360WAT     H282323   7.151   6.634   9.663
27361WAT      O82324   0.293   0.936   7.062
27361WAT     H182325   0.262   0.957   7.154
27361WAT     H282326   0.340   0.848   7.061
27362WAT      O82327   2.396   0.599   6.144
27362WAT     H182328   2.361   0.687   6.176
27362WAT     H282329   2.371   0.586   6.048
27363WAT      O82330   8.304   5.212   5.677
27363WAT     H182331   8.248   5.166   5.746
27363WAT     H282332   8.401   5.202   5.701
27364WAT      O82333   8.305   4.800   1.797
27364WAT     H182334   8.403   4.812   1.813
27364WAT     H282335   8.254   4.840   1.873
27365WAT      O82336   0.564   0.623   5.447
27365WAT     H182337   0.488   0.659   5.500
27365WAT     H282338   0.642   0.608   5.508
27366WAT      O82339   0.630   4.640   9.214
27366WAT     H182340   0.634   4.569   9.144
27366WAT     H282341   0.711   4.697   9.208
27367WAT      O82342   5.660   3.219   8.552
27367WAT     H182343   5.716   3.285   8.602
27367WAT     H282344   5.669   3.129   8.595
27368WAT      O82345   8.794   9.813   5.430
27368WAT     H182346   8.773   9.906   5.458
27368WAT     H282347   8.848   9.814   5.346
27369WAT      O82348   7.498   7.882   1.564
27369WAT     H182349   7.435   7.955   1.590
27369WAT     H282350   7.465   7.795   1.598
27370WAT      O82351   1.139   4.517   9.770
27370WAT     H182352   1.196   4.503   9.851
27370WAT     H282353   1.196   4.548   9.694
27371WAT      O82354   2.265   5.304   3.067
27371WAT     H182355   2.317   5.254   3.136
27371WAT     H282356   2.307   5.289   2.977
27372WAT      O82357   5.458   3.974   1.112
27372WAT     H182358   5.433   3.908   1.042
27372WAT     H282359   5.490   3.925   1.193
27373WAT      O82360   8.801   0.132   6.555
27373WAT     H182361   8.704   0.124   6.530
27373WAT     H282362   8.854   0.157   6.474
27374WAT      O82363   8.706   8.976   0.880
27374WAT     H182364   8.729   8.948   0.973
27374WAT     H282365   8.744   8.910   0.815
27375WAT      O82366   8.957   4.024   9.347
27375WAT     H182367   8.916   3.967   9.418
27375WAT     H282368   9.003   3.965   9.280
27376WAT      O82369   3.318   3.012   4.460
27376WAT     H182370   3.331   3.111   4.466
27376WAT     H282371   3.406   2.968   4.439
27377WAT      O82372   0.444   0.556   4.260
27377WAT     H182373   0.510   0.566   4.184
27377WAT     H282374   0.443   0.461   4.290
27378WAT      O82375   1.561   2.165   5.930
27378WAT     H182376   1.473   2.202   5.958
27378WAT     H282377   1.594   2.214   5.849
27379WAT      O82378   6.542   6.344   2.941
27379WAT     H182379   6.517   6.256   2.980
27379WAT     H282380   6.476   6.414   2.969
27380WAT      O82381   4.391   2.325   5.648
27380WAT     H182382   4.474   2.275   5.623
27380WAT     H282383   4.381   2.326   5.747
27381WAT      O82384   0.789   0.688   3.970
27381WAT     H182385   0.722   0.615   3.980
27381WAT     H282386   0.754   0.773   4.010
27382WAT      O82387   5.220   4.711   0.850
27382WAT     H182388   5.240   4.659   0.934
27382WAT     H282389   5.208   4.807   0.873
27383WAT      O82390   9.861   5.185   5.167
27383WAT     H182391   9.813   5.155   5.250
27383WAT     H282392   9.820   5.270   5.134
27384WAT      O82393   3.597   7.585   4.726
27384WAT     H182394   3.615   7.681   4.748
27384WAT     H282395   3.503   7.562   4.752
27385WAT      O82396   8.927   1.512   1.785
27385WAT     H182397   8.986   1.469   1.717
27385WAT     H282398   8.981   1.534   1.867
27386WAT      O82399   0.269   9.637   5.081
27386WAT     H182400   0.354   9.619   5.032
27386WAT     H282401   0.281   9.716   5.141
27387WAT      O82402   3.647   4.522   3.769
27387WAT     H182403   3.707   4.458   3.722
27387WAT     H282404   3.665   4.518   3.868
27388WAT      O82405   0.144   6.693   1.049
27388WAT     H182406   0.207   6.768   1.027
27388WAT     H282407   0.138   6.683   1.149
27389WAT      O82408   8.109   6.162   0.253
27389WAT     H182409   8.099   6.257   0.283
27389WAT     H282410   8.135   6.105   0.331
27390WAT      O82411   8.055   1.194   0.048
27390WAT     H182412   8.011   1.243  -0.027
27390WAT     H282413   8.094   1.109   0.014
27391WAT      O82414   1.643   2.337   0.233
27391WAT     H182415   1.691   2.275   0.171
27391WAT     H282416   1.574   2.388   0.182
27392WAT      O82417   4.546   2.136   6.040
27392WAT     H182418   4.539   2.104   5.946
27392WAT     H282419   4.621   2.201   6.048
27393WAT      O82420   7.024   8.009   4.116
27393WAT     H182421   7.003   7.945   4.189
27393WAT     H282422   6.947   8.016   4.053
27394WAT      O82423   6.718   2.222   8.550
27394WAT     H182424   6.677   2.159   8.616
27394WAT     H282425   6.655   2.237   8.475
27395WAT      O82426   2.260   6.730   1.295
27395WAT     H182427   2.303   6.768   1.377
27395WAT     H282428   2.252   6.631   1.305
27396WAT      O82429   8.443   3.649   5.883
27396WAT     H182430   8.489   3.675   5.798
27396WAT     H282431   8.428   3.550   5.884
27397WAT      O82432   7.663   9.513   9.832
27397WAT     H182433   7.623   9.556   9.913
27397WAT     H282434   7.608   9.434   9.805
27398WAT      O82435   0.423   3.059   9.212
27398WAT     H182436   0.381   3.065   9.302
27398WAT     H282437   0.439   3.151   9.176
27399WAT      O82438   3.948   7.128   0.258
27399WAT     H182439   3.887   7.162   0.330
27399WAT     H282440   3.898   7.063   0.201
27400WAT      O82441   4.723   2.239   3.805
27400WAT     H182442   4.688   2.331   3.790
27400WAT     H282443   4.739   2.194   3.718
27401WAT      O82444   7.495   4.516   2.607
27401WAT     H182445   7.552   4.552   2.681
27401WAT     H282446   7.543   4.526   2.520
27402WAT      O82447   8.935   9.557   2.172
27402WAT     H182448   8.883   9.643   2.174
27402WAT     H282449   8.993   9.555   2.091
27403WAT      O82450   1.850   1.564   0.219
27403WAT     H182451   1.932   1.617   0.200
27403WAT     H282452   1.838   1.494   0.148
27404WAT      O82453   5.849   4.249   1.778
27404WAT     H182454   5.764   4.200   1.761
27404WAT     H282455   5.925   4.200   1.736
27405WAT      O82456   3.815   9.144   8.003
27405WAT     H182457   3.787   9.219   8.063
27405WAT     H282458   3.740   9.119   7.943
27406WAT      O82459   1.790   8.671   0.493
27406WAT     H182460   1.713   8.684   0.431
27406WAT     H282461   1.806   8.755   0.544
27407WAT      O82462   6.464   7.484   6.370
27407WAT     H182463   6.445   7.458   6.464
27407WAT     H282464   6.380   7.476   6.315
27408WAT      O82465   7.018   9.729   8.546
27408WAT     H182466   7.027   9.642   8.497
27408WAT     H282467   7.058   9.720   8.637
27409WAT      O82468   8.093   7.848   0.841
27409WAT     H182469   8.036   7.860   0.760
27409WAT     H282470   8.104   7.936   0.888
27410WAT      O82471   2.111   8.686   1.196
27410WAT     H182472   2.148   8.627   1.268
27410WAT     H282473   2.155   8.776   1.201
27411WAT      O82474   4.479   8.557   5.712
27411WAT     H182475   4.531   8.604   5.784
27411WAT     H282476   4.454   8.465   5.743
27412WAT      O82477   6.568   9.278   9.698
27412WAT     H182478   6.516   9.337   9.636
27412WAT     H282479   6.594   9.195   9.649
27413WAT      O82480   9.245   8.107   4.447
27413WAT     H182481   9.215   8.028   4.499
27413WAT     H282482   9.270   8.181   4.510
27414WAT      O82483   8.414   3.113   4.960
27414WAT     H182484   8.510   3.109   4.932
27414WAT     H282485   8.358   3.137   4.881
27415WAT      O82486   2.315   4.097   4.947
27415WAT     H182487   2.221   4.129   4.956
27415WAT     H282488   2.321   4.034   4.869
27416WAT      O82489   2.009   8.163   2.111
27416WAT     H182490   2.023   8.261   2.128
27416WAT     H282491   1.938   8.129   2.172
27417WAT      O82492   4.434   8.670   8.667
27417WAT     H182493   4.393   8.678   8.576
27417WAT     H282494   4.363   8.664   8.736
27418WAT      O82495   1.864   0.972   4.361
27418WAT     H182496   1.881   1.035   4.436
27418WAT     H282497   1.785   1.003   4.308
27419WAT      O82498   9.668   2.480   5.062
27419WAT     H182499   9.734   2.554   5.060
27419WAT     H282500   9.576   2.516   5.080
27420WAT      O82501   3.843   8.021   9.205
27420WAT     H182502   3.831   7.946   9.270
27420WAT     H282503   3.914   7.998   9.139
27421WAT      O82504   8.811   7.765   8.935
27421WAT     H182505   8.833   7.678   8.891
27421WAT     H282506   8.893   7.802   8.979
27422WAT      O82507   1.221   6.600   7.560
27422WAT     H182508   1.198   6.607   7.463
27422WAT     H282509   1.296   6.536   7.572
27423WAT      O82510   8.966   5.385   2.784
27423WAT     H182511   9.059   5.402   2.750
27423WAT     H282512   8.912   5.468   2.778
27424WAT      O82513   1.325   3.509   1.498
27424WAT     H182514   1.402   3.572   1.499
27424WAT     H282515   1.358   3.415   1.493
27425WAT      O82516   6.162   9.821   7.341
27425WAT     H182517   6.173   9.750   7.271
27425WAT     H282518   6.248   9.831   7.391
27426WAT      O82519   2.983   5.126   3.056
27426WAT     H182520   3.026   5.191   2.994
27426WAT     H282521   2.974   5.038   3.010
27427WAT      O82522   5.308   1.007   7.117
27427WAT     H182523   5.340   1.052   7.033
27427WAT     H282524   5.370   1.030   7.192
27428WAT      O82525   1.299   9.262   5.337
27428WAT     H182526   1.394   9.280   5.310
27428WAT     H282527   1.296   9.180   5.394
27429WAT      O82528   1.938   9.605   1.287
27429WAT     H182529   1.983   9.516   1.300
27429WAT     H282530   1.869   9.597   1.215
27430WAT      O82531   6.785   0.806   9.707
27430WAT     H182532   6.712   0.752   9.667
27430WAT     H282533   6.871   0.785   9.661
27431WAT      O82534   0.078   8.076   1.615
27431WAT     H182535   0.083   8.011   1.540
27431WAT     H282536   0.151   8.057   1.681
27432WAT      O82537   9.421   1.919   9.072
27432WAT     H182538   9.410   1.820   9.082
27432WAT     H282539   9.364   1.965   9.140
27433WAT      O82540   1.590   8.537   4.851
27433WAT     H182541   1.614   8.598   4.927
27433WAT     H282542   1.519   8.579   4.795
27434WAT      O82543   0.270   5.877   4.521
27434WAT     H182544   0.279   5.961   4.574
27434WAT     H282545   0.358   5.854   4.480
27435WAT      O82546   2.056   0.226   6.702
27435WAT     H182547   2.092   0.253   6.612
27435WAT     H282548   1.958   0.210   6.695
27436WAT      O82549   6.566   8.558   8.597
27436WAT     H182550   6.562   8.521   8.690
27436WAT     H282551   6.622   8.499   8.540
27437WAT      O82552   2.346   3.452   3.261
27437WAT     H182553   2.324   3.419   3.353
27437WAT     H282554   2.386   3.377   3.208
27438WAT      O82555   4.180   1.246   5.101
27438WAT     H182556   4.210   1.307   5.028
27438WAT     H282557   4.209   1.152   5.080
27439WAT      O82558   3.777   9.635   9.097
27439WAT     H182559   3.699   9.697   9.100
27439WAT     H282560   3.858   9.681   9.133
27440WAT      O82561   0.254   9.048   2.178
27440WAT     H182562   0.315   9.026   2.102
27440WAT     H282563   0.173   9.095   2.144
27441WAT      O82564   3.629   0.902   8.922
27441WAT     H182565   3.684   0.960   8.983
27441WAT     H282566   3.542   0.946   8.904
27442WAT      O82567   0.753   6.958   0.288
27442WAT     H182568   0.731   7.021   0.362
27442WAT     H282569   0.843   6.918   0.305
27443WAT      O82570   8.200   1.014   0.389
27443WAT     H182571   8.182   1.021   0.487
27443WAT     H282572   8.166   0.926   0.355
27444WAT      O82573   5.932   2.560   9.045
27444WAT     H182574   5.938   2.649   9.089
27444WAT     H282575   5.885   2.569   8.957
27445WAT      O82576   4.697   0.918   6.753
27445WAT     H182577   4.629   0.990   6.739
27445WAT     H282578   4.714   0.908   6.851
27446WAT      O82579   4.357   1.828   5.825
27446WAT     H182580   4.358   1.781   5.737
27446WAT     H282581   4.426   1.900   5.825
27447WAT      O82582   1.255   7.250   4.549
27447WAT     H182583   1.178   7.262   4.486
27447WAT     H282584   1.225   7.195   4.627
27448WAT      O82585   9.622   0.716   5.916
27448WAT     H182586   9.625   0.618   5.938
27448WAT     H282587   9.672   0.768   5.985
27449WAT      O82588   3.370   0.651   0.744
27449WAT     H182589   3.276   0.623   0.764
27449WAT     H282590   3.431   0.571   0.749
27450WAT      O82591   4.505   5.532   9.288
27450WAT     H182592   4.485   5.547   9.384
27450WAT     H282593   4.510   5.620   9.241
27451WAT      O82594   5.651   4.138   3.010
27451WAT     H182595   5.618   4.217   3.061
27451WAT     H282596   5.583   4.112   2.942
27452WAT      O82597   9.014   0.927   1.391
27452WAT     H182598   9.022   0.862   1.467
27452WAT     H282599   8.930   0.981   1.402
27453WAT      O82600   0.053   0.840   5.323
27453WAT     H182601   0.056   0.758   5.266
27453WAT     H282602   0.067   0.815   5.419
27454WAT      O82603   7.824   7.540   3.357
27454WAT     H182604   7.782   7.582   3.438
27454WAT     H282605   7.923   7.537   3.369
27455WAT      O82606   4.932   1.406   4.475
27455WAT     H182607   4.885   1.485   4.515
27455WAT     H282608   4.984   1.437   4.395
27456WAT      O82609   6.384   2.654   2.886
27456WAT     H182610   6.346   2.737   2.847
27456WAT     H282611   6.484   2.658   2.882
27457WAT      O82612   7.634   1.982   6.599
27457WAT     H182613   7.665   1.932   6.518
27457WAT     H282614   7.617   2.077   6.575
27458WAT      O82615   6.725   0.362   3.346
27458WAT     H182616   6.792   0.306   3.298
27458WAT     H282617   6.643   0.307   3.365
27459WAT      O82618   6.259   6.928   2.852
27459WAT     H182619   6.241   6.833   2.878
27459WAT     H282620   6.358   6.942   2.845
27460WAT      O82621   0.637   9.013   7.673
27460WAT     H182622   0.627   8.975   7.582
27460WAT     H282623   0.547   9.036   7.710
27461WAT      O82624   3.778   4.192   0.967
27461WAT     H182625   3.686   4.228   0.982
27461WAT     H282626   3.823   4.178   1.055
27462WAT      O82627   6.000   6.580   0.679
27462WAT     H182628   5.920   6.590   0.620
27462WAT     H282629   6.045   6.669   0.690
27463WAT      O82630   1.125   2.761   9.629
27463WAT     H182631   1.187   2.769   9.552
27463WAT     H282632   1.098   2.852   9.660
27464WAT      O82633   7.486   1.395   5.333
27464WAT     H182634   7.536   1.445   5.403
27464WAT     H282635   7.421   1.333   5.376
27465WAT      O82636   0.493   2.056   8.264
27465WAT     H182637   0.427   2.117   8.306
27465WAT     H282638   0.519   2.090   8.174
27466WAT      O82639   3.551   1.289   8.857
27466WAT     H182640   3.509   1.204   8.891
27466WAT     H282641   3.490   1.332   8.791
27467WAT      O82642   9.241   5.044   3.235
27467WAT     H182643   9.286   4.985   3.302
27467WAT     H282644   9.207   4.990   3.159
27468WAT      O82645   9.830   6.767   9.186
27468WAT     H182646   9.779   6.697   9.236
27468WAT     H282647   9.928   6.746   9.189
27469WAT      O82648   2.886   3.278   6.754
27469WAT     H182649   2.792   3.260   6.724
27469WAT     H282650   2.946   3.204   6.724
27470WAT      O82651   9.884   5.481   4.172
27470WAT     H182652   9.927   5.484   4.262
27470WAT     H282653   9.785   5.478   4.182
27471WAT      O82654   8.843   0.240   2.905
27471WAT     H182655   8.830   0.337   2.881
27471WAT     H282656   8.939   0.224   2.928
27472WAT      O82657   8.863   3.367   5.815
27472WAT     H182658   8.950   3.339   5.775
27472WAT     H282659   8.808   3.286   5.837
27473WAT      O82660   3.547   6.732   5.870
27473WAT     H182661   3.482   6.762   5.940
27473WAT     H282662   3.498   6.695   5.792
27474WAT      O82663   0.402   5.201   6.663
27474WAT     H182664   0.374   5.105   6.674
27474WAT     H282665   0.399   5.226   6.566
27475WAT      O82666   6.622   6.896   7.830
27475WAT     H182667   6.590   6.804   7.850
27475WAT     H282668   6.647   6.942   7.915
27476WAT      O82669   2.802   0.685   8.642
27476WAT     H182670   2.798   0.761   8.577
27476WAT     H282671   2.813   0.720   8.735
27477WAT      O82672   0.767   1.992   2.895
27477WAT     H182673   0.830   1.916   2.910
27477WAT     H282674   0.737   1.993   2.799
27478WAT      O82675   9.767   1.071   2.900
27478WAT     H182676   9.794   1.130   2.823
27478WAT     H282677   9.844   1.064   2.964
27479WAT      O82678   5.288   1.774   6.678
27479WAT     H182679   5.242   1.733   6.757
27479WAT     H282680   5.264   1.871   6.672
27480WAT      O82681   9.454   4.218   4.930
27480WAT     H182682   9.502   4.139   4.968
27480WAT     H282683   9.448   4.210   4.831
27481WAT      O82684   8.966   1.459   9.466
27481WAT     H182685   9.041   1.397   9.444
27481WAT     H282686   8.884   1.406   9.485
27482WAT      O82687   6.857   8.328   3.870
27482WAT     H182688   6.948   8.348   3.906
27482WAT     H282689   6.794   8.402   3.896
27483WAT      O82690   6.967   4.215   0.861
27483WAT     H182691   6.995   4.191   0.954
27483WAT     H282692   6.916   4.301   0.862
27484WAT      O82693   8.735   7.949   2.509
27484WAT     H182694   8.736   7.850   2.494
27484WAT     H282695   8.739   7.996   2.421
27485WAT      O82696   5.168   2.077   5.915
27485WAT     H182697   5.253   2.106   5.871
27485WAT     H282698   5.149   2.136   5.993
27486WAT      O82699   6.848   3.946   3.021
27486WAT     H182700   6.893   3.963   2.933
27486WAT     H282701   6.874   3.855   3.054
27487WAT      O82702   8.523   2.232   4.201
27487WAT     H182703   8.484   2.220   4.110
27487WAT     H282704   8.579   2.152   4.224
27488WAT      O82705   9.616   5.523   4.193
27488WAT     H182706   9.592   5.559   4.283
27488WAT     H282707   9.548   5.553   4.126
27489WAT      O82708   8.341   8.985   6.231
27489WAT     H182709   8.304   8.915   6.170
27489WAT     H282710   8.429   8.954   6.267
27490WAT      O82711   3.708   9.016   1.178
27490WAT     H182712   3.687   9.040   1.083
27490WAT     H282713   3.622   9.000   1.227
27491WAT      O82714   2.581   0.784   4.308
27491WAT     H182715   2.675   0.772   4.341
27491WAT     H282716   2.574   0.870   4.259
27492WAT      O82717   5.078   0.114   6.474
27492WAT     H182718   5.132   0.194   6.500
27492WAT     H282719   5.085   0.044   6.546
27493WAT      O82720   3.252   0.405   7.246
27493WAT     H182721   3.297   0.354   7.319
27493WAT     H282722   3.153   0.405   7.262
27494WAT      O82723   1.982   7.475   9.564
27494WAT     H182724   1.960   7.394   9.509
27494WAT     H282725   1.993   7.554   9.504
27495WAT      O82726   0.391   3.220   1.429
27495WAT     H182727   0.335   3.226   1.512
27495WAT     H282728   0.344   3.164   1.361
27496WAT      O82729   9.689   0.737   3.728
27496WAT     H182730   9.779   0.768   3.760
27496WAT     H282731   9.661   0.657   3.780
27497WAT      O82732   3.962   7.472   6.024
27497WAT     H182733   3.970   7.568   5.998
27497WAT     H282734   3.866   7.445   6.022
27498WAT      O82735   7.727   1.668   1.798
27498WAT     H182736   7.704   1.647   1.703
27498WAT     H282737   7.744   1.767   1.808
27499WAT      O82738   3.759   0.551   7.108
27499WAT     H182739   3.807   0.601   7.035
27499WAT     H282740   3.826   0.516   7.173
27500WAT      O82741   3.637   2.186   6.180
27500WAT     H182742   3.703   2.195   6.255
27500WAT     H282743   3.638   2.091   6.147
27501WAT      O82744   2.615   2.072   2.473
27501WAT     H182745   2.517   2.056   2.488
27501WAT     H282746   2.635   2.169   2.490
27502WAT      O82747   6.704   9.353   1.033
27502WAT     H182748   6.608   9.368   1.009
27502WAT     H282749   6.711   9.289   1.109
27503WAT      O82750   2.721   0.621   5.017
27503WAT     H182751   2.779   0.548   5.053
27503WAT     H282752   2.628   0.612   5.053
27504WAT      O82753   6.240   3.557   3.889
27504WAT     H182754   6.188   3.554   3.804
27504WAT     H282755   6.231   3.648   3.930
27505WAT      O82756   5.095   0.274   5.847
27505WAT     H182757   5.103   0.223   5.761
27505WAT     H282758   5.085   0.210   5.923
27506WAT      O82759   0.788   0.553   4.537
27506WAT     H182760   0.762   0.460   4.564
27506WAT     H282761   0.799   0.558   4.438
27507WAT      O82762   0.022   3.912   2.077
27507WAT     H182763   0.110   3.915   2.124
27507WAT     H282764  -0.009   3.818   2.070
27508WAT      O82765   2.570   5.798   5.643
27508WAT     H182766   2.497   5.843   5.696
27508WAT     H282767   2.601   5.859   5.570
27509WAT      O82768   0.499   5.522   2.374
27509WAT     H182769   0.552   5.552   2.294
27509WAT     H282770   0.459   5.601   2.419
27510WAT      O82771   7.944   1.183   9.163
27510WAT     H182772   7.893   1.124   9.101
27510WAT     H282773   7.938   1.146   9.256
27511WAT      O82774   0.093   2.033   4.560
27511WAT     H182775   0.148   1.980   4.495
27511WAT     H282776   0.019   1.975   4.595
27512WAT      O82777   1.397   7.427   9.569
27512WAT     H182778   1.372   7.366   9.644
27512WAT     H282779   1.488   7.466   9.587
27513WAT      O82780   8.768   1.655   6.515
27513WAT     H182781   8.732   1.672   6.424
27513WAT     H282782   8.828   1.731   6.542
27514WAT      O82783   0.530   1.859   2.165
27514WAT     H182784   0.461   1.860   2.093
27514WAT     H282785   0.602   1.925   2.144
27515WAT      O82786   2.192   2.754   9.623
27515WAT     H182787   2.161   2.775   9.716
27515WAT     H282788   2.233   2.836   9.582
27516WAT      O82789   2.917   7.524   8.802
27516WAT     H182790   2.938   7.533   8.900
27516WAT     H282791   2.905   7.614   8.762
27517WAT      O82792   8.673   6.059   7.982
27517WAT     H182793   8.625   6.042   8.068
27517WAT     H282794   8.676   5.975   7.928
27518WAT      O82795   6.427   1.024   3.207
27518WAT     H182796   6.436   1.109   3.154
27518WAT     H282797   6.377   0.956   3.154
27519WAT      O82798   0.145   9.728   8.199
27519WAT     H182799   0.192   9.656   8.147
27519WAT     H282800   0.048   9.727   8.175
27520WAT      O82801   3.297   8.449   0.525
27520WAT     H182802   3.255   8.498   0.602
27520WAT     H282803   3.299   8.351   0.544
27521WAT      O82804   6.471   9.356   1.312
27521WAT     H182805   6.552   9.307   1.281
27521WAT     H282806   6.498   9.447   1.346
27522WAT      O82807   8.796   0.966   9.803
27522WAT     H182808   8.877   0.913   9.830
27522WAT     H282809   8.742   0.986   9.884
27523WAT      O82810   6.381   6.589   5.878
27523WAT     H182811   6.294   6.630   5.852
27523WAT     H282812   6.379   6.563   5.974
27524WAT      O82813   2.392   9.567   2.695
27524WAT     H182814   2.488   9.550   2.718
27524WAT     H282815   2.384   9.591   2.599
27525WAT      O82816   5.256   1.571   0.421
27525WAT     H182817   5.338   1.572   0.479
27525WAT     H282818   5.201   1.652   0.442
27526WAT      O82819   3.652   7.862   4.767
27526WAT     H182820   3.658   7.874   4.668
27526WAT     H282821   3.744   7.870   4.807
27527WAT      O82822   4.439   4.838   8.591
27527WAT     H182823   4.479   4.759   8.638
27527WAT     H282824   4.431   4.819   8.493
27528WAT      O82825   7.601   2.995   3.989
27528WAT     H182826   7.578   3.084   4.029
27528WAT     H282827   7.680   3.004   3.929
27529WAT      O82828   3.043   8.624   2.096
27529WAT     H182829   3.045   8.706   2.038
27529WAT     H282830   2.979   8.639   2.172
27530WAT      O82831   4.104   6.628   2.388
27530WAT     H182832   4.139   6.541   2.350
27530WAT     H282833   4.181   6.688   2.407
27531WAT      O82834   7.555   7.880   7.541
27531WAT     H182835   7.571   7.875   7.640
27531WAT     H282836   7.508   7.966   7.520
27532WAT      O82837   8.741   0.224   1.703
27532WAT     H182838   8.763   0.135   1.744
27532WAT     H282839   8.779   0.297   1.760
27533WAT      O82840   2.242   6.227   7.471
27533WAT     H182841   2.147   6.236   7.440
27533WAT     H282842   2.277   6.316   7.498
27534WAT      O82843   2.244   4.309   9.488
27534WAT     H182844   2.263   4.232   9.550
27534WAT     H282845   2.159   4.353   9.515
27535WAT      O82846   5.068   2.928   4.456
27535WAT     H182847   5.133   2.965   4.390
27535WAT     H282848   5.048   2.997   4.526
27536WAT      O82849   2.631   1.625   2.606
27536WAT     H182850   2.590   1.628   2.515
27536WAT     H282851   2.615   1.712   2.653
27537WAT      O82852   8.551   1.749   2.759
27537WAT     H182853   8.573   1.796   2.674
27537WAT     H282854   8.586   1.655   2.755
27538WAT      O82855   2.168   0.760   7.125
27538WAT     H182856   2.133   0.666   7.124
27538WAT     H282857   2.092   0.824   7.125
27539WAT      O82858   4.437   3.602   8.801
27539WAT     H182859   4.499   3.637   8.871
27539WAT     H282860   4.384   3.526   8.839
27540WAT      O82861   3.857   0.819   5.001
27540WAT     H182862   3.873   0.900   5.057
27540WAT     H282863   3.840   0.740   5.060
27541WAT      O82864   4.642   4.893   9.193
27541WAT     H182865   4.581   4.866   9.118
27541WAT     H282866   4.667   4.989   9.183
27542WAT      O82867   1.052   7.253   0.239
27542WAT     H182868   1.135   7.309   0.244
27542WAT     H282869   1.059   7.177   0.304
27543WAT      O82870   6.510   2.779   9.568
27543WAT     H182871   6.497   2.843   9.493
27543WAT     H282872   6.593   2.725   9.552
27544WAT      O82873   9.649   1.417   0.731
27544WAT     H182874   9.570   1.396   0.673
27544WAT     H282875   9.662   1.343   0.797
27545WAT      O82876   5.290   6.005   2.065
27545WAT     H182877   5.228   5.929   2.086
27545WAT     H282878   5.238   6.090   2.056
27546WAT      O82879   4.851   0.646   3.210
27546WAT     H182880   4.937   0.675   3.253
27546WAT     H282881   4.833   0.550   3.233
27547WAT      O82882   4.970   6.843   4.925
27547WAT     H182883   5.068   6.853   4.908
27547WAT     H282884   4.928   6.933   4.931
27548WAT      O82885   2.807   4.703   8.974
27548WAT     H182886   2.742   4.656   8.915
27548WAT     H282887   2.873   4.753   8.918
27549WAT      O82888   9.426   8.834   4.267
27549WAT     H182889   9.431   8.786   4.180
27549WAT     H282890   9.496   8.799   4.329
27550WAT      O82891   1.098   4.614   9.371
27550WAT     H182892   1.089   4.521   9.335
27550WAT     H282893   1.193   4.644   9.363
27551WAT      O82894   6.407   2.987   7.188
27551WAT     H182895   6.495   3.026   7.163
27551WAT     H282896   6.395   2.992   7.287
27552WAT      O82897   7.612   7.393   4.430
27552WAT     H182898   7.570   7.419   4.344
27552WAT     H282899   7.597   7.466   4.498
27553WAT      O82900   0.247   6.138   7.374
27553WAT     H182901   0.148   6.154   7.373
27553WAT     H282902   0.288   6.178   7.292
27554WAT      O82903   2.947   7.943   2.465
27554WAT     H182904   2.998   7.972   2.545
27554WAT     H282905   2.860   7.902   2.494
27555WAT      O82906   9.364   1.771   1.819
27555WAT     H182907   9.395   1.719   1.899
27555WAT     H282908   9.321   1.856   1.850
27556WAT      O82909   6.524   2.844   6.715
27556WAT     H182910   6.566   2.758   6.685
27556WAT     H282911   6.499   2.837   6.811
27557WAT      O82912   8.175   3.816   5.793
27557WAT     H182913   8.239   3.849   5.724
27557WAT     H282914   8.211   3.838   5.884
27558WAT      O82915   1.447   5.316   5.137
27558WAT     H182916   1.535   5.359   5.116
27558WAT     H282917   1.456   5.260   5.219
27559WAT      O82918   1.966   8.388   4.020
27559WAT     H182919   1.893   8.380   4.088
27559WAT     H282920   1.974   8.483   3.991
27560WAT      O82921   7.434   7.565   2.538
27560WAT     H182922   7.440   7.529   2.631
27560WAT     H282923   7.345   7.608   2.524
27561WAT      O82924   2.926   5.148   7.939
27561WAT     H182925   2.981   5.231   7.930
27561WAT     H282926   2.979   5.069   7.909
27562WAT      O82927   4.741   5.712   0.880
27562WAT     H182928   4.727   5.666   0.792
27562WAT     H282929   4.769   5.806   0.863
27563WAT      O82930   9.565   4.617   8.250
27563WAT     H182931   9.598   4.703   8.289
27563WAT     H282932   9.640   4.570   8.205
27564WAT      O82933   1.728   6.628   2.796
27564WAT     H182934   1.786   6.707   2.781
27564WAT     H282935   1.632   6.657   2.797
27565WAT      O82936   2.102   4.590   8.143
27565WAT     H182937   2.180   4.565   8.085
27565WAT     H282938   2.021   4.604   8.086
27566WAT      O82939   4.298   3.715   1.941
27566WAT     H182940   4.216   3.766   1.913
27566WAT     H282941   4.292   3.695   2.039
27567WAT      O82942   9.644   2.684   7.557
27567WAT     H182943   9.553   2.703   7.522
27567WAT     H282944   9.712   2.707   7.488
27568WAT      O82945   4.864   8.640   7.216
27568WAT     H182946   4.899   8.556   7.174
27568WAT     H282947   4.765   8.643   7.205
27569WAT      O82948   1.256   4.420   4.890
27569WAT     H182949   1.241   4.353   4.817
27569WAT     H282950   1.343   4.401   4.936
27570WAT      O82951   8.078   5.021   8.072
27570WAT     H182952   8.143   5.076   8.019
27570WAT     H282953   8.072   4.929   8.032
27571WAT      O82954   3.097   1.920   4.777
27571WAT     H182955   3.097   1.928   4.677
27571WAT     H282956   3.186   1.949   4.812
27572WAT      O82957   4.328   5.371   3.711
27572WAT     H182958   4.384   5.348   3.632
27572WAT     H282959   4.252   5.306   3.718
27573WAT      O82960   5.387   0.169   7.799
27573WAT     H182961   5.475   0.182   7.753
27573WAT     H282962   5.323   0.240   7.771
27574WAT      O82963   4.263   2.441   1.323
27574WAT     H182964   4.177   2.470   1.282
27574WAT     H282965   4.253   2.440   1.423
27575WAT      O82966   3.694   7.436   2.200
27575WAT     H182967   3.677   7.395   2.290
27575WAT     H282968   3.608   7.444   2.150
27576WAT      O82969   2.413   3.988   4.388
27576WAT     H182970   2.509   3.969   4.407
27576WAT     H282971   2.374   3.912   4.336
27577WAT      O82972   0.016   5.888   0.917
27577WAT     H182973   0.099   5.899   0.862
27577WAT     H282974  -0.062   5.927   0.868
27578WAT      O82975   9.239   0.625   1.506
27578WAT     H182976   9.231   0.527   1.522
27578WAT     H282977   9.218   0.645   1.410
27579WAT      O82978   7.284   1.154   5.404
27579WAT     H182979   7.322   1.100   5.479
27579WAT     H282980   7.329   1.129   5.318
27580WAT      O82981   1.488   7.334   3.301
27580WAT     H182982   1.465   7.352   3.206
27580WAT     H282983   1.403   7.329   3.355
27581WAT      O82984   1.715   9.771   6.777
27581WAT     H182985   1.648   9.731   6.839
27581WAT     H282986   1.806   9.762   6.817
27582WAT      O82987   3.198   2.576   9.660
27582WAT     H182988   3.126   2.548   9.596
27582WAT     H282989   3.255   2.646   9.617
27583WAT      O82990   9.286   7.793   4.244
27583WAT     H182991   9.271   7.714   4.185
27583WAT     H282992   9.202   7.847   4.251
27584WAT      O82993   4.679   3.973   1.601
27584WAT     H182994   4.678   4.028   1.685
27584WAT     H282995   4.733   3.890   1.616
27585WAT      O82996   0.965   5.116   2.446
27585WAT     H182997   1.006   5.103   2.356
27585WAT     H282998   0.871   5.147   2.436
27586WAT      O82999   4.800   8.922   3.832
27586WAT     H183000   4.892   8.923   3.872
27586WAT     H283001   4.746   8.997   3.871
27587WAT      O83002   8.513   7.643   5.914
27587WAT     H183003   8.552   7.609   6.000
27587WAT     H283004   8.494   7.566   5.853
27588WAT      O83005   5.390   8.310   0.383
27588WAT     H183006   5.427   8.389   0.430
27588WAT     H283007   5.396   8.230   0.443
27589WAT      O83008   8.169   7.450   6.216
27589WAT     H183009   8.082   7.415   6.251
27589WAT     H283010   8.181   7.421   6.121
27590WAT      O83011   3.219   5.059   2.416
27590WAT     H183012   3.197   5.134   2.478
27590WAT     H283013   3.278   4.994   2.463
27591WAT      O83014   5.411   2.490   2.467
27591WAT     H183015   5.423   2.467   2.371
27591WAT     H283016   5.448   2.417   2.524
27592WAT      O83017   6.654   2.394   5.885
27592WAT     H183018   6.579   2.329   5.877
27592WAT     H283019   6.726   2.355   5.943
27593WAT      O83020   7.757   4.753   9.169
27593WAT     H183021   7.847   4.735   9.130
27593WAT     H283022   7.692   4.685   9.136
27594WAT      O83023   0.541   8.593   7.969
27594WAT     H183024   0.484   8.672   7.992
27594WAT     H283025   0.485   8.526   7.920
27595WAT      O83026   8.987   2.785   2.796
27595WAT     H183027   9.082   2.770   2.770
27595WAT     H283028   8.957   2.875   2.764
27596WAT      O83029   6.977   2.656   2.432
27596WAT     H183030   7.042   2.703   2.373
27596WAT     H283031   7.026   2.611   2.507
27597WAT      O83032   9.674   3.017   8.858
27597WAT     H183033   9.616   3.099   8.854
27597WAT     H283034   9.755   3.037   8.913
27598WAT      O83035   3.705   1.342   5.408
27598WAT     H183036   3.745   1.255   5.436
27598WAT     H283037   3.778   1.404   5.378
27599WAT      O83038   7.263   0.808   9.411
27599WAT     H183039   7.231   0.751   9.336
27599WAT     H283040   7.189   0.867   9.443
27600WAT      O83041   7.425   2.390   6.050
27600WAT     H183042   7.457   2.452   5.978
27600WAT     H283043   7.362   2.323   6.010
27601WAT      O83044   1.666   1.345   0.102
27601WAT     H183045   1.750   1.308   0.143
27601WAT     H283046   1.587   1.318   0.157
27602WAT      O83047   8.965   7.528   9.633
27602WAT     H183048   8.979   7.626   9.624
27602WAT     H283049   8.886   7.510   9.691
27603WAT      O83050   8.959   6.334   7.490
27603WAT     H183051   9.031   6.395   7.456
27603WAT     H283052   8.997   6.243   7.507
27604WAT      O83053   8.232   9.005   4.256
27604WAT     H183054   8.213   8.916   4.215
27604WAT     H283055   8.174   9.075   4.213
27605WAT      O83056   4.324   1.533   4.691
27605WAT     H183057   4.410   1.509   4.738
27605WAT     H283058   4.258   1.566   4.759
27606WAT      O83059   9.727   7.756   2.823
27606WAT     H183060   9.772   7.822   2.763
27606WAT     H283061   9.784   7.674   2.829
27607WAT      O83062   3.922   6.214   1.711
27607WAT     H183063   3.900   6.150   1.785
27607WAT     H283064   4.013   6.252   1.726
27608WAT      O83065   9.116   8.427   3.371
27608WAT     H183066   9.143   8.523   3.365
27608WAT     H283067   9.113   8.399   3.467
27609WAT      O83068   5.184   0.107   2.441
27609WAT     H183069   5.116   0.167   2.399
27609WAT     H283070   5.156   0.012   2.432
27610WAT      O83071   1.462   2.330   7.900
27610WAT     H183072   1.394   2.398   7.876
27610WAT     H283073   1.418   2.251   7.943
27611WAT      O83074   5.058   3.872   1.470
27611WAT     H183075   5.064   3.969   1.490
27611WAT     H283076   5.091   3.855   1.377
27612WAT      O83077   5.825   2.048   8.088
27612WAT     H183078   5.897   2.117   8.097
27612WAT     H283079   5.748   2.086   8.036
27613WAT      O83080   2.581   2.532   0.040
27613WAT     H183081   2.549   2.469  -0.031
27613WAT     H283082   2.668   2.572   0.013
27614WAT      O83083   4.553   7.010   4.663
27614WAT     H183084   4.471   6.956   4.680
27614WAT     H283085   4.531   7.087   4.603
27615WAT      O83086   4.132   3.908   7.629
27615WAT     H183087   4.099   3.823   7.591
27615WAT     H283088   4.057   3.955   7.676
27616WAT      O83089   3.982   3.445   9.156
27616WAT     H183090   4.032   3.503   9.221
27616WAT     H283091   3.901   3.406   9.202
27617WAT      O83092   7.295   7.681   6.303
27617WAT     H183093   7.241   7.597   6.295
27617WAT     H283094   7.388   7.663   6.270
27618WAT      O83095   4.816   7.473   7.269
27618WAT     H183096   4.794   7.512   7.359
27618WAT     H283097   4.738   7.420   7.235
27619WAT      O83098   4.036   2.485   3.001
27619WAT     H183099   4.114   2.441   2.956
27619WAT     H283100   3.952   2.440   2.972
27620WAT      O83101   5.674   8.142   4.926
27620WAT     H183102   5.716   8.103   4.844
27620WAT     H283103   5.742   8.195   4.977
27621WAT      O83104   1.513   1.002   2.775
27621WAT     H183105   1.604   1.013   2.814
27621WAT     H283106   1.449   1.064   2.820
27622WAT      O83107   6.006   9.285   7.865
27622WAT     H183108   6.067   9.272   7.943
27622WAT     H283109   5.970   9.196   7.836
27623WAT      O83110   8.689   2.596   5.447
27623WAT     H183111   8.775   2.599   5.498
27623WAT     H283112   8.669   2.501   5.421
27624WAT      O83113   7.505   6.973   5.534
27624WAT     H183114   7.485   7.041   5.604
27624WAT     H283115   7.436   6.977   5.462
27625WAT      O83116   6.623   0.609   4.412
27625WAT     H183117   6.652   0.580   4.320
27625WAT     H283118   6.590   0.529   4.463
27626WAT      O83119   1.131   2.457   1.910
27626WAT     H183120   1.205   2.519   1.883
27626WAT     H283121   1.169   2.368   1.935
27627WAT      O83122   9.406   5.629   3.153
27627WAT     H183123   9.318   5.631   3.106
27627WAT     H283124   9.390   5.627   3.252
27628WAT      O83125   7.428   0.719   9.591
27628WAT     H183126   7.359   0.757   9.530
27628WAT     H283127   7.415   0.757   9.683
27629WAT      O83128   8.229   1.221   6.806
27629WAT     H183129   8.286   1.261   6.733
27629WAT     H283130   8.134   1.218   6.776
27630WAT      O83131   3.364   0.090   5.826
27630WAT     H183132   3.281   0.050   5.864
27630WAT     H283133   3.428   0.111   5.900
27631WAT      O83134   2.930   3.002   0.513
27631WAT     H183135   2.845   2.973   0.469
27631WAT     H283136   2.997   3.026   0.443
27632WAT      O83137   1.354   7.140   5.088
27632WAT     H183138   1.401   7.194   5.158
27632WAT     H283139   1.339   7.196   5.007
27633WAT      O83140   4.203   4.777   5.507
27633WAT     H183141   4.184   4.847   5.575
27633WAT     H283142   4.279   4.806   5.449
27634WAT      O83143   6.562   1.949   3.754
27634WAT     H183144   6.573   2.000   3.839
27634WAT     H283145   6.485   1.886   3.763
27635WAT      O83146   3.164   6.808   5.606
27635WAT     H183147   3.204   6.893   5.573
27635WAT     H283148   3.163   6.741   5.533
27636WAT      O83149   2.995   1.163   8.902
27636WAT     H183150   2.975   1.069   8.930
27636WAT     H283151   2.950   1.182   8.815
27637WAT      O83152   3.960   9.476   9.373
27637WAT     H183153   3.983   9.405   9.306
27637WAT     H283154   3.955   9.435   9.464
27638WAT      O83155   7.631   3.090   0.124
27638WAT     H183156   7.626   3.138   0.212
27638WAT     H283157   7.727   3.076   0.099
27639WAT      O83158   3.210   4.791   1.122
27639WAT     H183159   3.199   4.731   1.201
27639WAT     H283160   3.243   4.880   1.152
27640WAT      O83161   2.719   6.047   9.856
27640WAT     H183162   2.683   6.045   9.949
27640WAT     H283163   2.818   6.053   9.858
27641WAT      O83164   0.294   2.183   9.750
27641WAT     H183165   0.228   2.195   9.824
27641WAT     H283166   0.288   2.260   9.687
27642WAT      O83167   4.130   2.684   8.029
27642WAT     H183168   4.074   2.751   8.076
27642WAT     H283169   4.226   2.694   8.056
27643WAT      O83170   0.532   7.720   3.950
27643WAT     H183171   0.494   7.784   4.016
27643WAT     H283172   0.459   7.687   3.889
27644WAT      O83173   5.271   1.061   3.570
27644WAT     H183174   5.274   1.158   3.594
27644WAT     H283175   5.305   1.048   3.477
27645WAT      O83176   6.855   2.043   2.868
27645WAT     H183177   6.870   2.044   2.967
27645WAT     H283178   6.767   2.085   2.846
27646WAT      O83179   0.116   6.050   6.309
27646WAT     H183180   0.047   6.081   6.244
27646WAT     H283181   0.207   6.067   6.272
27647WAT      O83182   2.033   7.715   4.638
27647WAT     H183183   2.101   7.721   4.564
27647WAT     H283184   2.023   7.805   4.681
27648WAT      O83185   3.284   3.533   4.649
27648WAT     H183186   3.286   3.498   4.743
27648WAT     H283187   3.352   3.606   4.640
27649WAT      O83188   1.518   5.958   9.097
27649WAT     H183189   1.521   5.888   9.169
27649WAT     H283190   1.458   5.927   9.024
27650WAT      O83191   4.509   8.438   0.822
27650WAT     H183192   4.551   8.352   0.792
27650WAT     H283193   4.509   8.503   0.746
27651WAT      O83194   6.898   1.532   1.609
27651WAT     H183195   6.885   1.547   1.707
27651WAT     H283196   6.953   1.450   1.594
27652WAT      O83197   5.106   9.347   4.662
27652WAT     H183198   5.064   9.409   4.595
27652WAT     H283199   5.205   9.349   4.651
27653WAT      O83200   5.970   1.696   5.669
27653WAT     H183201   5.892   1.729   5.615
27653WAT     H283202   6.043   1.764   5.666
27654WAT      O83203   4.124   4.211   4.288
27654WAT     H183204   4.205   4.266   4.268
27654WAT     H283205   4.082   4.180   4.203
27655WAT      O83206   6.656   4.663   4.580
27655WAT     H183207   6.717   4.673   4.501
27655WAT     H283208   6.710   4.653   4.663
27656WAT      O83209   2.641   3.946   7.057
27656WAT     H183210   2.741   3.954   7.066
27656WAT     H283211   2.603   3.911   7.143
27657WAT      O83212   9.290   4.859   8.120
27657WAT     H183213   9.242   4.921   8.183
27657WAT     H283214   9.371   4.906   8.084
27658WAT      O83215   2.500   8.377   8.412
27658WAT     H183216   2.415   8.334   8.442
27658WAT     H283217   2.511   8.464   8.459
27659WAT      O83218   2.230   4.914   8.038
27659WAT     H183219   2.150   4.927   8.096
27659WAT     H283220   2.285   4.998   8.039
27660WAT      O83221   5.823   3.890   7.288
27660WAT     H183222   5.916   3.908   7.255
27660WAT     H283223   5.770   3.974   7.287
27661WAT      O83224   9.700   4.282   0.799
27661WAT     H183225   9.626   4.261   0.735
27661WAT     H283226   9.676   4.247   0.890
27662WAT      O83227   5.794   5.938   4.964
27662WAT     H183228   5.767   5.909   4.872
27662WAT     H283229   5.717   5.983   5.009
27663WAT      O83230   4.239   2.111   1.499
27663WAT     H183231   4.319   2.054   1.482
27663WAT     H283232   4.174   2.100   1.423
27664WAT      O83233   8.847   7.058   8.570
27664WAT     H183234   8.849   6.966   8.608
27664WAT     H283235   8.761   7.072   8.520
27665WAT      O83236   0.837   1.354   0.490
27665WAT     H183237   0.785   1.406   0.422
27665WAT     H283238   0.934   1.352   0.465
27666WAT      O83239   6.904   9.286   5.732
27666WAT     H183240   6.816   9.326   5.706
27666WAT     H283241   6.977   9.350   5.709
27667WAT      O83242   8.857   9.200   0.586
27667WAT     H183243   8.770   9.245   0.565
27667WAT     H283244   8.875   9.208   0.684
27668WAT      O83245   0.854   1.337   1.754
27668WAT     H183246   0.798   1.353   1.672
27668WAT     H283247   0.886   1.242   1.755
27669WAT      O83248   7.079   4.310   4.931
27669WAT     H183249   6.997   4.314   4.987
27669WAT     H283250   7.159   4.297   4.990
27670WAT      O83251   7.728   8.618   1.319
27670WAT     H183252   7.770   8.708   1.332
27670WAT     H283253   7.662   8.602   1.392
27671WAT      O83254   6.626   3.222   1.788
27671WAT     H183255   6.665   3.315   1.787
27671WAT     H283256   6.699   3.156   1.774
27672WAT      O83257   8.685   8.092   8.584
27672WAT     H183258   8.761   8.084   8.649
27672WAT     H283259   8.705   8.164   8.517
27673WAT      O83260   4.714   0.224   2.705
27673WAT     H183261   4.738   0.312   2.745
27673WAT     H283262   4.694   0.236   2.607
27674WAT      O83263   2.630   3.569   2.139
27674WAT     H183264   2.711   3.603   2.093
27674WAT     H283265   2.590   3.494   2.086
27675WAT      O83266   4.984   3.185   6.738
27675WAT     H183267   4.943   3.202   6.648
27675WAT     H283268   5.055   3.252   6.756
27676WAT      O83269   4.970   0.165   9.269
27676WAT     H183270   5.008   0.084   9.312
27676WAT     H283271   4.872   0.153   9.253
27677WAT      O83272   2.957   4.767   0.239
27677WAT     H183273   3.034   4.802   0.291
27677WAT     H283274   2.984   4.756   0.143
27678WAT      O83275   3.221   2.901   6.639
27678WAT     H183276   3.224   2.886   6.540
27678WAT     H283277   3.238   2.815   6.687
27679WAT      O83278   2.312   6.840   6.416
27679WAT     H183279   2.213   6.831   6.421
27679WAT     H283280   2.347   6.790   6.337
27680WAT      O83281   3.826   1.489   7.732
27680WAT     H183282   3.730   1.517   7.721
27680WAT     H283283   3.869   1.480   7.642
27681WAT      O83284   3.074   3.152   8.656
27681WAT     H183285   2.982   3.150   8.693
27681WAT     H283286   3.089   3.239   8.608
27682WAT      O83287   8.053   6.204   9.683
27682WAT     H183288   8.127   6.209   9.616
27682WAT     H283289   7.973   6.252   9.647
27683WAT      O83290   1.721   9.222   8.034
27683WAT     H183291   1.806   9.175   8.057
27683WAT     H283292   1.653   9.156   8.001
27684WAT      O83293   0.581   5.360   6.775
27684WAT     H183294   0.513   5.302   6.732
27684WAT     H283295   0.583   5.343   6.873
27685WAT      O83296   3.144   7.081   2.065
27685WAT     H183297   3.188   7.074   2.155
27685WAT     H283298   3.064   7.141   2.072
27686WAT      O83299   5.716   1.726   5.977
27686WAT     H183300   5.641   1.789   6.000
27686WAT     H283301   5.728   1.723   5.878
27687WAT      O83302   4.853   9.282   4.774
27687WAT     H183303   4.862   9.267   4.872
27687WAT     H283304   4.942   9.307   4.736
27688WAT      O83305   4.251   7.083   6.829
27688WAT     H183306   4.259   6.989   6.863
27688WAT     H283307   4.207   7.082   6.739
27689WAT      O83308   3.613   7.324   3.708
27689WAT     H183309   3.698   7.359   3.747
27689WAT     H283310   3.571   7.259   3.772
27690WAT      O83311   2.305   9.370   9.007
27690WAT     H183312   2.270   9.391   9.098
27690WAT     H283313   2.314   9.454   8.954
27691WAT      O83314   8.819   2.075   0.461
27691WAT     H183315   8.855   1.982   0.473
27691WAT     H283316   8.836   2.128   0.544
27692WAT      O83317   3.847   0.871   4.090
27692WAT     H183318   3.937   0.831   4.110
27692WAT     H283319   3.857   0.946   4.025
27693WAT      O83320   0.551   6.975   7.652
27693WAT     H183321   0.453   6.977   7.629
27693WAT     H283322   0.600   7.041   7.595
27694WAT      O83323   4.363   8.560   0.509
27694WAT     H183324   4.365   8.476   0.454
27694WAT     H283325   4.275   8.606   0.497
27695WAT      O83326   3.190   6.257   8.271
27695WAT     H183327   3.208   6.164   8.238
27695WAT     H283328   3.132   6.253   8.352
27696WAT      O83329   7.369   3.652   5.066
27696WAT     H183330   7.333   3.708   5.140
27696WAT     H283331   7.457   3.689   5.036
27697WAT      O83332   7.533   8.511   4.421
27697WAT     H183333   7.546   8.416   4.449
27697WAT     H283334   7.622   8.556   4.414
27698WAT      O83335   2.190   7.294   2.358
27698WAT     H183336   2.225   7.338   2.275
27698WAT     H283337   2.265   7.251   2.408
27699WAT      O83338   9.153   7.058   0.923
27699WAT     H183339   9.180   7.153   0.906
27699WAT     H283340   9.059   7.056   0.957
27700WAT      O83341   7.584   5.707   2.425
27700WAT     H183342   7.564   5.693   2.522
27700WAT     H283343   7.675   5.670   2.404
27701WAT      O83344   3.729   5.764   3.421
27701WAT     H183345   3.760   5.847   3.375
27701WAT     H283346   3.631   5.772   3.441
27702WAT      O83347   5.464   4.744   6.214
27702WAT     H183348   5.384   4.740   6.155
27702WAT     H283349   5.464   4.665   6.276
27703WAT      O83350   7.915   8.213   5.505
27703WAT     H183351   7.914   8.184   5.600
27703WAT     H283352   7.960   8.302   5.498
27704WAT      O83353   1.545   8.032   5.201
27704WAT     H183354   1.576   7.939   5.224
27704WAT     H283355   1.465   8.026   5.141
27705WAT      O83356   6.996   3.335   5.757
27705WAT     H183357   6.944   3.297   5.681
27705WAT     H283358   6.974   3.432   5.767
27706WAT      O83359   9.189   8.149   6.008
27706WAT     H183360   9.156   8.185   5.921
27706WAT     H283361   9.212   8.053   5.998
27707WAT      O83362   4.993   4.553   1.060
27707WAT     H183363   4.900   4.584   1.076
27707WAT     H283364   5.005   4.533   0.963
27708WAT      O83365   7.102   9.263   0.752
27708WAT     H183366   7.095   9.361   0.737
27708WAT     H283367   7.198   9.238   0.766
27709WAT      O83368   4.974   8.277   5.883
27709WAT     H183369   4.893   8.258   5.937
27709WAT     H283370   4.998   8.197   5.829
27710WAT      O83371   8.552   6.892   7.998
27710WAT     H183372   8.547   6.977   7.946
27710WAT     H283373   8.637   6.891   8.051
27711WAT      O83374   5.167   9.489   6.170
27711WAT     H183375   5.182   9.551   6.093
27711WAT     H283376   5.201   9.531   6.254
27712WAT      O83377   3.745   8.250   2.544
27712WAT     H183378   3.844   8.239   2.547
27712WAT     H283379   3.712   8.279   2.634
27713WAT      O83380   2.408   7.698   6.084
27713WAT     H183381   2.330   7.667   6.138
27713WAT     H283382   2.375   7.736   5.997
27714WAT      O83383   4.994   6.887   4.324
27714WAT     H183384   4.919   6.924   4.380
27714WAT     H283385   5.026   6.958   4.261
27715WAT      O83386   9.117   5.292   1.322
27715WAT     H183387   9.133   5.389   1.304
27715WAT     H283388   9.194   5.254   1.373
27716WAT      O83389   2.906   6.941   8.072
27716WAT     H183390   2.935   7.011   8.137
27716WAT     H283391   2.984   6.881   8.050
27717WAT      O83392   9.259   1.992   2.315
27717WAT     H183393   9.177   2.049   2.328
27717WAT     H283394   9.268   1.928   2.391
27718WAT      O83395   5.487   9.283   9.771
27718WAT     H183396   5.570   9.339   9.761
27718WAT     H283397   5.435   9.286   9.686
27719WAT      O83398   3.087   2.913   5.029
27719WAT     H183399   3.117   2.882   4.939
27719WAT     H283400   2.988   2.923   5.031
27720WAT      O83401   7.903   6.260   3.085
27720WAT     H183402   7.956   6.344   3.078
27720WAT     H283403   7.807   6.278   3.062
27721WAT      O83404   0.641   6.529   9.231
27721WAT     H183405   0.619   6.624   9.253
27721WAT     H283406   0.705   6.492   9.298
27722WAT      O83407   0.726   7.415   4.796
27722WAT     H183408   0.673   7.496   4.820
27722WAT     H283409   0.733   7.355   4.875
27723WAT      O83410   0.139   3.269   6.436
27723WAT     H183411   0.141   3.363   6.402
27723WAT     H283412   0.122   3.207   6.359
27724WAT      O83413   2.936   2.071   6.193
27724WAT     H183414   3.024   2.041   6.155
27724WAT     H283415   2.864   2.060   6.125
27725WAT      O83416   1.023   6.867   7.463
27725WAT     H183417   1.090   6.826   7.400
27725WAT     H283418   1.030   6.822   7.552
27726WAT      O83419   1.376   3.338   6.089
27726WAT     H183420   1.298   3.382   6.046
27726WAT     H283421   1.345   3.260   6.144
27727WAT      O83422   0.672   6.895   3.693
27727WAT     H183423   0.678   6.949   3.777
27727WAT     H283424   0.756   6.843   3.680
27728WAT      O83425   6.950   3.015   2.514
27728WAT     H183426   6.943   2.956   2.434
27728WAT     H283427   7.045   3.048   2.523
27729WAT      O83428   0.775   1.514   7.909
27729WAT     H183429   0.759   1.575   7.831
27729WAT     H283430   0.769   1.567   7.994
27730WAT      O83431   1.558   8.123   7.758
27730WAT     H183432   1.525   8.209   7.719
27730WAT     H283433   1.499   8.048   7.727
27731WAT      O83434   3.732   0.801   7.566
27731WAT     H183435   3.639   0.773   7.540
27731WAT     H283436   3.766   0.868   7.500
27732WAT      O83437   1.942   6.323   3.290
27732WAT     H183438   1.843   6.322   3.281
27732WAT     H283439   1.971   6.409   3.334
27733WAT      O83440   3.315   1.852   9.281
27733WAT     H183441   3.318   1.854   9.381
27733WAT     H283442   3.293   1.760   9.250
27734WAT      O83443   0.943   2.535   9.688
27734WAT     H183444   0.876   2.547   9.615
27734WAT     H283445   1.026   2.586   9.665
27735WAT      O83446   8.949   5.093   9.752
27735WAT     H183447   9.042   5.123   9.776
27735WAT     H283448   8.893   5.173   9.729
27736WAT      O83449   9.130   9.628   2.361
27736WAT     H183450   9.061   9.586   2.303
27736WAT     H283451   9.096   9.716   2.395
27737WAT      O83452   0.859   8.117   0.805
27737WAT     H183453   0.846   8.018   0.810
27737WAT     H283454   0.876   8.144   0.710
27738WAT      O83455   6.011   2.877   1.933
27738WAT     H183456   6.066   2.796   1.954
27738WAT     H283457   5.995   2.880   1.834
27739WAT      O83458   4.433   1.919   1.471
27739WAT     H183459   4.404   1.830   1.437
27739WAT     H283460   4.505   1.956   1.411
27740WAT      O83461   0.926   4.072   9.097
27740WAT     H183462   0.997   4.018   9.141
27740WAT     H283463   0.899   4.028   9.011
27741WAT      O83464   4.007   5.159   1.395
27741WAT     H183465   3.981   5.247   1.435
27741WAT     H283466   4.089   5.125   1.442
27742WAT      O83467   5.299   8.920   4.016
27742WAT     H183468   5.352   8.915   4.101
27742WAT     H283469   5.357   8.957   3.944
27743WAT      O83470   6.666   9.789   5.931
27743WAT     H183471   6.680   9.725   6.007
27743WAT     H283472   6.681   9.741   5.845
27744WAT      O83473   3.194   3.632   8.657
27744WAT     H183474   3.263   3.704   8.653
27744WAT     H283475   3.124   3.656   8.724
27745WAT      O83476   7.674   5.517   3.677
27745WAT     H183477   7.630   5.508   3.588
27745WAT     H283478   7.711   5.429   3.706
27746WAT      O83479   2.456   5.780   4.183
27746WAT     H183480   2.542   5.819   4.149
27746WAT     H283481   2.403   5.744   4.106
27747WAT      O83482   4.994   0.628   7.150
27747WAT     H183483   4.934   0.616   7.071
27747WAT     H283484   5.087   0.600   7.127
27748WAT      O83485   1.190   4.049   5.515
27748WAT     H183486   1.230   3.996   5.590
27748WAT     H283487   1.264   4.085   5.457
27749WAT      O83488   3.254   8.141   7.924
27749WAT     H183489   3.341   8.166   7.966
27749WAT     H283490   3.179   8.183   7.975
27750WAT      O83491   5.323   1.121   6.210
27750WAT     H183492   5.264   1.044   6.235
27750WAT     H283493   5.306   1.198   6.271
27751WAT      O83494   3.001   7.561   7.988
27751WAT     H183495   2.921   7.541   8.044
27751WAT     H283496   3.057   7.632   8.031
27752WAT      O83497   9.574   3.897   3.757
27752WAT     H183498   9.474   3.896   3.753
27752WAT     H283499   9.610   3.809   3.726
27753WAT      O83500   8.991   8.501   1.033
27753WAT     H183501   8.907   8.533   1.077
27753WAT     H283502   8.999   8.544   0.943
27754WAT      O83503   8.825   8.666   2.226
27754WAT     H183504   8.782   8.620   2.303
27754WAT     H283505   8.785   8.758   2.215
27755WAT      O83506   5.845   6.183   7.016
27755WAT     H183507   5.916   6.248   7.043
27755WAT     H283508   5.875   6.090   7.035
27756WAT      O83509   2.862   7.448   4.418
27756WAT     H183510   2.809   7.385   4.362
27756WAT     H283511   2.884   7.404   4.505
27757WAT      O83512   1.860   4.688   9.336
27757WAT     H183513   1.938   4.677   9.275
27757WAT     H283514   1.789   4.740   9.289
27758WAT      O83515   0.521   6.376   0.139
27758WAT     H183516   0.421   6.378   0.130
27758WAT     H283517   0.562   6.445   0.079
27759WAT      O83518   4.511   5.200   0.307
27759WAT     H183519   4.518   5.220   0.405
27759WAT     H283520   4.601   5.207   0.265
27760WAT      O83521   3.676   0.812   7.813
27760WAT     H183522   3.688   0.798   7.715
27760WAT     H283523   3.664   0.724   7.858
27761WAT      O83524   1.918   9.766   1.795
27761WAT     H183525   2.016   9.778   1.813
27761WAT     H283526   1.902   9.761   1.697
27762WAT      O83527   9.149   5.595   4.002
27762WAT     H183528   9.177   5.646   3.921
27762WAT     H283529   9.049   5.587   4.004
27763WAT      O83530   6.890   1.402   0.112
27763WAT     H183531   6.816   1.400   0.180
27763WAT     H283532   6.935   1.491   0.113
27764WAT      O83533   2.713   5.079   4.903
27764WAT     H183534   2.700   5.040   4.812
27764WAT     H283535   2.727   5.177   4.895
27765WAT      O83536   6.215   8.916   8.788
27765WAT     H183537   6.213   8.819   8.764
27765WAT     H283538   6.126   8.957   8.769
27766WAT      O83539   8.515   5.372   7.737
27766WAT     H183540   8.461   5.300   7.781
27766WAT     H283541   8.458   5.419   7.670
27767WAT      O83542   1.892   2.381   3.259
27767WAT     H183543   1.794   2.382   3.238
27767WAT     H283544   1.905   2.362   3.356
27768WAT      O83545   4.414   9.712   5.948
27768WAT     H183546   4.360   9.739   5.868
27768WAT     H283547   4.491   9.775   5.959
27769WAT      O83548   6.992   4.034   5.783
27769WAT     H183549   6.906   4.008   5.827
27769WAT     H283550   6.992   4.003   5.688
27770WAT      O83551   7.921   0.980   0.559
27770WAT     H183552   7.863   0.915   0.509
27770WAT     H283553   7.932   0.949   0.653
27771WAT      O83554   1.189   8.543   7.502
27771WAT     H183555   1.098   8.567   7.537
27771WAT     H283556   1.184   8.533   7.402
27772WAT      O83557   6.361   2.668   3.378
27772WAT     H183558   6.454   2.706   3.382
27772WAT     H283559   6.336   2.653   3.283
27773WAT      O83560   6.702   8.565   3.896
27773WAT     H183561   6.738   8.610   3.978
27773WAT     H283562   6.697   8.632   3.822
27774WAT      O83563   0.276   5.163   2.232
27774WAT     H183564   0.298   5.068   2.209
27774WAT     H283565   0.296   5.179   2.329
27775WAT      O83566   8.014   3.060   5.749
27775WAT     H183567   7.929   3.018   5.717
27775WAT     H283568   8.004   3.159   5.752
27776WAT      O83569   9.190   4.270   4.991
27776WAT     H183570   9.288   4.271   4.968
27776WAT     H283571   9.169   4.187   5.042
27777WAT      O83572   2.387   4.693   8.045
27777WAT     H183573   2.369   4.654   8.135
27777WAT     H283574   2.343   4.783   8.039
27778WAT      O83575   9.131   5.397   2.254
27778WAT     H183576   9.205   5.407   2.188
27778WAT     H283577   9.155   5.327   2.321
27779WAT      O83578   5.338   4.185   2.101
27779WAT     H183579   5.335   4.189   2.200
27779WAT     H283580   5.430   4.157   2.071
27780WAT      O83581   0.749   2.204   7.219
27780WAT     H183582   0.744   2.292   7.266
27780WAT     H283583   0.691   2.206   7.137
27781WAT      O83584   6.712   4.207   7.244
27781WAT     H183585   6.719   4.297   7.201
27781WAT     H283586   6.653   4.148   7.188
27782WAT      O83587   8.759   1.535   2.085
27782WAT     H183588   8.798   1.625   2.067
27782WAT     H283589   8.799   1.497   2.169
27783WAT      O83590   5.568   0.667   5.923
27783WAT     H183591   5.623   0.670   6.006
27783WAT     H283592   5.566   0.573   5.888
27784WAT      O83593   1.465   3.087   8.881
27784WAT     H183594   1.538   3.019   8.893
27784WAT     H283595   1.432   3.083   8.787
27785WAT      O83596   9.886   9.442   7.680
27785WAT     H183597   9.868   9.346   7.704
27785WAT     H283598   9.799   9.490   7.667
27786WAT      O83599   6.216   9.425   8.694
27786WAT     H183600   6.230   9.335   8.654
27786WAT     H283601   6.173   9.485   8.627
27787WAT      O83602   8.680   2.295   5.870
27787WAT     H183603   8.602   2.236   5.891
27787WAT     H283604   8.756   2.238   5.837
27788WAT      O83605   2.497   3.863   2.914
27788WAT     H183606   2.532   3.856   3.007
27788WAT     H283607   2.438   3.943   2.906
27789WAT      O83608   9.700   0.590   8.156
27789WAT     H183609   9.750   0.513   8.195
27789WAT     H283610   9.698   0.582   8.056
27790WAT      O83611   4.310   2.270   8.481
27790WAT     H183612   4.312   2.315   8.392
27790WAT     H283613   4.346   2.177   8.473
27791WAT      O83614   0.170   4.297   2.695
27791WAT     H183615   0.152   4.394   2.708
27791WAT     H283616   0.104   4.243   2.747
27792WAT      O83617   0.636   1.702   3.391
27792WAT     H183618   0.558   1.711   3.329
27792WAT     H283619   0.603   1.687   3.484
27793WAT      O83620   1.324   9.680   3.447
27793WAT     H183621   1.329   9.585   3.415
27793WAT     H283622   1.232   9.715   3.432
27794WAT      O83623   3.407   9.182   3.185
27794WAT     H183624   3.400   9.282   3.187
27794WAT     H283625   3.317   9.142   3.173
27795WAT      O83626   4.706   2.222   0.252
27795WAT     H183627   4.791   2.209   0.201
27795WAT     H283628   4.677   2.136   0.293
27796WAT      O83629   5.177   5.361   4.078
27796WAT     H183630   5.205   5.449   4.116
27796WAT     H283631   5.258   5.312   4.045
27797WAT      O83632   2.157   3.351   2.609
27797WAT     H183633   2.059   3.368   2.599
27797WAT     H283634   2.209   3.426   2.567
27798WAT      O83635   2.013   6.673   6.040
27798WAT     H183636   2.062   6.751   6.001
27798WAT     H283637   1.931   6.656   5.985
27799WAT      O83638   5.944   9.434   9.104
27799WAT     H183639   5.852   9.465   9.130
27799WAT     H283640   5.946   9.415   9.006
27800WAT      O83641   9.522   0.157   8.952
27800WAT     H183642   9.541   0.253   8.931
27800WAT     H283643   9.461   0.152   9.031
27801WAT      O83644   3.307   1.225   8.541
27801WAT     H183645   3.209   1.208   8.546
27801WAT     H283646   3.354   1.143   8.508
27802WAT      O83647   2.671   8.637   3.571
27802WAT     H183648   2.605   8.705   3.539
27802WAT     H283649   2.741   8.682   3.625
27803WAT      O83650   6.736   2.566   0.083
27803WAT     H183651   6.662   2.631   0.065
27803WAT     H283652   6.815   2.589   0.025
27804WAT      O83653   9.330   4.765   9.525
27804WAT     H183654   9.257   4.833   9.534
27804WAT     H283655   9.290   4.673   9.523
27805WAT      O83656   4.220   5.211   0.677
27805WAT     H183657   4.310   5.231   0.639
27805WAT     H283658   4.230   5.156   0.760
27806WAT      O83659   7.838   7.064   0.236
27806WAT     H183660   7.776   7.090   0.162
27806WAT     H283661   7.852   7.142   0.297
27807WAT      O83662   2.433   3.936   2.095
27807WAT     H183663   2.439   3.900   2.189
27807WAT     H283664   2.430   4.036   2.098
27808WAT      O83665   8.830   5.267   7.860
27808WAT     H183666   8.743   5.254   7.909
27808WAT     H283667   8.842   5.192   7.794
27809WAT      O83668   0.028   6.957   8.201
27809WAT     H183669   0.075   6.889   8.145
27809WAT     H283670   0.040   7.048   8.162
27810WAT      O83671   5.722   4.001   8.559
27810WAT     H183672   5.703   4.097   8.540
27810WAT     H283673   5.727   3.950   8.473
27811WAT      O83674   3.836   0.107   6.283
27811WAT     H183675   3.775   0.184   6.300
27811WAT     H283676   3.782   0.026   6.258
27812WAT      O83677   2.026   7.117   9.490
27812WAT     H183678   1.980   7.108   9.579
27812WAT     H283679   2.124   7.105   9.503
27813WAT      O83680   6.007   0.733   0.460
27813WAT     H183681   6.101   0.766   0.451
27813WAT     H283682   5.944   0.811   0.451
27814WAT      O83683   1.612   0.872   0.453
27814WAT     H183684   1.672   0.876   0.373
27814WAT     H283685   1.517   0.885   0.424
27815WAT      O83686   7.273   4.077   1.593
27815WAT     H183687   7.346   4.141   1.618
27815WAT     H283688   7.307   4.012   1.526
27816WAT      O83689   4.590   0.644   7.638
27816WAT     H183690   4.534   0.718   7.676
27816WAT     H283691   4.684   0.653   7.672
27817WAT      O83692   0.998   2.747   4.200
27817WAT     H183693   1.082   2.780   4.242
27817WAT     H283694   1.007   2.747   4.100
27818WAT      O83695   7.721   7.296   3.828
27818WAT     H183696   7.775   7.360   3.773
27818WAT     H283697   7.767   7.208   3.831
27819WAT      O83698   8.259   4.205   4.694
27819WAT     H183699   8.249   4.150   4.777
27819WAT     H283700   8.169   4.240   4.667
27820WAT      O83701   4.435   7.482   7.552
27820WAT     H183702   4.359   7.478   7.617
27820WAT     H283703   4.400   7.467   7.459
27821WAT      O83704   4.634   5.405   3.104
27821WAT     H183705   4.672   5.408   3.197
27821WAT     H283706   4.534   5.396   3.109
27822WAT      O83707   9.025   7.923   0.831
27822WAT     H183708   9.019   8.022   0.838
27822WAT     H283709   8.935   7.882   0.845
27823WAT      O83710   5.620   0.809   9.316
27823WAT     H183711   5.717   0.828   9.308
27823WAT     H283712   5.606   0.716   9.351
27824WAT      O83713   8.128   1.250   4.901
27824WAT     H183714   8.064   1.318   4.866
27824WAT     H283715   8.166   1.198   4.825
27825WAT      O83716   0.558   8.902   7.403
27825WAT     H183717   0.528   8.996   7.385
27825WAT     H283718   0.508   8.839   7.343
27826WAT      O83719   7.056   7.072   3.725
27826WAT     H183720   6.998   7.116   3.794
27826WAT     H283721   7.119   7.139   3.687
27827WAT      O83722   2.352   0.168   7.031
27827WAT     H183723   2.437   0.128   7.066
27827WAT     H283724   2.305   0.217   7.104
27828WAT      O83725   6.457   5.139   0.401
27828WAT     H183726   6.366   5.120   0.364
27828WAT     H283727   6.464   5.104   0.494
27829WAT      O83728   8.504   5.327   4.071
27829WAT     H183729   8.581   5.355   4.014
27829WAT     H283730   8.446   5.406   4.089
27830WAT      O83731   7.943   8.328   4.377
27830WAT     H183732   8.032   8.367   4.353
27830WAT     H283733   7.908   8.373   4.459
27831WAT      O83734   9.321   0.674   0.316
27831WAT     H183735   9.416   0.656   0.290
27831WAT     H283736   9.309   0.656   0.413
27832WAT      O83737   5.288   9.448   6.670
27832WAT     H183738   5.217   9.497   6.722
27832WAT     H283739   5.269   9.349   6.674
27833WAT      O83740   3.015   1.553   2.027
27833WAT     H183741   3.090   1.605   1.985
27833WAT     H283742   2.974   1.607   2.100
27834WAT      O83743   8.168   6.593   7.722
27834WAT     H183744   8.115   6.678   7.733
27834WAT     H283745   8.221   6.576   7.805
27835WAT      O83746   1.112   2.330   5.412
27835WAT     H183747   1.192   2.285   5.453
27835WAT     H283748   1.124   2.429   5.417
27836WAT      O83749   5.836   5.540   0.069
27836WAT     H183750   5.845   5.638   0.051
27836WAT     H283751   5.758   5.525   0.130
27837WAT      O83752   6.383   0.772   8.926
27837WAT     H183753   6.338   0.788   8.838
27837WAT     H283754   6.467   0.826   8.930
27838WAT      O83755   0.376   7.531   3.542
27838WAT     H183756   0.348   7.465   3.472
27838WAT     H283757   0.398   7.618   3.499
27839WAT      O83758   8.059   4.754   3.207
27839WAT     H183759   8.045   4.830   3.270
27839WAT     H283760   7.975   4.737   3.155
27840WAT      O83761   1.993   7.555   6.192
27840WAT     H183762   1.976   7.477   6.131
27840WAT     H283763   2.081   7.542   6.237
27841WAT      O83764   9.539   2.708   1.891
27841WAT     H183765   9.478   2.639   1.853
27841WAT     H283766   9.615   2.724   1.827
27842WAT      O83767   2.643   5.449   0.332
27842WAT     H183768   2.740   5.476   0.332
27842WAT     H283769   2.618   5.418   0.424
27843WAT      O83770   3.638   9.720   5.519
27843WAT     H183771   3.547   9.717   5.561
27843WAT     H283772   3.707   9.708   5.591
27844WAT      O83773   5.076   5.795   0.922
27844WAT     H183774   5.114   5.720   0.975
27844WAT     H283775   5.095   5.882   0.969
27845WAT      O83776   4.157   7.147   9.121
27845WAT     H183777   4.193   7.075   9.062
27845WAT     H283778   4.209   7.231   9.108
27846WAT      O83779   2.435   5.920   9.396
27846WAT     H183780   2.411   5.970   9.480
27846WAT     H283781   2.358   5.863   9.368
27847WAT      O83782   2.728   2.620   2.715
27847WAT     H183783   2.734   2.653   2.621
27847WAT     H283784   2.783   2.537   2.725
27848WAT      O83785   7.438   8.141   6.615
27848WAT     H183786   7.517   8.138   6.554
27848WAT     H283787   7.408   8.047   6.636
27849WAT      O83788   8.686   2.794   3.511
27849WAT     H183789   8.645   2.862   3.449
27849WAT     H283790   8.618   2.724   3.531
27850WAT      O83791   2.380   0.741   0.421
27850WAT     H183792   2.442   0.687   0.364
27850WAT     H283793   2.392   0.839   0.401
27851WAT      O83794   1.784   8.078   0.551
27851WAT     H183795   1.773   8.047   0.645
27851WAT     H283796   1.751   8.173   0.543
27852WAT      O83797   2.189   0.283   7.225
27852WAT     H183798   2.102   0.271   7.272
27852WAT     H283799   2.235   0.365   7.260
27853WAT      O83800   9.435   7.860   6.532
27853WAT     H183801   9.382   7.817   6.460
27853WAT     H283802   9.526   7.882   6.497
27854WAT      O83803   3.253   7.666   3.896
27854WAT     H183804   3.234   7.587   3.838
27854WAT     H283805   3.187   7.669   3.971
27855WAT      O83806   2.456   1.235   2.750
27855WAT     H183807   2.532   1.174   2.727
27855WAT     H283808   2.378   1.215   2.691
27856WAT      O83809   5.955   6.787   3.294
27856WAT     H183810   5.926   6.866   3.346
27856WAT     H283811   5.898   6.777   3.212
27857WAT      O83812   2.638   4.657   2.168
27857WAT     H183813   2.577   4.631   2.093
27857WAT     H283814   2.613   4.747   2.202
27858WAT      O83815   6.722   7.426   6.280
27858WAT     H183816   6.779   7.385   6.351
27858WAT     H283817   6.637   7.460   6.321
27859WAT      O83818   3.331   9.823   7.818
27859WAT     H183819   3.403   9.850   7.882
27859WAT     H283820   3.282   9.744   7.854
27860WAT      O83821   0.743   9.148   2.423
27860WAT     H183822   0.828   9.098   2.407
27860WAT     H283823   0.676   9.121   2.354
27861WAT      O83824   6.337   0.089   4.667
27861WAT     H183825   6.351   0.018   4.598
27861WAT     H283826   6.270   0.058   4.734
27862WAT      O83827   0.718   8.938   4.431
27862WAT     H183828   0.770   9.015   4.469
27862WAT     H283829   0.752   8.852   4.469
27863WAT      O83830   5.552   6.845   0.792
27863WAT     H183831   5.483   6.804   0.732
27863WAT     H283832   5.605   6.912   0.740
27864WAT      O83833   4.886   2.241   6.354
27864WAT     H183834   4.872   2.145   6.375
27864WAT     H283835   4.831   2.297   6.416
27865WAT      O83836   1.859   1.820   1.977
27865WAT     H183837   1.914   1.883   1.923
27865WAT     H283838   1.763   1.825   1.946
27866WAT      O83839   1.966   2.412   0.942
27866WAT     H183840   1.883   2.360   0.920
27866WAT     H283841   2.043   2.376   0.890
27867WAT      O83842   9.266   7.505   1.314
27867WAT     H183843   9.215   7.444   1.253
27867WAT     H283844   9.205   7.543   1.383
27868WAT      O83845   0.168   6.754   2.230
27868WAT     H183846   0.208   6.828   2.176
27868WAT     H283847   0.113   6.794   2.304
27869WAT      O83848   6.692   9.123   8.717
27869WAT     H183849   6.652   9.131   8.808
27869WAT     H283850   6.659   9.039   8.674
27870WAT      O83851   3.693   1.940   0.256
27870WAT     H183852   3.771   1.887   0.224
27870WAT     H283853   3.643   1.888   0.325
27871WAT      O83854   5.179   7.876   8.012
27871WAT     H183855   5.103   7.878   7.946
27871WAT     H283856   5.144   7.898   8.103
27872WAT      O83857   3.646   4.006   7.434
27872WAT     H183858   3.710   3.965   7.499
27872WAT     H283859   3.686   4.005   7.342
27873WAT      O83860   8.400   0.944   2.500
27873WAT     H183861   8.448   0.881   2.439
27873WAT     H283862   8.304   0.916   2.509
27874WAT      O83863   1.463   6.619   9.661
27874WAT     H183864   1.493   6.524   9.659
27874WAT     H283865   1.374   6.626   9.705
27875WAT      O83866   7.266   3.177   2.089
27875WAT     H183867   7.268   3.266   2.043
27875WAT     H283868   7.329   3.114   2.044
27876WAT      O83869   0.443   1.595   0.391
27876WAT     H183870   0.381   1.552   0.326
27876WAT     H283871   0.443   1.544   0.477
27877WAT      O83872   2.445   5.268   1.460
27877WAT     H183873   2.378   5.339   1.436
27877WAT     H283874   2.427   5.237   1.554
27878WAT      O83875   2.562   1.875   4.449
27878WAT     H183876   2.625   1.800   4.433
27878WAT     H283877   2.600   1.960   4.412
27879WAT      O83878   7.955   4.198   8.854
27879WAT     H183879   7.961   4.251   8.769
27879WAT     H283880   8.005   4.112   8.843
27880WAT      O83881   0.875   7.821   1.030
27880WAT     H183882   0.886   7.722   1.023
27880WAT     H283883   0.965   7.864   1.034
27881WAT      O83884   6.533   1.399   5.419
27881WAT     H183885   6.464   1.464   5.387
27881WAT     H283886   6.489   1.329   5.476
27882WAT      O83887   5.962   1.293   3.216
27882WAT     H183888   5.977   1.390   3.196
27882WAT     H283889   5.981   1.276   3.312
27883WAT      O83890   4.927   2.278   0.578
27883WAT     H183891   4.878   2.299   0.662
27883WAT     H283892   4.870   2.302   0.499
27884WAT      O83893   7.193   2.805   5.627
27884WAT     H183894   7.267   2.869   5.648
27884WAT     H283895   7.107   2.856   5.617
27885WAT      O83896   7.005   5.245   8.369
27885WAT     H183897   6.933   5.314   8.372
27885WAT     H283898   7.026   5.213   8.461
27886WAT      O83899   8.818   4.816   7.250
27886WAT     H183900   8.898   4.769   7.212
27886WAT     H283901   8.735   4.766   7.224
27887WAT      O83902   2.075   6.937   8.535
27887WAT     H183903   2.142   7.004   8.568
27887WAT     H283904   1.996   6.985   8.498
27888WAT      O83905   1.334   2.101   9.690
27888WAT     H183906   1.354   2.126   9.595
27888WAT     H283907   1.250   2.046   9.692
27889WAT      O83908   1.138   3.770   7.938
27889WAT     H183909   1.102   3.774   8.031
27889WAT     H283910   1.174   3.678   7.920
27890WAT      O83911   7.924   3.923   5.760
27890WAT     H183912   7.903   3.930   5.662
27890WAT     H283913   8.012   3.876   5.771
27891WAT      O83914   9.365   6.924   2.375
27891WAT     H183915   9.289   6.984   2.402
27891WAT     H283916   9.448   6.951   2.423
27892WAT      O83917   4.409   2.435   7.481
27892WAT     H183918   4.496   2.454   7.434
27892WAT     H283919   4.342   2.404   7.413
27893WAT      O83920   0.869   1.575   4.432
27893WAT     H183921   0.839   1.670   4.424
27893WAT     H283922   0.968   1.573   4.446
27894WAT      O83923   8.058   5.562   1.980
27894WAT     H183924   8.147   5.608   1.987
27894WAT     H283925   8.005   5.603   1.906
27895WAT      O83926   6.924   4.153   2.004
27895WAT     H183927   6.891   4.115   2.091
27895WAT     H283928   6.856   4.215   1.966
27896WAT      O83929   7.399   6.714   4.191
27896WAT     H183930   7.324   6.662   4.233
27896WAT     H283931   7.441   6.659   4.118
27897WAT      O83932   2.571   0.501   7.140
27897WAT     H183933   2.552   0.419   7.194
27897WAT     H283934   2.567   0.478   7.043
27898WAT      O83935   8.629   4.013   4.186
27898WAT     H183936   8.592   4.105   4.179
27898WAT     H283937   8.563   3.954   4.234
27899WAT      O83938   9.728   7.265   4.214
27899WAT     H183939   9.776   7.254   4.301
27899WAT     H283940   9.792   7.255   4.138
27900WAT      O83941   6.701   9.188   4.847
27900WAT     H183942   6.687   9.194   4.946
27900WAT     H283943   6.784   9.136   4.829
27901WAT      O83944   8.467   7.604   8.010
27901WAT     H183945   8.449   7.611   7.912
27901WAT     H283946   8.423   7.522   8.047
27902WAT      O83947   4.684   9.156   3.945
27902WAT     H183948   4.690   9.173   4.044
27902WAT     H283949   4.588   9.145   3.919
27903WAT      O83950   2.975   6.985   6.637
27903WAT     H183951   3.023   6.930   6.569
27903WAT     H283952   2.957   7.076   6.599
27904WAT      O83953   5.924   8.752   4.715
27904WAT     H183954   5.939   8.770   4.812
27904WAT     H283955   5.985   8.680   4.684
27905WAT      O83956   0.948   9.638   8.146
27905WAT     H183957   0.915   9.726   8.182
27905WAT     H283958   1.041   9.621   8.178
27906WAT      O83959   1.786   5.664   6.534
27906WAT     H183960   1.884   5.680   6.544
27906WAT     H283961   1.740   5.752   6.518
27907WAT      O83962   8.301   5.238   6.944
27907WAT     H183963   8.361   5.171   6.900
27907WAT     H283964   8.307   5.228   7.043
27908WAT      O83965   1.921   8.726   7.453
27908WAT     H183966   1.891   8.702   7.361
27908WAT     H283967   2.019   8.712   7.461
27909WAT      O83968   2.778   3.237   4.705
27909WAT     H183969   2.792   3.251   4.607
27909WAT     H283970   2.740   3.320   4.745
27910WAT      O83971   7.271   2.591   3.350
27910WAT     H183972   7.350   2.621   3.297
27910WAT     H283973   7.201   2.662   3.347
27911WAT      O83974   1.513   7.390   0.920
27911WAT     H183975   1.428   7.361   0.875
27911WAT     H283976   1.561   7.309   0.955
27912WAT      O83977   7.825   2.640   8.040
27912WAT     H183978   7.833   2.608   7.946
27912WAT     H283979   7.916   2.643   8.083
27913WAT      O83980   2.147   1.276   2.237
27913WAT     H183981   2.216   1.228   2.182
27913WAT     H283982   2.069   1.215   2.253
27914WAT      O83983   5.088   3.513   2.814
27914WAT     H183984   5.092   3.598   2.762
27914WAT     H283985   5.170   3.458   2.794
27915WAT      O83986   4.373   5.269   3.221
27915WAT     H183987   4.367   5.178   3.179
27915WAT     H283988   4.281   5.306   3.232
27916WAT      O83989   4.152   3.727   0.334
27916WAT     H183990   4.232   3.785   0.340
27916WAT     H283991   4.125   3.697   0.425
27917WAT      O83992   1.218   6.533   0.863
27917WAT     H183993   1.219   6.587   0.947
27917WAT     H283994   1.130   6.487   0.853
27918WAT      O83995   7.383   6.233   0.850
27918WAT     H183996   7.344   6.322   0.873
27918WAT     H283997   7.435   6.198   0.927
27919WAT      O83998   7.216   4.738   1.291
27919WAT     H183999   7.234   4.725   1.388
27919WAT     H284000   7.250   4.659   1.240
27920WAT      O84001   2.859   3.769   9.676
27920WAT     H184002   2.912   3.798   9.597
27920WAT     H284003   2.768   3.810   9.672
27921WAT      O84004   2.175   9.440   0.673
27921WAT     H184005   2.095   9.437   0.734
27921WAT     H284006   2.229   9.357   0.686
27922WAT      O84007   6.822   2.480   6.353
27922WAT     H184008   6.864   2.545   6.418
27922WAT     H284009   6.857   2.388   6.371
27923WAT      O84010   0.766   3.951   2.261
27923WAT     H184011   0.688   4.012   2.279
27923WAT     H284012   0.788   3.900   2.343
27924WAT      O84013   1.480   4.642   4.846
27924WAT     H184014   1.504   4.577   4.774
27924WAT     H284015   1.385   4.673   4.833
27925WAT      O84016   8.616   4.057   0.273
27925WAT     H184017   8.552   4.131   0.292
27925WAT     H284018   8.709   4.089   0.287
27926WAT      O84019   3.120   1.506   6.346
27926WAT     H184020   3.087   1.554   6.427
27926WAT     H284021   3.051   1.442   6.314
27927WAT      O84022   7.639   0.221   4.416
27927WAT     H184023   7.559   0.190   4.363
27927WAT     H284024   7.680   0.142   4.462
27928WAT      O84025   9.124   3.243   0.979
27928WAT     H184026   9.131   3.324   0.921
27928WAT     H284027   9.077   3.267   1.064
27929WAT      O84028   3.019   0.299   7.648
27929WAT     H184029   2.988   0.331   7.558
27929WAT     H284030   3.116   0.318   7.659
27930WAT      O84031   4.961   3.987   3.969
27930WAT     H184032   5.047   3.998   3.919
27930WAT     H284033   4.972   3.918   4.041
27931WAT      O84034   1.328   3.971   7.985
27931WAT     H184035   1.263   3.900   7.956
27931WAT     H284036   1.345   4.034   7.909
27932WAT      O84037   2.239   3.995   3.295
27932WAT     H184038   2.162   4.058   3.304
27932WAT     H284039   2.218   3.928   3.224
27933WAT      O84040   7.355   1.792   7.552
27933WAT     H184041   7.367   1.706   7.502
27933WAT     H284042   7.443   1.835   7.566
27934WAT      O84043   5.489   0.795   3.304
27934WAT     H184044   5.545   0.771   3.225
27934WAT     H284045   5.547   0.833   3.376
27935WAT      O84046   8.331   7.254   4.734
27935WAT     H184047   8.291   7.177   4.783
27935WAT     H284048   8.258   7.311   4.695
27936WAT      O84049   1.431   5.210   7.920
27936WAT     H184050   1.429   5.288   7.983
27936WAT     H284051   1.368   5.227   7.844
27937WAT      O84052   0.374   5.716   7.807
27937WAT     H184053   0.414   5.703   7.897
27937WAT     H284054   0.346   5.628   7.769
27938WAT      O84055   1.192   0.571   8.325
27938WAT     H184056   1.263   0.639   8.345
27938WAT     H284057   1.103   0.617   8.319
27939WAT      O84058   9.474   6.261   7.953
27939WAT     H184059   9.462   6.252   8.052
27939WAT     H284060   9.551   6.203   7.924
27940WAT      O84061   3.110   6.308   4.376
27940WAT     H184062   3.051   6.289   4.297
27940WAT     H284063   3.170   6.385   4.355
27941WAT      O84064   0.341   6.358   8.326
27941WAT     H184065   0.398   6.282   8.297
27941WAT     H284066   0.265   6.324   8.381
27942WAT      O84067   7.411   7.419   8.180
27942WAT     H184068   7.360   7.361   8.118
27942WAT     H284069   7.448   7.497   8.130
27943WAT      O84070   1.314   9.372   0.554
27943WAT     H184071   1.243   9.304   0.537
27943WAT     H284072   1.350   9.360   0.647
27944WAT      O84073   0.063   9.299   8.969
27944WAT     H184074   0.027   9.343   9.051
27944WAT     H284075   0.119   9.364   8.918
27945WAT      O84076   4.000   2.550   0.878
27945WAT     H184077   4.068   2.538   0.806
27945WAT     H284078   3.962   2.643   0.872
27946WAT      O84079   8.391   1.664   5.826
27946WAT     H184080   8.431   1.755   5.812
27946WAT     H284081   8.350   1.632   5.740
27947WAT      O84082   8.334   7.127   7.738
27947WAT     H184083   8.360   7.097   7.646
27947WAT     H284084   8.416   7.135   7.795
27948WAT      O84085   5.157   6.651   0.771
27948WAT     H184086   5.061   6.630   0.751
27948WAT     H284087   5.171   6.651   0.870
27949WAT      O84088   0.134   2.161   6.004
27949WAT     H184089   0.202   2.108   6.055
27949WAT     H284090   0.162   2.168   5.908
27950WAT      O84091   5.298   2.314   8.962
27950WAT     H184092   5.212   2.334   9.009
27950WAT     H284093   5.330   2.396   8.914
27951WAT      O84094   2.918   0.520   6.236
27951WAT     H184095   2.835   0.559   6.195
27951WAT     H284096   2.897   0.430   6.274
27952WAT      O84097   8.495   5.867   0.663
27952WAT     H184098   8.592   5.865   0.687
27952WAT     H284099   8.483   5.917   0.577
27953WAT      O84100   6.208   5.026   9.173
27953WAT     H184101   6.286   5.036   9.111
27953WAT     H284102   6.192   5.113   9.221
27954WAT      O84103   2.419   1.998   5.147
27954WAT     H184104   2.439   2.091   5.175
27954WAT     H284105   2.399   1.942   5.227
27955WAT      O84106   5.952   6.534   2.075
27955WAT     H184107   5.927   6.597   2.149
27955WAT     H284108   5.892   6.454   2.078
27956WAT      O84109   1.561   3.648   9.842
27956WAT     H184110   1.606   3.657   9.930
27956WAT     H284111   1.467   3.615   9.856
27957WAT      O84112   9.292   1.194   6.370
27957WAT     H184113   9.259   1.147   6.289
27957WAT     H284114   9.310   1.290   6.348
27958WAT      O84115   8.768   5.904   9.792
27958WAT     H184116   8.868   5.910   9.793
27958WAT     H284117   8.730   5.976   9.849
27959WAT      O84118   2.406   9.151   6.178
27959WAT     H184119   2.367   9.196   6.097
27959WAT     H284120   2.447   9.064   6.151
27960WAT      O84121   7.145   8.527   3.742
27960WAT     H184122   7.242   8.514   3.762
27960WAT     H284123   7.135   8.584   3.660
27961WAT      O84124   3.664   6.759   4.660
27961WAT     H184125   3.589   6.794   4.717
27961WAT     H284126   3.722   6.699   4.715
27962WAT      O84127   5.493   0.969   4.594
27962WAT     H184128   5.522   1.044   4.653
27962WAT     H284129   5.443   0.901   4.647
27963WAT      O84130   5.482   7.053   9.456
27963WAT     H184131   5.550   7.049   9.530
27963WAT     H284132   5.445   7.146   9.451
27964WAT      O84133   9.457   7.369   3.026
27964WAT     H184134   9.382   7.423   2.988
27964WAT     H284135   9.543   7.419   3.016
27965WAT      O84136   6.003   0.702   3.083
27965WAT     H184137   6.092   0.668   3.052
27965WAT     H284138   5.933   0.679   3.016
27966WAT      O84139   5.207   3.150   0.972
27966WAT     H184140   5.204   3.075   1.038
27966WAT     H284141   5.160   3.230   1.011
27967WAT      O84142   2.550   2.390   1.913
27967WAT     H184143   2.496   2.387   1.829
27967WAT     H284144   2.635   2.337   1.900
27968WAT      O84145   1.519   4.480   0.601
27968WAT     H184146   1.556   4.551   0.542
27968WAT     H284147   1.547   4.498   0.696
27969WAT      O84148   2.941   2.736   0.108
27969WAT     H184149   2.951   2.670   0.183
27969WAT     H284150   2.975   2.825   0.138
27970WAT      O84151   1.008   6.402   0.721
27970WAT     H184152   0.954   6.485   0.711
27970WAT     H284153   1.037   6.369   0.631
27971WAT      O84154   3.625   6.013   3.080
27971WAT     H184155   3.586   6.093   3.125
27971WAT     H284156   3.677   5.959   3.146
27972WAT      O84157   0.020   6.382   4.769
27972WAT     H184158  -0.044   6.313   4.735
27972WAT     H284159   0.034   6.451   4.698
27973WAT      O84160   7.864   6.432   4.345
27973WAT     H184161   7.961   6.408   4.350
27973WAT     H284162   7.810   6.348   4.331
27974WAT      O84163   5.660   3.604   6.555
27974WAT     H184164   5.713   3.586   6.638
27974WAT     H284165   5.613   3.520   6.527
27975WAT      O84166   8.639   0.065   0.993
27975WAT     H184167   8.591   0.084   1.079
27975WAT     H284168   8.727   0.021   1.013
27976WAT      O84169   8.367   9.781   0.651
27976WAT     H184170   8.335   9.705   0.596
27976WAT     H284171   8.297   9.805   0.719
27977WAT      O84172   8.983   6.867   5.708
27977WAT     H184173   9.042   6.884   5.787
27977WAT     H284174   9.012   6.926   5.632
27978WAT      O84175   8.216   0.024   1.459
27978WAT     H184176   8.240   0.006   1.554
27978WAT     H284177   8.287   0.082   1.418
27979WAT      O84178   5.971   3.862   7.866
27979WAT     H184179   6.003   3.952   7.835
27979WAT     H284180   5.986   3.795   7.793
27980WAT      O84181   4.009   0.434   8.632
27980WAT     H184182   3.964   0.423   8.721
27980WAT     H284183   3.939   0.455   8.563
27981WAT      O84184   7.950   2.258   8.568
27981WAT     H184185   7.905   2.265   8.657
27981WAT     H284186   8.024   2.191   8.573
27982WAT      O84187   4.684   5.229   9.461
27982WAT     H184188   4.696   5.208   9.364
27982WAT     H284189   4.589   5.258   9.477
27983WAT      O84190   1.905   2.684   6.046
27983WAT     H184191   1.836   2.647   6.109
27983WAT     H284192   1.874   2.674   5.952
27984WAT      O84193   3.864   3.628   3.030
27984WAT     H184194   3.858   3.535   2.993
27984WAT     H284195   3.891   3.625   3.126
27985WAT      O84196   6.012   8.248   1.264
27985WAT     H184197   5.970   8.219   1.179
27985WAT     H284198   6.082   8.318   1.245
27986WAT      O84199   8.833   2.929   6.598
27986WAT     H184200   8.777   2.942   6.516
27986WAT     H284201   8.928   2.950   6.577
27987WAT      O84202   1.232   0.733   9.759
27987WAT     H184203   1.301   0.667   9.788
27987WAT     H284204   1.257   0.772   9.670
27988WAT      O84205   5.007   3.410   7.613
27988WAT     H184206   5.018   3.317   7.578
27988WAT     H284207   5.046   3.416   7.705
27989WAT      O84208   0.610   2.507   2.511
27989WAT     H184209   0.538   2.512   2.442
27989WAT     H284210   0.641   2.599   2.534
27990WAT      O84211   0.913   8.546   7.864
27990WAT     H184212   0.826   8.500   7.844
27990WAT     H284213   0.984   8.477   7.880
27991WAT      O84214   9.658   9.365   4.932
27991WAT     H184215   9.619   9.396   4.845
27991WAT     H284216   9.654   9.439   4.998
27992WAT      O84217   3.776   2.938   9.419
27992WAT     H184218   3.819   2.927   9.329
27992WAT     H284219   3.846   2.963   9.486
27993WAT      O84220   1.695   5.997   4.206
27993WAT     H184221   1.760   5.954   4.267
27993WAT     H284222   1.671   5.934   4.132
27994WAT      O84223   8.569   5.540   8.948
27994WAT     H184224   8.490   5.503   8.996
27994WAT     H284225   8.591   5.631   8.983
27995WAT      O84226   1.841   5.089   1.459
27995WAT     H184227   1.861   5.151   1.535
27995WAT     H284228   1.892   5.117   1.378
27996WAT      O84229   3.952   4.042   3.748
27996WAT     H184230   3.974   3.997   3.835
27996WAT     H284231   4.024   4.021   3.681
27997WAT      O84232   8.445   7.615   0.673
27997WAT     H184233   8.346   7.601   0.665
27997WAT     H284234   8.464   7.709   0.703
27998WAT      O84235   1.844   4.486   1.650
27998WAT     H184236   1.933   4.479   1.696
27998WAT     H284237   1.792   4.402   1.666
27999WAT      O84238   2.744   5.296   7.816
27999WAT     H184239   2.811   5.229   7.850
27999WAT     H284240   2.675   5.311   7.886
28000WAT      O84241   2.673   2.208   1.400
28000WAT     H184242   2.735   2.171   1.331
28000WAT     H284243   2.725   2.235   1.481
28001WAT      O84244   8.954   7.625   5.725
28001WAT     H184245   8.940   7.677   5.810
28001WAT     H284246   8.979   7.688   5.652
28002WAT      O84247   4.827   1.853   8.054
28002WAT     H184248   4.922   1.844   8.083
28002WAT     H284249   4.771   1.882   8.131
28003WAT      O84250   8.901   7.959   2.082
28003WAT     H184251   8.835   7.897   2.124
28003WAT     H284252   8.943   7.915   2.003
28004WAT      O84253   0.553   1.029   3.911
28004WAT     H184254   0.489   1.105   3.911
28004WAT     H284255   0.582   1.009   3.818
28005WAT      O84256   9.494   1.849   8.262
28005WAT     H184257   9.561   1.795   8.210
28005WAT     H284258   9.482   1.808   8.352
28006WAT      O84259   2.175   7.601   6.587
28006WAT     H184260   2.153   7.508   6.616
28006WAT     H284261   2.090   7.649   6.563
28007WAT      O84262   8.201   0.789   4.577
28007WAT     H184263   8.153   0.807   4.491
28007WAT     H284264   8.190   0.867   4.639
28008WAT      O84265   9.818   8.615   1.550
28008WAT     H184266   9.897   8.617   1.611
28008WAT     H284267   9.837   8.671   1.469
28009WAT      O84268   7.467   3.435   3.305
28009WAT     H184269   7.543   3.370   3.294
28009WAT     H284270   7.414   3.410   3.386
28010WAT      O84271   5.989   7.778   0.109
28010WAT     H184272   5.948   7.869   0.103
28010WAT     H284273   5.964   7.725   0.028
28011WAT      O84274   1.999   3.585   0.117
28011WAT     H184275   2.026   3.520   0.188
28011WAT     H284276   1.991   3.536   0.029
28012WAT      O84277   6.297   9.805   4.052
28012WAT     H184278   6.241   9.739   4.102
28012WAT     H284279   6.245   9.841   3.974
28013WAT      O84280   0.503   8.616   3.852
28013WAT     H184281   0.467   8.643   3.941
28013WAT     H284282   0.438   8.557   3.805
28014WAT      O84283   9.197   2.870   8.743
28014WAT     H184284   9.207   2.913   8.833
28014WAT     H284285   9.227   2.775   8.748
28015WAT      O84286   2.416   4.210   0.560
28015WAT     H184287   2.391   4.240   0.468
28015WAT     H284288   2.369   4.124   0.581
28016WAT      O84289   4.998   5.987   1.639
28016WAT     H184290   4.902   5.982   1.666
28016WAT     H284291   5.008   6.049   1.561
28017WAT      O84292   2.857   2.056   4.021
28017WAT     H184293   2.866   2.118   4.099
28017WAT     H284294   2.800   2.099   3.951
28018WAT      O84295   8.416   4.069   9.026
28018WAT     H184296   8.373   4.005   8.962
28018WAT     H284297   8.427   4.025   9.115
28019WAT      O84298   1.750   3.909   7.527
28019WAT     H184299   1.713   3.822   7.492
28019WAT     H284300   1.694   3.940   7.603
28020WAT      O84301   7.240   8.474   2.761
28020WAT     H184302   7.248   8.398   2.696
28020WAT     H284303   7.324   8.479   2.815
28021WAT      O84304   2.754   7.788   7.376
28021WAT     H184305   2.765   7.763   7.472
28021WAT     H284306   2.818   7.861   7.353
28022WAT      O84307   3.277   4.706   5.191
28022WAT     H184308   3.319   4.752   5.269
28022WAT     H284309   3.301   4.755   5.107
28023WAT      O84310   5.284   2.608   5.069
28023WAT     H184311   5.261   2.586   5.164
28023WAT     H284312   5.257   2.532   5.011
28024WAT      O84313   3.513   7.907   4.256
28024WAT     H184314   3.535   7.829   4.197
28024WAT     H284315   3.594   7.935   4.307
28025WAT      O84316   3.365   4.552   1.696
28025WAT     H184317   3.459   4.571   1.666
28025WAT     H284318   3.353   4.453   1.702
28026WAT      O84319   5.901   7.766   4.220
28026WAT     H184320   5.959   7.733   4.294
28026WAT     H284321   5.879   7.862   4.235
28027WAT      O84322   3.517   7.641   1.205
28027WAT     H184323   3.617   7.652   1.197
28027WAT     H284324   3.476   7.646   1.114
28028WAT      O84325   3.002   1.815   8.968
28028WAT     H184326   3.074   1.878   8.937
28028WAT     H284327   3.042   1.724   8.984
28029WAT      O84328   3.923   7.648   0.535
28029WAT     H184329   3.996   7.600   0.584
28029WAT     H284330   3.942   7.645   0.437
28030WAT      O84331   7.875   5.141   7.402
28030WAT     H184332   7.879   5.184   7.312
28030WAT     H284333   7.901   5.045   7.395
28031WAT      O84334   5.404   4.397   0.661
28031WAT     H184335   5.404   4.497   0.660
28031WAT     H284336   5.401   4.365   0.756
28032WAT      O84337   5.179   1.728   1.931
28032WAT     H184338   5.111   1.794   1.901
28032WAT     H284339   5.144   1.676   2.009
28033WAT      O84340   1.909   4.029   4.536
28033WAT     H184341   2.003   4.041   4.507
28033WAT     H284342   1.906   4.009   4.634
28034WAT      O84343   9.855   6.664   8.711
28034WAT     H184344   9.832   6.757   8.740
28034WAT     H284345   9.822   6.599   8.779
28035WAT      O84346   4.169   1.049   8.196
28035WAT     H184347   4.238   1.091   8.255
28035WAT     H284348   4.132   0.967   8.240
28036WAT      O84349   5.724   7.322   7.515
28036WAT     H184350   5.800   7.333   7.450
28036WAT     H284351   5.706   7.409   7.561
28037WAT      O84352   4.773   8.786   1.223
28037WAT     H184353   4.685   8.767   1.266
28037WAT     H284354   4.846   8.744   1.277
28038WAT      O84355   9.440   4.211   9.576
28038WAT     H184356   9.420   4.196   9.479
28038WAT     H284357   9.484   4.129   9.613
28039WAT      O84358   1.088   1.648   9.162
28039WAT     H184359   1.002   1.685   9.126
28039WAT     H284360   1.118   1.572   9.104
28040WAT      O84361   2.384   4.592   8.290
28040WAT     H184362   2.342   4.571   8.378
28040WAT     H284363   2.455   4.524   8.270
28041WAT      O84364   9.525   9.551   9.189
28041WAT     H184365   9.486   9.618   9.252
28041WAT     H284366   9.502   9.458   9.221
28042WAT      O84367   4.996   0.040   7.406
28042WAT     H184368   4.995  -0.002   7.497
28042WAT     H284369   4.912   0.093   7.392
28043WAT      O84370   2.740   0.710   1.989
28043WAT     H184371   2.768   0.646   1.917
28043WAT     H284372   2.737   0.662   2.077
28044WAT      O84373   0.525   7.828   1.814
28044WAT     H184374   0.541   7.926   1.828
28044WAT     H284375   0.531   7.806   1.717
28045WAT      O84376   3.789   7.326   6.693
28045WAT     H184377   3.741   7.242   6.665
28045WAT     H284378   3.874   7.334   6.641
28046WAT      O84379   6.817   8.619   5.160
28046WAT     H184380   6.823   8.590   5.256
28046WAT     H284381   6.857   8.710   5.150
28047WAT      O84382   3.814   1.654   1.260
28047WAT     H184383   3.795   1.581   1.193
28047WAT     H284384   3.817   1.742   1.213
28048WAT      O84385   2.117   6.439   6.099
28048WAT     H184386   2.059   6.519   6.084
28048WAT     H284387   2.123   6.387   6.014
28049WAT      O84388   0.712   0.332   3.715
28049WAT     H184389   0.710   0.266   3.641
28049WAT     H284390   0.626   0.383   3.718
28050WAT      O84391   9.135   8.719   0.317
28050WAT     H184392   9.179   8.730   0.406
28050WAT     H284393   9.108   8.809   0.282
28051WAT      O84394   0.047   8.107   0.576
28051WAT     H184395   0.057   8.037   0.647
28051WAT     H284396   0.019   8.063   0.490
28052WAT      O84397   2.901   9.774   5.487
28052WAT     H184398   2.937   9.867   5.496
28052WAT     H284399   2.917   9.724   5.572
28053WAT      O84400   2.597   6.696   6.858
28053WAT     H184401   2.503   6.725   6.842
28053WAT     H284402   2.616   6.615   6.802
28054WAT      O84403   7.314   6.103   9.617
28054WAT     H184404   7.357   6.014   9.603
28054WAT     H284405   7.351   6.169   9.552
28055WAT      O84406   1.389   8.945   5.229
28055WAT     H184407   1.468   8.972   5.283
28055WAT     H284408   1.332   8.881   5.282
28056WAT      O84409   7.934   3.326   0.474
28056WAT     H184410   7.903   3.421   0.474
28056WAT     H284411   7.930   3.290   0.567
28057WAT      O84412   6.919   3.471   3.074
28057WAT     H184413   6.833   3.430   3.103
28057WAT     H284414   6.984   3.398   3.052
28058WAT      O84415   2.134   0.294   5.561
28058WAT     H184416   2.153   0.242   5.644
28058WAT     H284417   2.050   0.347   5.573
28059WAT      O84418   1.662   0.332   5.744
28059WAT     H184419   1.745   0.325   5.689
28059WAT     H284420   1.684   0.316   5.840
28060WAT      O84421   9.461   8.382   1.167
28060WAT     H184422   9.364   8.380   1.189
28060WAT     H284423   9.493   8.290   1.147
28061WAT      O84424   5.390   0.891   6.481
28061WAT     H184425   5.292   0.902   6.466
28061WAT     H284426   5.435   0.874   6.393
28062WAT      O84427   5.798   4.750   7.360
28062WAT     H184428   5.824   4.836   7.402
28062WAT     H284429   5.863   4.727   7.288
28063WAT      O84430   0.340   6.916   5.848
28063WAT     H184431   0.431   6.928   5.889
28063WAT     H284432   0.271   6.949   5.912
28064WAT      O84433   4.464   0.738   8.378
28064WAT     H184434   4.372   0.712   8.409
28064WAT     H284435   4.473   0.717   8.280
28065WAT      O84436   9.792   7.928   8.048
28065WAT     H184437   9.823   7.945   7.954
28065WAT     H284438   9.818   7.836   8.075
28066WAT      O84439   7.606   2.285   6.513
28066WAT     H184440   7.563   2.325   6.432
28066WAT     H284441   7.538   2.275   6.585
28067WAT      O84442   8.065   0.043   9.006
28067WAT     H184443   8.078   0.005   9.097
28067WAT     H284444   7.972   0.078   8.998
28068WAT      O84445   1.746   7.581   5.690
28068WAT     H184446   1.776   7.539   5.604
28068WAT     H284447   1.746   7.681   5.680
28069WAT      O84448   7.382   7.657   7.777
28069WAT     H184449   7.401   7.693   7.686
28069WAT     H284450   7.290   7.619   7.779
28070WAT      O84451   7.947   7.558   8.743
28070WAT     H184452   7.964   7.469   8.700
28070WAT     H284453   8.030   7.614   8.740
28071WAT      O84454   3.492   6.422   3.717
28071WAT     H184455   3.582   6.434   3.759
28071WAT     H284456   3.484   6.482   3.638
28072WAT      O84457   8.121   9.338   3.778
28072WAT     H184458   8.148   9.429   3.748
28072WAT     H284459   8.132   9.273   3.703
28073WAT      O84460   9.811   8.270   0.749
28073WAT     H184461   9.845   8.216   0.673
28073WAT     H284462   9.888   8.317   0.794
28074WAT      O84463   3.841   6.188   6.429
28074WAT     H184464   3.788   6.158   6.349
28074WAT     H284465   3.785   6.177   6.511
28075WAT      O84466   0.119   3.683   2.854
28075WAT     H184467   0.093   3.703   2.948
28075WAT     H284468   0.172   3.759   2.817
28076WAT      O84469   5.658   7.383   1.870
28076WAT     H184470   5.710   7.391   1.786
28076WAT     H284471   5.710   7.331   1.938
28077WAT      O84472   0.333   2.768   3.341
28077WAT     H184473   0.412   2.718   3.305
28077WAT     H284474   0.360   2.861   3.364
28078WAT      O84475   5.005   6.840   7.632
28078WAT     H184476   5.011   6.917   7.695
28078WAT     H284477   5.069   6.854   7.556
28079WAT      O84478   7.915   8.496   4.602
28079WAT     H184479   8.007   8.512   4.639
28079WAT     H284480   7.850   8.486   4.677
28080WAT      O84481   4.863   8.938   9.003
28080WAT     H184482   4.848   9.005   8.930
28080WAT     H284483   4.897   8.984   9.084
28081WAT      O84484   8.482   9.397   9.520
28081WAT     H184485   8.579   9.384   9.540
28081WAT     H284486   8.428   9.326   9.565
28082WAT      O84487   7.607   4.129   2.171
28082WAT     H184488   7.534   4.141   2.238
28082WAT     H284489   7.573   4.154   2.080
28083WAT      O84490   5.292   5.302   9.128
28083WAT     H184491   5.227   5.336   9.061
28083WAT     H284492   5.255   5.220   9.172
28084WAT      O84493   4.633   1.266   5.054
28084WAT     H184494   4.600   1.186   5.104
28084WAT     H284495   4.729   1.283   5.076
28085WAT      O84496   6.534   7.158   1.460
28085WAT     H184497   6.572   7.183   1.372
28085WAT     H284498   6.572   7.217   1.532
28086WAT      O84499   1.559   9.233   4.884
28086WAT     H184500   1.460   9.250   4.882
28086WAT     H284501   1.575   9.137   4.906
28087WAT      O84502   4.028   1.781   6.473
28087WAT     H184503   4.073   1.760   6.387
28087WAT     H284504   4.017   1.880   6.481
28088WAT      O84505   7.274   7.508   7.515
28088WAT     H184506   7.324   7.450   7.451
28088WAT     H284507   7.272   7.602   7.481
28089WAT      O84508   2.853   5.045   4.325
28089WAT     H184509   2.931   5.035   4.386
28089WAT     H284510   2.861   5.131   4.274
28090WAT      O84511   4.869   2.476   0.179
28090WAT     H184512   4.917   2.390   0.162
28090WAT     H284513   4.935   2.546   0.208
28091WAT      O84514   4.255   0.386   0.690
28091WAT     H184515   4.347   0.416   0.664
28091WAT     H284516   4.245   0.394   0.789
28092WAT      O84517   4.665   5.661   2.416
28092WAT     H184518   4.694   5.693   2.506
28092WAT     H284519   4.694   5.566   2.404
28093WAT      O84520   7.731   6.263   8.091
28093WAT     H184521   7.638   6.225   8.086
28093WAT     H284522   7.777   6.229   8.173
28094WAT      O84523   1.564   2.120   4.847
28094WAT     H184524   1.571   2.090   4.942
28094WAT     H284525   1.629   2.194   4.830
28095WAT      O84526   9.791   0.764   2.623
28095WAT     H184527   9.789   0.709   2.707
28095WAT     H284528   9.815   0.705   2.546
28096WAT      O84529   5.365   1.989   4.054
28096WAT     H184530   5.272   2.002   4.021
28096WAT     H284531   5.401   1.903   4.020
28097WAT      O84532   9.681   2.756   9.572
28097WAT     H184533   9.760   2.708   9.611
28097WAT     H284534   9.662   2.838   9.626
28098WAT      O84535   7.327   1.147   7.426
28098WAT     H184536   7.260   1.215   7.452
28098WAT     H284537   7.318   1.066   7.485
28099WAT      O84538   7.817   4.185   9.754
28099WAT     H184539   7.773   4.123   9.688
28099WAT     H284540   7.773   4.275   9.748
28100WAT      O84541   9.271   2.182   7.854
28100WAT     H184542   9.338   2.149   7.788
28100WAT     H284543   9.273   2.125   7.936
28101WAT      O84544   8.056   5.140   6.945
28101WAT     H184545   8.130   5.206   6.928
28101WAT     H284546   8.064   5.064   6.880
28102WAT      O84547   4.375   4.648   9.863
28102WAT     H184548   4.389   4.606   9.774
28102WAT     H284549   4.395   4.746   9.858
28103WAT      O84550   7.764   0.224   2.504
28103WAT     H184551   7.748   0.237   2.602
28103WAT     H284552   7.695   0.161   2.468
28104WAT      O84553   6.525   0.849   2.406
28104WAT     H184554   6.546   0.754   2.425
28104WAT     H284555   6.605   0.906   2.425
28105WAT      O84556   1.888   2.302   9.036
28105WAT     H184557   1.891   2.398   9.006
28105WAT     H284558   1.824   2.251   8.977
28106WAT      O84559   4.334   5.090   8.646
28106WAT     H184560   4.237   5.084   8.622
28106WAT     H284561   4.381   5.009   8.611
28107WAT      O84562   2.390   1.307   0.407
28107WAT     H184563   2.453   1.286   0.482
28107WAT     H284564   2.299   1.323   0.444
28108WAT      O84565   7.240   2.844   1.187
28108WAT     H184566   7.300   2.811   1.113
28108WAT     H284567   7.169   2.776   1.206
28109WAT      O84568   5.356   6.192   9.717
28109WAT     H184569   5.419   6.235   9.781
28109WAT     H284570   5.402   6.182   9.628
28110WAT      O84571   5.815   7.585   3.422
28110WAT     H184572   5.770   7.586   3.511
28110WAT     H284573   5.881   7.660   3.418
28111WAT      O84574   4.162   2.022   4.462
28111WAT     H184575   4.083   2.014   4.524
28111WAT     H284576   4.130   2.047   4.371
28112WAT      O84577   8.125   6.869   4.840
28112WAT     H184578   8.033   6.902   4.818
28112WAT     H284579   8.192   6.922   4.789
28113WAT      O84580   3.193   1.212   0.078
28113WAT     H184581   3.270   1.175   0.130
28113WAT     H284582   3.223   1.239  -0.013
28114WAT      O84583   8.462   8.587   1.510
28114WAT     H184584   8.469   8.515   1.579
28114WAT     H284585   8.404   8.661   1.544
28115WAT      O84586   2.269   6.003   8.034
28115WAT     H184587   2.256   6.101   8.021
28115WAT     H284588   2.362   5.985   8.065
28116WAT      O84589   0.636   7.618   1.235
28116WAT     H184590   0.673   7.710   1.248
28116WAT     H284591   0.612   7.579   1.324
28117WAT      O84592   3.756   6.496   7.234
28117WAT     H184593   3.752   6.593   7.258
28117WAT     H284594   3.669   6.468   7.193
28118WAT      O84595   3.708   3.302   1.232
28118WAT     H184596   3.748   3.392   1.221
28118WAT     H284597   3.726   3.247   1.150
28119WAT      O84598   1.371   7.487   1.261
28119WAT     H184599   1.427   7.565   1.232
28119WAT     H284600   1.302   7.519   1.326
28120WAT      O84601   6.413   5.755   7.427
28120WAT     H184602   6.343   5.685   7.442
28120WAT     H284603   6.376   5.845   7.453
28121WAT      O84604   3.254   9.329   2.511
28121WAT     H184605   3.273   9.239   2.552
28121WAT     H284606   3.213   9.317   2.421
28122WAT      O84607   0.364   5.351   0.331
28122WAT     H184608   0.461   5.334   0.318
28122WAT     H284609   0.335   5.426   0.270
28123WAT      O84610   5.375   5.017   9.663
28123WAT     H184611   5.299   4.979   9.611
28123WAT     H284612   5.455   5.026   9.604
28124WAT      O84613   8.335   4.658   0.809
28124WAT     H184614   8.335   4.757   0.796
28124WAT     H284615   8.406   4.617   0.752
28125WAT      O84616   4.904   3.167   7.840
28125WAT     H184617   5.001   3.189   7.828
28125WAT     H284618   4.862   3.233   7.902
28126WAT      O84619   8.470   2.817   0.700
28126WAT     H184620   8.380   2.798   0.661
28126WAT     H284621   8.541   2.782   0.638
28127WAT      O84622   4.041   2.422   8.276
28127WAT     H184623   4.130   2.441   8.234
28127WAT     H284624   4.055   2.388   8.369
28128WAT      O84625   0.355   1.992   6.101
28128WAT     H184626   0.331   1.894   6.100
28128WAT     H284627   0.453   2.002   6.113
28129WAT      O84628   1.468   2.339   6.901
28129WAT     H184629   1.383   2.309   6.857
28129WAT     H284630   1.498   2.269   6.966
28130WAT      O84631   5.607   7.890   7.341
28130WAT     H184632   5.541   7.963   7.322
28130WAT     H284633   5.560   7.814   7.386
28131WAT      O84634   8.067   2.684   0.848
28131WAT     H184635   7.985   2.659   0.796
28131WAT     H284636   8.096   2.607   0.905
28132WAT      O84637   1.150   6.994   5.179
28132WAT     H184638   1.212   7.061   5.137
28132WAT     H284639   1.060   7.000   5.136
28133WAT      O84640   2.857   3.593   5.232
28133WAT     H184641   2.805   3.671   5.267
28133WAT     H284642   2.856   3.596   5.132
28134WAT      O84643   9.446   0.685   4.431
28134WAT     H184644   9.466   0.664   4.527
28134WAT     H284645   9.466   0.781   4.413
28135WAT      O84646   9.593   0.091   7.471
28135WAT     H184647   9.616   0.040   7.388
28135WAT     H284648   9.677   0.114   7.520
28136WAT      O84649   6.509   3.119   3.911
28136WAT     H184650   6.524   3.211   3.875
28136WAT     H284651   6.411   3.101   3.916
28137WAT      O84652   5.512   6.807   9.099
28137WAT     H184653   5.547   6.806   9.005
28137WAT     H284654   5.567   6.747   9.156
28138WAT      O84655   4.446   6.482   0.834
28138WAT     H184656   4.449   6.409   0.902
28138WAT     H284657   4.432   6.570   0.880
28139WAT      O84658   3.260   7.908   8.360
28139WAT     H184659   3.279   7.998   8.321
28139WAT     H284660   3.204   7.918   8.442
28140WAT      O84661   4.706   2.202   6.913
28140WAT     H184662   4.727   2.183   7.009
28140WAT     H284663   4.698   2.301   6.900
28141WAT      O84664   5.619   8.259   8.414
28141WAT     H184665   5.692   8.198   8.383
28141WAT     H284666   5.559   8.211   8.478
28142WAT      O84667   8.173   6.356   7.358
28142WAT     H184668   8.218   6.291   7.296
28142WAT     H284669   8.228   6.366   7.441
28143WAT      O84670   0.507   0.619   8.768
28143WAT     H184671   0.513   0.717   8.785
28143WAT     H284672   0.588   0.574   8.807
28144WAT      O84673   4.951   5.551   2.640
28144WAT     H184674   4.983   5.530   2.732
28144WAT     H284675   4.869   5.608   2.645
28145WAT      O84676   5.938   7.158   1.586
28145WAT     H184677   5.894   7.089   1.529
28145WAT     H284678   5.873   7.231   1.607
28146WAT      O84679   4.447   2.435   4.512
28146WAT     H184680   4.429   2.486   4.595
28146WAT     H284681   4.396   2.348   4.515
28147WAT      O84682   3.693   4.293   1.402
28147WAT     H184683   3.661   4.259   1.491
28147WAT     H284684   3.615   4.312   1.343
28148WAT      O84685   3.535   7.608   9.336
28148WAT     H184686   3.542   7.624   9.238
28148WAT     H284687   3.454   7.654   9.373
28149WAT      O84688   8.880   7.000   0.559
28149WAT     H184689   8.842   7.070   0.619
28149WAT     H284690   8.973   6.977   0.590
28150WAT      O84691   0.013   8.206   0.179
28150WAT     H184692   0.083   8.195   0.109
28150WAT     H284693  -0.027   8.116   0.200
28151WAT      O84694   0.628   1.883   1.215
28151WAT     H184695   0.671   1.903   1.127
28151WAT     H284696   0.536   1.848   1.200
28152WAT      O84697   0.063   9.497   3.822
28152WAT     H184698  -0.034   9.475   3.825
28152WAT     H284699   0.113   9.420   3.783
28153WAT      O84700   3.796   5.694   7.182
28153WAT     H184701   3.715   5.745   7.154
28153WAT     H284702   3.875   5.755   7.185
28154WAT      O84703   7.427   4.931   9.868
28154WAT     H184704   7.410   5.030   9.865
28154WAT     H284705   7.347   4.885   9.907
28155WAT      O84706   6.410   5.705   9.255
28155WAT     H184707   6.432   5.627   9.314
28155WAT     H284708   6.310   5.711   9.245
28156WAT      O84709   2.205   0.542   6.815
28156WAT     H184710   2.293   0.583   6.838
28156WAT     H284711   2.197   0.533   6.716
28157WAT      O84712   8.291   1.700   0.242
28157WAT     H184713   8.358   1.712   0.315
28157WAT     H284714   8.199   1.695   0.281
28158WAT      O84715   2.253   4.250   8.064
28158WAT     H184716   2.342   4.270   8.105
28158WAT     H284717   2.236   4.152   8.067
28159WAT      O84718   8.952   8.332   8.124
28159WAT     H184719   8.959   8.398   8.199
28159WAT     H284720   8.861   8.338   8.083
28160WAT      O84721   4.199   2.222   3.538
28160WAT     H184722   4.280   2.180   3.578
28160WAT     H284723   4.186   2.314   3.576
28161WAT      O84724   5.057   0.017   3.279
28161WAT     H184725   4.962  -0.005   3.258
28161WAT     H284726   5.085   0.098   3.228
28162WAT      O84727   1.028   0.707   3.109
28162WAT     H184728   1.094   0.766   3.154
28162WAT     H284729   0.968   0.761   3.051
28163WAT      O84730   6.177   5.720   4.096
28163WAT     H184731   6.212   5.780   4.023
28163WAT     H284732   6.078   5.707   4.084
28164WAT      O84733   3.397   5.854   3.040
28164WAT     H184734   3.477   5.909   3.060
28164WAT     H284735   3.424   5.758   3.029
28165WAT      O84736   6.051   6.319   7.673
28165WAT     H184737   6.059   6.221   7.657
28165WAT     H284738   5.955   6.347   7.664
28166WAT      O84739   4.127   5.359   3.221
28166WAT     H184740   4.056   5.330   3.284
28166WAT     H284741   4.090   5.363   3.128
28167WAT      O84742   1.735   7.297   0.698
28167WAT     H184743   1.707   7.202   0.708
28167WAT     H284744   1.765   7.332   0.787
28168WAT      O84745   8.048   2.479   0.504
28168WAT     H184746   8.091   2.422   0.574
28168WAT     H284747   8.117   2.535   0.459
28169WAT      O84748   2.447   4.817   6.862
28169WAT     H184749   2.413   4.888   6.924
28169WAT     H284750   2.383   4.808   6.785
28170WAT      O84751   8.537   0.478   0.966
28170WAT     H184752   8.469   0.503   1.034
28170WAT     H284753   8.579   0.560   0.929
28171WAT      O84754   5.060   6.505   8.622
28171WAT     H184755   5.007   6.572   8.571
28171WAT     H284756   5.057   6.417   8.574
28172WAT      O84757   1.611   2.368   7.303
28172WAT     H184758   1.606   2.279   7.258
28172WAT     H284759   1.538   2.375   7.371
28173WAT      O84760   5.590   0.564   6.624
28173WAT     H184761   5.666   0.554   6.560
28173WAT     H284762   5.557   0.659   6.621
28174WAT      O84763   3.730   1.207   4.464
28174WAT     H184764   3.809   1.264   4.485
28174WAT     H284765   3.761   1.124   4.417
28175WAT      O84766   4.719   9.461   5.186
28175WAT     H184767   4.789   9.410   5.136
28175WAT     H284768   4.746   9.469   5.282
28176WAT      O84769   2.464   3.667   4.212
28176WAT     H184770   2.502   3.578   4.188
28176WAT     H284771   2.433   3.666   4.308
28177WAT      O84772   0.946   1.060   0.050
28177WAT     H184773   0.935   1.160   0.050
28177WAT     H284774   0.866   1.019   0.094
28178WAT      O84775   7.858   2.076   4.813
28178WAT     H184776   7.942   2.028   4.787
28178WAT     H284777   7.881   2.166   4.850
28179WAT      O84778   7.329   4.473   9.159
28179WAT     H184779   7.314   4.434   9.250
28179WAT     H284780   7.369   4.565   9.169
28180WAT      O84781   4.816   9.717   1.354
28180WAT     H184782   4.789   9.620   1.356
28180WAT     H284783   4.764   9.767   1.423
28181WAT      O84784   4.684   5.768   5.049
28181WAT     H184785   4.592   5.808   5.049
28181WAT     H284786   4.739   5.812   4.978
28182WAT      O84787   6.540   8.152   4.919
28182WAT     H184788   6.558   8.220   4.848
28182WAT     H284789   6.601   8.074   4.908
28183WAT      O84790   9.792   8.989   2.844
28183WAT     H184791   9.865   9.043   2.802
28183WAT     H284792   9.814   8.892   2.836
28184WAT      O84793   0.169   1.786   2.022
28184WAT     H184794   0.129   1.703   1.984
28184WAT     H284795   0.235   1.823   1.956
28185WAT      O84796   9.633   5.771   1.679
28185WAT     H184797   9.680   5.705   1.736
28185WAT     H284798   9.699   5.821   1.623
28186WAT      O84799   0.532   1.150   7.241
28186WAT     H184800   0.591   1.083   7.285
28186WAT     H284801   0.585   1.204   7.176
28187WAT      O84802   0.045   5.755   9.264
28187WAT     H184803   0.024   5.688   9.193
28187WAT     H284804   0.055   5.846   9.223
28188WAT      O84805   7.226   0.174   3.358
28188WAT     H184806   7.258   0.209   3.446
28188WAT     H284807   7.229   0.247   3.290
28189WAT      O84808   8.447   9.690   8.202
28189WAT     H184809   8.384   9.714   8.277
28189WAT     H284810   8.482   9.598   8.217
28190WAT      O84811   2.303   7.994   5.442
28190WAT     H184812   2.294   8.044   5.528
28190WAT     H284813   2.344   8.053   5.372
28191WAT      O84814   3.502   8.768   0.021
28191WAT     H184815   3.532   8.830  -0.051
28191WAT     H284816   3.414   8.798   0.057
28192WAT      O84817   4.371   6.535   5.129
28192WAT     H184818   4.387   6.477   5.049
28192WAT     H284819   4.379   6.631   5.103
28193WAT      O84820   2.638   6.028   9.049
28193WAT     H184821   2.699   6.069   8.981
28193WAT     H284822   2.543   6.048   9.024
28194WAT      O84823   7.950   1.286   2.858
28194WAT     H184824   7.987   1.194   2.867
28194WAT     H284825   8.019   1.353   2.886
28195WAT      O84826   2.155   6.806   2.778
28195WAT     H184827   2.246   6.772   2.801
28195WAT     H284828   2.128   6.877   2.843
28196WAT      O84829   8.683   8.615   2.486
28196WAT     H184830   8.644   8.657   2.568
28196WAT     H284831   8.611   8.569   2.434
28197WAT      O84832   6.984   0.931   7.926
28197WAT     H184833   6.952   1.024   7.906
28197WAT     H284834   7.007   0.924   8.023
28198WAT      O84835   4.166   7.621   0.662
28198WAT     H184836   4.232   7.619   0.587
28198WAT     H284837   4.160   7.530   0.703
28199WAT      O84838   9.211   0.402   8.678
28199WAT     H184839   9.112   0.412   8.686
28199WAT     H284840   9.256   0.455   8.749
28200WAT      O84841   1.371   4.897   9.792
28200WAT     H184842   1.332   4.894   9.884
28200WAT     H284843   1.412   4.808   9.770
28201WAT      O84844   7.479   5.297   8.223
28201WAT     H184845   7.383   5.322   8.235
28201WAT     H284846   7.523   5.360   8.160
28202WAT      O84847   9.332   8.895   7.071
28202WAT     H184848   9.357   8.979   7.120
28202WAT     H284849   9.391   8.885   6.991
28203WAT      O84850   9.423   5.722   7.721
28203WAT     H184851   9.331   5.712   7.684
28203WAT     H284852   9.488   5.729   7.645
28204WAT      O84853   8.783   3.040   3.138
28204WAT     H184854   8.778   3.140   3.143
28204WAT     H284855   8.876   3.013   3.112
28205WAT      O84856   8.095   2.672   5.964
28205WAT     H184857   8.133   2.587   6.002
28205WAT     H284858   8.160   2.712   5.900
28206WAT      O84859   5.555   8.080   9.167
28206WAT     H184860   5.611   8.142   9.222
28206WAT     H284861   5.600   8.065   9.079
28207WAT      O84862   6.210   3.117   7.660
28207WAT     H184863   6.122   3.152   7.626
28207WAT     H284864   6.279   3.190   7.655
28208WAT      O84865   0.587   1.045   2.156
28208WAT     H184866   0.671   1.081   2.196
28208WAT     H284867   0.565   1.095   2.072
28209WAT      O84868   5.670   6.764   1.414
28209WAT     H184869   5.673   6.755   1.514
28209WAT     H284870   5.576   6.781   1.385
28210WAT      O84871   0.618   6.579   7.627
28210WAT     H184872   0.584   6.536   7.544
28210WAT     H284873   0.707   6.622   7.609
28211WAT      O84874   5.719   0.809   7.782
28211WAT     H184875   5.765   0.746   7.718
28211WAT     H284876   5.738   0.780   7.876
28212WAT      O84877   4.322   1.569   2.738
28212WAT     H184878   4.369   1.649   2.777
28212WAT     H284879   4.230   1.596   2.708
28213WAT      O84880   4.254   3.775   6.824
28213WAT     H184881   4.250   3.732   6.734
28213WAT     H284882   4.224   3.870   6.818
28214WAT      O84883   6.880   8.574   5.883
28214WAT     H184884   6.851   8.578   5.788
28214WAT     H284885   6.924   8.485   5.901
28215WAT      O84886   1.746   4.700   5.165
28215WAT     H184887   1.700   4.718   5.252
28215WAT     H284888   1.734   4.778   5.103
28216WAT      O84889   3.457   0.070   9.332
28216WAT     H184890   3.465  -0.001   9.403
28216WAT     H284891   3.515   0.148   9.357
28217WAT      O84892   3.091   6.937   6.879
28217WAT     H184893   3.150   7.012   6.911
28217WAT     H284894   3.036   6.969   6.802
28218WAT      O84895   3.548   0.677   6.919
28218WAT     H184896   3.507   0.661   7.009
28218WAT     H284897   3.639   0.715   6.930
28219WAT      O84898   7.346   1.155   3.282
28219WAT     H184899   7.295   1.217   3.342
28219WAT     H284900   7.438   1.141   3.318
28220WAT      O84901   4.822   5.866   4.822
28220WAT     H184902   4.912   5.890   4.786
28220WAT     H284903   4.759   5.851   4.746
28221WAT      O84904   3.815   4.097   0.241
28221WAT     H184905   3.816   4.069   0.145
28221WAT     H284906   3.721   4.104   0.273
28222WAT      O84907   6.683   7.161   8.358
28222WAT     H184908   6.778   7.189   8.341
28222WAT     H284909   6.683   7.073   8.406
28223WAT      O84910   2.596   3.903   0.676
28223WAT     H184911   2.571   3.871   0.768
28223WAT     H284912   2.642   3.992   0.683
28224WAT      O84913   7.484   8.017   3.892
28224WAT     H184914   7.406   8.026   3.954
28224WAT     H284915   7.496   8.101   3.840
28225WAT      O84916   2.528   3.445   5.268
28225WAT     H184917   2.605   3.381   5.268
28225WAT     H284918   2.542   3.513   5.340
28226WAT      O84919   4.309   9.679   0.972
28226WAT     H184920   4.381   9.710   1.035
28226WAT     H284921   4.223   9.669   1.022
28227WAT      O84922   6.064   2.746   7.097
28227WAT     H184923   5.972   2.731   7.133
28227WAT     H284924   6.087   2.673   7.033
28228WAT      O84925   7.812   4.792   5.291
28228WAT     H184926   7.906   4.760   5.297
28228WAT     H284927   7.775   4.808   5.383
28229WAT      O84928   9.306   4.735   4.885
28229WAT     H184929   9.301   4.654   4.827
28229WAT     H284930   9.399   4.772   4.882
28230WAT      O84931   0.350   9.058   7.726
28230WAT     H184932   0.310   9.068   7.817
28230WAT     H284933   0.278   9.067   7.657
28231WAT      O84934   5.639   4.631   5.117
28231WAT     H184935   5.548   4.592   5.103
28231WAT     H284936   5.698   4.607   5.040
28232WAT      O84937   0.656   2.516   6.674
28232WAT     H184938   0.722   2.584   6.706
28232WAT     H284939   0.655   2.516   6.574
28233WAT      O84940   0.749   4.736   1.670
28233WAT     H184941   0.714   4.827   1.645
28233WAT     H284942   0.717   4.668   1.604
28234WAT      O84943   9.441   2.518   9.242
28234WAT     H184944   9.351   2.528   9.284
28234WAT     H284945   9.484   2.434   9.273
28235WAT      O84946   6.025   9.475   2.852
28235WAT     H184947   6.088   9.406   2.888
28235WAT     H284948   6.076   9.558   2.828
28236WAT      O84949   8.851   1.521   6.749
28236WAT     H184950   8.803   1.557   6.669
28236WAT     H284951   8.948   1.508   6.726
28237WAT      O84952   5.194   4.858   6.652
28237WAT     H184953   5.138   4.932   6.692
28237WAT     H284954   5.222   4.884   6.560
28238WAT      O84955   9.649   2.301   9.887
28238WAT     H184956   9.649   2.201   9.886
28238WAT     H284957   9.658   2.336   9.794
28239WAT      O84958   5.856   2.841   1.469
28239WAT     H184959   5.785   2.843   1.539
28239WAT     H284960   5.861   2.931   1.425
28240WAT      O84961   9.640   1.692   4.701
28240WAT     H184962   9.635   1.603   4.657
28240WAT     H284963   9.555   1.742   4.686
28241WAT      O84964   9.545   2.256   2.804
28241WAT     H184965   9.526   2.180   2.867
28241WAT     H284966   9.480   2.254   2.728
28242WAT      O84967   2.003   0.393   1.944
28242WAT     H184968   1.941   0.315   1.937
28242WAT     H284969   1.972   0.453   2.018
28243WAT      O84970   5.434   0.715   4.222
28243WAT     H184971   5.361   0.701   4.155
28243WAT     H284972   5.518   0.673   4.189
28244WAT      O84973   8.526   7.017   5.380
28244WAT     H184974   8.555   6.922   5.371
28244WAT     H284975   8.562   7.071   5.304
28245WAT      O84976   6.809   3.007   8.066
28245WAT     H184977   6.776   3.036   8.156
28245WAT     H284978   6.902   2.971   8.075
28246WAT      O84979   2.546   1.601   4.557
28246WAT     H184980   2.633   1.646   4.538
28246WAT     H284981   2.487   1.608   4.477
28247WAT      O84982   8.214   7.668   2.068
28247WAT     H184983   8.272   7.743   2.036
28247WAT     H284984   8.271   7.593   2.102
28248WAT      O84985   4.238   6.412   9.823
28248WAT     H184986   4.161   6.421   9.761
28248WAT     H284987   4.274   6.318   9.819
28249WAT      O84988   8.375   8.521   5.614
28249WAT     H184989   8.327   8.586   5.672
28249WAT     H284990   8.344   8.428   5.634
28250WAT      O84991   2.392   5.654   3.510
28250WAT     H184992   2.454   5.599   3.454
28250WAT     H284993   2.299   5.616   3.504
28251WAT      O84994   1.967   2.476   7.454
28251WAT     H184995   1.886   2.517   7.497
28251WAT     H284996   1.954   2.475   7.354
28252WAT      O84997   8.484   5.868   6.293
28252WAT     H184998   8.421   5.860   6.370
28252WAT     H284999   8.563   5.809   6.309
28253WAT      O85000   8.822   6.014   5.601
28253WAT     H185001   8.812   6.113   5.591
28253WAT     H285002   8.842   5.991   5.697
28254WAT      O85003   9.574   1.843   1.090
28254WAT     H185004   9.664   1.800   1.089
28254WAT     H285005   9.505   1.774   1.116
28255WAT      O85006   5.087   6.737   1.221
28255WAT     H185007   5.055   6.711   1.312
28255WAT     H285008   5.073   6.835   1.207
28256WAT      O85009   4.450   0.648   1.864
28256WAT     H185010   4.393   0.699   1.929
28256WAT     H285011   4.412   0.555   1.853
28257WAT      O85012   0.920   8.999   7.859
28257WAT     H185013   0.839   8.953   7.896
28257WAT     H285014   0.900   9.096   7.844
28258WAT      O85015   9.788   0.244   1.305
28258WAT     H185016   9.852   0.177   1.342
28258WAT     H285017   9.724   0.199   1.243
28259WAT      O85018   5.507   9.607   2.439
28259WAT     H185019   5.586   9.569   2.390
28259WAT     H285020   5.530   9.698   2.473
28260WAT      O85021   6.411   0.955   1.678
28260WAT     H185022   6.458   1.016   1.614
28260WAT     H285023   6.464   0.947   1.762
28261WAT      O85024   5.622   4.447   1.868
28261WAT     H185025   5.531   4.405   1.865
28261WAT     H285026   5.688   4.381   1.904
28262WAT      O85027   5.339   9.579   3.028
28262WAT     H185028   5.240   9.565   3.028
28262WAT     H285029   5.385   9.491   3.025
28263WAT      O85030   1.400   8.965   4.899
28263WAT     H185031   1.473   8.942   4.963
28263WAT     H285032   1.327   9.014   4.947
28264WAT      O85033   0.991   1.138   0.906
28264WAT     H185034   1.053   1.135   0.984
28264WAT     H285035   1.040   1.113   0.822
28265WAT      O85036   6.936   8.630   9.376
28265WAT     H185037   6.951   8.534   9.355
28265WAT     H285038   6.984   8.687   9.309
28266WAT      O85039   9.434   7.402   4.514
28266WAT     H185040   9.433   7.303   4.499
28266WAT     H285041   9.411   7.422   4.609
28267WAT      O85042   3.054   5.347   7.805
28267WAT     H185043   3.072   5.299   7.719
28267WAT     H285044   3.137   5.392   7.836
28268WAT      O85045   4.740   6.595   2.393
28268WAT     H185046   4.726   6.689   2.426
28268WAT     H285047   4.723   6.531   2.467
28269WAT      O85048   3.933   8.558   2.495
28269WAT     H185049   4.025   8.520   2.509
28269WAT     H285050   3.886   8.507   2.424
28270WAT      O85051   7.582   4.264   7.899
28270WAT     H185052   7.626   4.332   7.957
28270WAT     H285053   7.606   4.172   7.931
28271WAT      O85054   0.421   3.258   4.364
28271WAT     H185055   0.484   3.335   4.372
28271WAT     H285056   0.429   3.217   4.273
28272WAT      O85057   2.551   2.850   3.718
28272WAT     H185058   2.569   2.935   3.768
28272WAT     H285059   2.619   2.781   3.744
28273WAT      O85060   4.195   2.149   9.160
28273WAT     H185061   4.146   2.098   9.090
28273WAT     H285062   4.138   2.157   9.242
28274WAT      O85063   1.475   5.147   3.975
28274WAT     H185064   1.390   5.187   4.007
28274WAT     H285065   1.463   5.048   3.962
28275WAT      O85066   1.051   2.102   2.820
28275WAT     H185067   0.958   2.073   2.842
28275WAT     H285068   1.047   2.182   2.759
28276WAT      O85069   9.408   0.730   9.382
28276WAT     H185070   9.354   0.677   9.316
28276WAT     H285071   9.403   0.685   9.472
28277WAT      O85072   4.762   2.837   6.667
28277WAT     H185073   4.676   2.814   6.621
28277WAT     H285074   4.753   2.926   6.711
28278WAT      O85075   5.610   6.453   7.963
28278WAT     H185076   5.523   6.403   7.958
28278WAT     H285077   5.679   6.403   7.912
28279WAT      O85078   2.924   4.755   0.674
28279WAT     H185079   2.957   4.722   0.762
28279WAT     H285080   2.990   4.821   0.637
28280WAT      O85081   9.417   4.514   7.117
28280WAT     H185082   9.346   4.498   7.186
28280WAT     H285083   9.436   4.612   7.110
28281WAT      O85084   2.261   8.236   8.462
28281WAT     H185085   2.298   8.202   8.548
28281WAT     H285086   2.166   8.265   8.475
28282WAT      O85087   8.958   3.395   1.122
28282WAT     H185088   8.907   3.421   1.040
28282WAT     H285089   8.926   3.449   1.200
28283WAT      O85090   3.889   6.934   1.195
28283WAT     H185091   3.869   6.837   1.208
28283WAT     H285092   3.843   6.987   1.266
28284WAT      O85093   4.495   8.455   9.067
28284WAT     H185094   4.538   8.456   8.977
28284WAT     H285095   4.556   8.412   9.133
28285WAT      O85096   2.382   4.137   8.892
28285WAT     H185097   2.294   4.180   8.909
28285WAT     H285098   2.411   4.154   8.798
28286WAT      O85099   9.785   4.830   3.838
28286WAT     H185100   9.687   4.846   3.829
28286WAT     H285101   9.829   4.842   3.749
28287WAT      O85102   3.108   2.268   0.099
28287WAT     H185103   3.112   2.178   0.142
28287WAT     H285104   3.182   2.325   0.135
28288WAT      O85105   8.501   1.065   9.271
28288WAT     H185106   8.514   1.157   9.306
28288WAT     H285107   8.590   1.019   9.265
28289WAT      O85108   3.647   8.271   0.207
28289WAT     H185109   3.603   8.295   0.120
28289WAT     H285110   3.602   8.190   0.245
28290WAT      O85111   0.781   2.574   2.922
28290WAT     H185112   0.820   2.606   3.008
28290WAT     H285113   0.801   2.476   2.911
28291WAT      O85114   3.865   0.070   2.247
28291WAT     H185115   3.818   0.156   2.226
28291WAT     H285116   3.947   0.089   2.300
28292WAT      O85117   2.556   0.108   4.655
28292WAT     H185118   2.474   0.055   4.679
28292WAT     H285119   2.549   0.200   4.694
28293WAT      O85120   8.733   9.752   1.559
28293WAT     H185121   8.638   9.725   1.544
28293WAT     H285122   8.751   9.839   1.513
28294WAT      O85123   9.322   7.656   5.305
28294WAT     H185124   9.224   7.674   5.317
28294WAT     H285125   9.342   7.563   5.337
28295WAT      O85126   7.214   1.582   6.483
28295WAT     H185127   7.196   1.626   6.394
28295WAT     H285128   7.137   1.599   6.545
28296WAT      O85129   8.537   3.371   1.574
28296WAT     H185130   8.562   3.280   1.539
28296WAT     H285131   8.477   3.416   1.508
28297WAT      O85132   4.321   5.578   8.598
28297WAT     H185133   4.300   5.662   8.647
28297WAT     H285134   4.331   5.502   8.663
28298WAT      O85135   9.401   0.632   0.652
28298WAT     H185136   9.332   0.705   0.656
28298WAT     H285137   9.380   0.563   0.721
28299WAT      O85138   6.417   4.667   3.774
28299WAT     H185139   6.359   4.672   3.694
28299WAT     H285140   6.428   4.571   3.801
28300WAT      O85141   9.012   4.177   8.678
28300WAT     H185142   8.957   4.219   8.750
28300WAT     H285143   9.086   4.240   8.653
28301WAT      O85144   8.224   8.370   8.842
28301WAT     H185145   8.194   8.411   8.928
28301WAT     H285146   8.323   8.356   8.845
28302WAT      O85147   2.486   5.413   7.556
28302WAT     H185148   2.558   5.483   7.556
28302WAT     H285149   2.508   5.344   7.487
28303WAT      O85150   7.296   0.662   0.997
28303WAT     H185151   7.226   0.728   1.025
28303WAT     H285152   7.385   0.706   0.993
28304WAT      O85153   4.760   1.612   9.710
28304WAT     H185154   4.840   1.612   9.771
28304WAT     H285155   4.763   1.531   9.651
28305WAT      O85156   7.906   5.661   1.782
28305WAT     H185157   7.916   5.704   1.692
28305WAT     H285158   7.831   5.704   1.831
28306WAT      O85159   7.007   2.779   5.303
28306WAT     H185160   7.013   2.877   5.283
28306WAT     H285161   6.949   2.765   5.384
28307WAT      O85162   4.752   7.176   2.611
28307WAT     H185163   4.776   7.205   2.704
28307WAT     H285164   4.735   7.077   2.611
28308WAT      O85165   2.928   8.835   4.810
28308WAT     H185166   2.961   8.817   4.718
28308WAT     H285167   2.920   8.934   4.824
28309WAT      O85168   0.774   5.923   7.587
28309WAT     H185169   0.817   6.000   7.632
28309WAT     H285170   0.728   5.865   7.655
28310WAT      O85171   2.737   8.028   9.785
28310WAT     H185172   2.817   7.986   9.740
28310WAT     H285173   2.727   7.989   9.877
28311WAT      O85174   9.849   1.341   3.529
28311WAT     H185175   9.944   1.310   3.518
28311WAT     H285176   9.790   1.287   3.469
28312WAT      O85177   7.536   9.031   5.448
28312WAT     H185178   7.628   9.019   5.410
28312WAT     H285179   7.542   9.042   5.547
28313WAT      O85180   3.977   7.294   9.666
28313WAT     H185181   3.980   7.302   9.766
28313WAT     H285182   4.049   7.231   9.635
28314WAT      O85183   7.872   9.706   5.943
28314WAT     H185184   7.805   9.668   5.878
28314WAT     H285185   7.961   9.664   5.927
28315WAT      O85186   7.176   6.684   7.571
28315WAT     H185187   7.233   6.654   7.648
28315WAT     H285188   7.120   6.762   7.600
28316WAT      O85189   9.651   9.580   7.656
28316WAT     H185190   9.630   9.639   7.734
28316WAT     H285191   9.592   9.605   7.579
28317WAT      O85192   5.958   4.832   1.270
28317WAT     H185193   5.896   4.759   1.241
28317WAT     H285194   6.053   4.802   1.260
28318WAT      O85195   7.913   3.828   6.899
28318WAT     H185196   8.004   3.803   6.932
28318WAT     H285197   7.915   3.833   6.799
28319WAT      O85198   3.909   1.537   7.199
28319WAT     H185199   3.819   1.566   7.233
28319WAT     H285200   3.904   1.443   7.166
28320WAT      O85201   4.126   1.992   1.914
28320WAT     H185202   4.060   1.939   1.967
28320WAT     H285203   4.175   1.931   1.852
28321WAT      O85204   3.477   5.442   4.580
28321WAT     H185205   3.442   5.463   4.489
28321WAT     H285206   3.405   5.458   4.648
28322WAT      O85207   8.080   4.781   7.723
28322WAT     H185208   8.059   4.753   7.816
28322WAT     H285209   8.094   4.701   7.666
28323WAT      O85210   4.955   8.363   0.071
28323WAT     H185211   4.977   8.357  -0.026
28323WAT     H285212   5.037   8.343   0.125
28324WAT      O85213   4.069   1.599   0.177
28324WAT     H185214   4.021   1.567   0.096
28324WAT     H285215   4.086   1.521   0.238
28325WAT      O85216   5.025   4.160   1.485
28325WAT     H185217   5.021   4.219   1.566
28325WAT     H285218   5.053   4.214   1.405
28326WAT      O85219   7.790   8.554   1.693
28326WAT     H185220   7.877   8.596   1.668
28326WAT     H285221   7.716   8.599   1.643
28327WAT      O85222   0.051   0.399   0.035
28327WAT     H185223   0.023   0.303   0.027
28327WAT     H285224   0.101   0.411   0.121
28328WAT      O85225   6.122   3.467   2.299
28328WAT     H185226   6.094   3.518   2.218
28328WAT     H285227   6.156   3.377   2.272
28329WAT      O85228   4.523   5.267   7.316
28329WAT     H185229   4.546   5.170   7.315
28329WAT     H285230   4.516   5.299   7.410
28330WAT      O85231   1.522   3.779   8.845
28330WAT     H185232   1.440   3.799   8.791
28330WAT     H285233   1.572   3.703   8.803
28331WAT      O85234   6.356   9.491   3.407
28331WAT     H185235   6.274   9.439   3.384
28331WAT     H285236   6.368   9.492   3.506
28332WAT      O85237   7.520   8.917   2.984
28332WAT     H185238   7.441   8.857   2.996
28332WAT     H285239   7.589   8.895   3.052
28333WAT      O85240   1.466   7.966   8.985
28333WAT     H185241   1.428   7.950   8.894
28333WAT     H285242   1.435   8.055   9.019
28334WAT      O85243   2.461   3.230   3.150
28334WAT     H185244   2.517   3.192   3.224
28334WAT     H285245   2.444   3.159   3.082
28335WAT      O85246   0.070   9.072   7.640
28335WAT     H185247  -0.018   9.069   7.593
28335WAT     H285248   0.057   9.102   7.735
28336WAT      O85249   8.438   5.064   5.962
28336WAT     H185250   8.427   4.986   5.901
28336WAT     H285251   8.382   5.050   6.044
28337WAT      O85252   0.472   7.628   0.247
28337WAT     H185253   0.557   7.662   0.287
28337WAT     H285254   0.484   7.618   0.148
28338WAT      O85255   1.809   1.879   0.593
28338WAT     H185256   1.810   1.974   0.563
28338WAT     H285257   1.765   1.872   0.683
28339WAT      O85258   9.100   4.515   5.546
28339WAT     H185259   9.095   4.501   5.645
28339WAT     H285260   9.162   4.591   5.526
28340WAT      O85261   2.618   6.117   3.368
28340WAT     H185262   2.670   6.120   3.283
28340WAT     H285263   2.580   6.208   3.387
28341WAT      O85264   1.779   8.220   6.856
28341WAT     H185265   1.754   8.224   6.953
28341WAT     H285266   1.724   8.150   6.810
28342WAT      O85267   3.422   1.586   1.455
28342WAT     H185268   3.397   1.564   1.361
28342WAT     H285269   3.510   1.632   1.456
28343WAT      O85270   7.745   8.039   2.445
28343WAT     H185271   7.788   8.028   2.355
28343WAT     H285272   7.789   7.979   2.511
28344WAT      O85273   4.688   8.526   2.477
28344WAT     H185274   4.731   8.472   2.549
28344WAT     H285275   4.648   8.609   2.517
28345WAT      O85276   2.283   5.950   2.863
28345WAT     H185277   2.229   5.947   2.946
28345WAT     H285278   2.223   5.959   2.784
28346WAT      O85279   7.958   5.089   3.873
28346WAT     H185280   7.957   4.989   3.875
28346WAT     H285281   8.040   5.121   3.826
28347WAT      O85282   3.631   6.054   8.536
28347WAT     H185283   3.541   6.070   8.575
28347WAT     H285284   3.627   5.975   8.474
28348WAT      O85285   6.472   4.407   6.536
28348WAT     H185286   6.472   4.308   6.525
28348WAT     H285287   6.385   4.437   6.575
28349WAT      O85288   8.314   3.479   6.220
28349WAT     H185289   8.287   3.425   6.299
28349WAT     H285290   8.410   3.461   6.198
28350WAT      O85291   5.551   6.613   6.085
28350WAT     H185292   5.516   6.555   6.012
28350WAT     H285293   5.562   6.706   6.051
28351WAT      O85294   6.046   5.295   3.070
28351WAT     H185295   6.068   5.381   3.117
28351WAT     H285296   6.125   5.234   3.074
28352WAT      O85297   3.899   7.095   3.560
28352WAT     H185298   3.916   7.194   3.554
28352WAT     H285299   3.935   7.061   3.647
28353WAT      O85300   3.540   4.391   8.600
28353WAT     H185301   3.541   4.441   8.687
28353WAT     H285302   3.630   4.353   8.582
28354WAT      O85303   3.187   2.151   6.948
28354WAT     H185304   3.133   2.235   6.951
28354WAT     H285305   3.163   2.093   7.026
28355WAT      O85306   8.263   4.033   7.799
28355WAT     H185307   8.310   4.065   7.881
28355WAT     H285308   8.316   3.961   7.756
28356WAT      O85309   7.936   4.328   1.259
28356WAT     H185310   7.867   4.289   1.319
28356WAT     H285311   7.987   4.399   1.309
28357WAT      O85312   2.155   1.024   8.894
28357WAT     H185313   2.086   1.014   8.822
28357WAT     H285314   2.241   0.984   8.863
28358WAT      O85315   8.478   7.221   6.469
28358WAT     H185316   8.407   7.183   6.528
28358WAT     H285317   8.518   7.302   6.513
28359WAT      O85318   4.615   2.872   6.285
28359WAT     H185319   4.672   2.954   6.276
28359WAT     H285320   4.673   2.791   6.273
28360WAT      O85321   5.954   8.525   7.582
28360WAT     H185322   6.000   8.526   7.494
28360WAT     H285323   5.929   8.618   7.608
28361WAT      O85324   3.799   3.733   4.119
28361WAT     H185325   3.733   3.763   4.188
28361WAT     H285326   3.866   3.672   4.161
28362WAT      O85327   5.768   4.553   5.918
28362WAT     H185328   5.729   4.461   5.927
28362WAT     H285329   5.770   4.597   6.008
28363WAT      O85330   8.200   8.507   0.317
28363WAT     H185331   8.215   8.446   0.395
28363WAT     H285332   8.102   8.525   0.307
28364WAT      O85333   1.586   7.671   0.556
28364WAT     H185334   1.488   7.672   0.537
28364WAT     H285335   1.626   7.757   0.523
28365WAT      O85336   1.313   7.234   9.750
28365WAT     H185337   1.240   7.289   9.790
28365WAT     H285338   1.295   7.137   9.767
28366WAT      O85339   5.414   2.234   9.187
28366WAT     H185340   5.363   2.262   9.106
28366WAT     H285341   5.357   2.247   9.268
28367WAT      O85342   0.174   3.505   4.767
28367WAT     H185343   0.187   3.465   4.858
28367WAT     H285344   0.199   3.439   4.697
28368WAT      O85345   0.149   1.433   5.982
28368WAT     H185346   0.113   1.354   5.933
28368WAT     H285347   0.182   1.501   5.916
28369WAT      O85348   0.708   5.175   7.221
28369WAT     H185349   0.672   5.084   7.243
28369WAT     H285350   0.762   5.209   7.298
28370WAT      O85351   2.940   4.801   2.543
28370WAT     H185352   2.853   4.783   2.589
28370WAT     H285353   2.952   4.899   2.532
28371WAT      O85354   0.367   6.751   6.077
28371WAT     H185355   0.434   6.689   6.119
28371WAT     H285356   0.413   6.809   6.011
28372WAT      O85357   1.892   7.789   5.393
28372WAT     H185358   1.975   7.746   5.429
28372WAT     H285359   1.912   7.884   5.368
28373WAT      O85360   4.747   7.885   8.161
28373WAT     H185361   4.718   7.960   8.102
28373WAT     H285362   4.682   7.810   8.153
28374WAT      O85363   3.723   5.727   9.567
28374WAT     H185364   3.652   5.716   9.499
28374WAT     H285365   3.682   5.751   9.655
28375WAT      O85366   8.074   1.647   6.041
28375WAT     H185367   8.120   1.727   6.005
28375WAT     H285368   8.062   1.656   6.140
28376WAT      O85369   3.690   0.329   6.307
28376WAT     H185370   3.677   0.402   6.373
28376WAT     H285371   3.604   0.309   6.261
28377WAT      O85372   9.736   0.231   0.790
28377WAT     H185373   9.693   0.307   0.840
28377WAT     H285374   9.834   0.227   0.813
28378WAT      O85375   1.753   6.810   7.220
28378WAT     H185376   1.694   6.850   7.149
28378WAT     H285377   1.810   6.739   7.180
28379WAT      O85378   1.382   4.717   2.747
28379WAT     H185379   1.353   4.634   2.794
28379WAT     H285380   1.472   4.745   2.781
28380WAT      O85381   6.876   8.182   7.683
28380WAT     H185382   6.968   8.196   7.646
28380WAT     H285383   6.881   8.175   7.783
28381WAT      O85384   9.355   6.194   2.369
28381WAT     H185385   9.441   6.244   2.375
28381WAT     H285386   9.372   6.097   2.389
28382WAT      O85387   9.567   2.036   4.255
28382WAT     H185388   9.580   1.943   4.220
28382WAT     H285389   9.485   2.076   4.215
28383WAT      O85390   9.826   0.029   8.451
28383WAT     H185391   9.896  -0.037   8.479
28383WAT     H285392   9.865   0.121   8.453
28384WAT      O85393   2.168   1.744   8.378
28384WAT     H185394   2.188   1.840   8.360
28384WAT     H285395   2.230   1.687   8.324
28385WAT      O85396   0.310   6.721   7.310
28385WAT     H185397   0.391   6.684   7.358
28385WAT     H285398   0.295   6.669   7.226
28386WAT      O85399   6.178   4.192   8.390
28386WAT     H185400   6.148   4.098   8.404
28386WAT     H285401   6.274   4.192   8.363
28387WAT      O85402   4.621   5.515   8.703
28387WAT     H185403   4.592   5.440   8.644
28387WAT     H285404   4.610   5.487   8.799
28388WAT      O85405   9.673   7.807   9.478
28388WAT     H185406   9.710   7.783   9.568
28388WAT     H285407   9.647   7.723   9.430
28389WAT      O85408   5.163   8.021   4.441
28389WAT     H185409   5.212   7.970   4.512
28389WAT     H285410   5.072   8.046   4.473
28390WAT      O85411   0.769   9.223   8.648
28390WAT     H185412   0.730   9.167   8.721
28390WAT     H285413   0.694   9.266   8.597
28391WAT      O85414   5.496   8.720   6.997
28391WAT     H185415   5.527   8.806   6.957
28391WAT     H285416   5.439   8.740   7.077
28392WAT      O85417   6.786   8.563   6.846
28392WAT     H185418   6.760   8.653   6.881
28392WAT     H285419   6.842   8.574   6.764
28393WAT      O85420   9.672   5.122   3.627
28393WAT     H185421   9.628   5.046   3.673
28393WAT     H285422   9.726   5.088   3.550
28394WAT      O85423   5.121   6.258   2.078
28394WAT     H185424   5.152   6.306   2.160
28394WAT     H285425   5.032   6.215   2.096
28395WAT      O85426   4.579   0.324   8.858
28395WAT     H185427   4.487   0.363   8.864
28395WAT     H285428   4.631   0.371   8.787
28396WAT      O85429   4.828   4.637   6.828
28396WAT     H185430   4.846   4.710   6.762
28396WAT     H285431   4.869   4.661   6.916
28397WAT      O85432   6.334   9.634   5.333
28397WAT     H185433   6.347   9.590   5.422
28397WAT     H285434   6.247   9.682   5.331
28398WAT      O85435   1.468   7.655   3.527
28398WAT     H185436   1.549   7.618   3.481
28398WAT     H285437   1.445   7.596   3.605
28399WAT      O85438   7.316   0.278   6.125
28399WAT     H185439   7.303   0.363   6.073
28399WAT     H285440   7.412   0.270   6.153
28400WAT      O85441   1.594   3.734   0.252
28400WAT     H185442   1.627   3.641   0.263
28400WAT     H285443   1.498   3.739   0.279
28401WAT      O85444   4.984   7.268   4.445
28401WAT     H185445   5.028   7.217   4.371
28401WAT     H285446   5.020   7.235   4.533
28402WAT      O85447   5.780   1.883   2.505
28402WAT     H185448   5.740   1.867   2.415
28402WAT     H285449   5.865   1.934   2.495
28403WAT      O85450   2.764   1.002   1.911
28403WAT     H185451   2.682   0.944   1.911
28403WAT     H285452   2.736   1.098   1.910
28404WAT      O85453   9.812   0.189   4.261
28404WAT     H185454   9.859   0.105   4.287
28404WAT     H285455   9.859   0.267   4.303
28405WAT      O85456   7.967   4.263   1.556
28405WAT     H185457   8.061   4.227   1.555
28405WAT     H285458   7.966   4.354   1.597
28406WAT      O85459   8.457   2.150   5.964
28406WAT     H185460   8.438   2.241   6.002
28406WAT     H285461   8.399   2.137   5.883
28407WAT      O85462   0.451   5.561   4.340
28407WAT     H185463   0.376   5.512   4.384
28407WAT     H285464   0.529   5.500   4.329
28408WAT      O85465   7.932   4.235   0.610
28408WAT     H185466   7.919   4.154   0.552
28408WAT     H285467   7.967   4.310   0.554
28409WAT      O85468   0.768   9.351   7.357
28409WAT     H185469   0.729   9.338   7.447
28409WAT     H285470   0.854   9.301   7.350
28410WAT      O85471   9.410   6.836   8.972
28410WAT     H185472   9.507   6.859   8.979
28410WAT     H285473   9.359   6.889   9.040
28411WAT      O85474   8.933   8.328   6.807
28411WAT     H185475   8.944   8.410   6.750
28411WAT     H285476   8.838   8.298   6.805
28412WAT      O85477   2.754   1.666   4.406
28412WAT     H185478   2.844   1.661   4.450
28412WAT     H285479   2.740   1.585   4.349
28413WAT      O85480   8.197   2.583   5.181
28413WAT     H185481   8.239   2.580   5.272
28413WAT     H285482   8.229   2.506   5.127
28414WAT      O85483   9.191   1.590   4.628
28414WAT     H185484   9.129   1.631   4.561
28414WAT     H285485   9.138   1.548   4.701
28415WAT      O85486   5.281   8.529   8.773
28415WAT     H185487   5.266   8.525   8.674
28415WAT     H285488   5.330   8.612   8.796
28416WAT      O85489   2.226   7.571   5.699
28416WAT     H185490   2.224   7.578   5.599
28416WAT     H285491   2.133   7.559   5.734
28417WAT      O85492   3.947   9.568   6.272
28417WAT     H185493   3.964   9.655   6.318
28417WAT     H285494   4.029   9.537   6.225
28418WAT      O85495   1.463   8.733   8.761
28418WAT     H185496   1.455   8.819   8.811
28418WAT     H285497   1.411   8.739   8.675
28419WAT      O85498   2.299   6.591   2.320
28419WAT     H185499   2.305   6.690   2.331
28419WAT     H285500   2.299   6.547   2.410
28420WAT      O85501   5.177   2.308   6.383
28420WAT     H185502   5.218   2.285   6.295
28420WAT     H285503   5.078   2.299   6.377
28421WAT      O85504   6.681   5.482   4.774
28421WAT     H185505   6.627   5.564   4.794
28421WAT     H285506   6.737   5.460   4.853
28422WAT      O85507   8.778   5.818   4.542
28422WAT     H185508   8.734   5.730   4.521
28422WAT     H285509   8.814   5.858   4.458
28423WAT      O85510   5.647   7.831   9.574
28423WAT     H185511   5.695   7.882   9.645
28423WAT     H285512   5.627   7.739   9.607
28424WAT      O85513   5.144   3.138   9.081
28424WAT     H185514   5.164   3.231   9.051
28424WAT     H285515   5.053   3.111   9.048
28425WAT      O85516   2.605   7.388   7.620
28425WAT     H185517   2.673   7.315   7.624
28425WAT     H285518   2.589   7.414   7.525
28426WAT      O85519   3.569   9.170   6.354
28426WAT     H185520   3.654   9.221   6.345
28426WAT     H285521   3.523   9.197   6.439
28427WAT      O85522   8.379   8.241   5.595
28427WAT     H185523   8.478   8.231   5.584
28427WAT     H285524   8.336   8.249   5.505
28428WAT      O85525   0.163   8.216   7.202
28428WAT     H185526   0.180   8.119   7.219
28428WAT     H285527   0.081   8.226   7.146
28429WAT      O85528   4.578   0.746   8.117
28429WAT     H185529   4.546   0.840   8.101
28429WAT     H285530   4.667   0.749   8.162
28430WAT      O85531   8.527   7.154   8.621
28430WAT     H185532   8.504   7.079   8.558
28430WAT     H285533   8.530   7.240   8.571
28431WAT      O85534   6.699   0.653   5.632
28431WAT     H185535   6.750   0.599   5.566
28431WAT     H285536   6.616   0.689   5.589
28432WAT      O85537   1.212   6.944   6.874
28432WAT     H185538   1.145   6.978   6.940
28432WAT     H285539   1.260   7.021   6.831
28433WAT      O85540   2.555   0.987   9.527
28433WAT     H185541   2.521   1.038   9.448
28433WAT     H285542   2.547   0.889   9.509
28434WAT      O85543   1.314   7.794   2.759
28434WAT     H185544   1.238   7.761   2.815
28434WAT     H285545   1.383   7.836   2.817
28435WAT      O85546   3.240   5.704   6.951
28435WAT     H185547   3.305   5.635   6.982
28435WAT     H285548   3.150   5.661   6.940
28436WAT      O85549   8.168   4.305   5.110
28436WAT     H185550   8.131   4.336   5.198
28436WAT     H285551   8.095   4.265   5.056
28437WAT      O85552   3.677   6.013   2.784
28437WAT     H185553   3.699   6.110   2.794
28437WAT     H285554   3.667   5.971   2.874
28438WAT      O85555   5.537   1.826   0.282
28438WAT     H185556   5.497   1.890   0.347
28438WAT     H285557   5.586   1.876   0.211
28439WAT      O85558   7.508   1.949   4.236
28439WAT     H185559   7.418   1.939   4.194
28439WAT     H285560   7.510   1.896   4.322
28440WAT      O85561   8.680   7.227   6.114
28440WAT     H185562   8.716   7.189   6.029
28440WAT     H285563   8.624   7.308   6.094
28441WAT      O85564   3.445   5.344   3.896
28441WAT     H185565   3.489   5.255   3.907
28441WAT     H285566   3.500   5.401   3.835
28442WAT      O85567   4.419   7.803   9.316
28442WAT     H185568   4.456   7.767   9.402
28442WAT     H285569   4.483   7.869   9.277
28443WAT      O85570   3.903   7.573   1.898
28443WAT     H185571   3.955   7.496   1.933
28443WAT     H285572   3.860   7.622   1.974
28444WAT      O85573   1.886   7.813   8.894
28444WAT     H185574   1.855   7.806   8.799
28444WAT     H285575   1.981   7.843   8.896
28445WAT      O85576   3.485   9.513   3.968
28445WAT     H185577   3.506   9.578   4.041
28445WAT     H285578   3.386   9.507   3.957
28446WAT      O85579   5.350   4.091   8.980
28446WAT     H185580   5.367   3.996   8.953
28446WAT     H285581   5.253   4.112   8.966
28447WAT      O85582   0.148   3.663   7.935
28447WAT     H185583   0.094   3.674   7.852
28447WAT     H285584   0.245   3.673   7.914
28448WAT      O85585   9.837   1.695   2.825
28448WAT     H185586   9.871   1.653   2.741
28448WAT     H285587   9.773   1.768   2.803
28449WAT      O85588   5.513   8.595   7.611
28449WAT     H185589   5.418   8.620   7.593
28449WAT     H285590   5.561   8.581   7.524
28450WAT      O85591   0.498   2.006   4.123
28450WAT     H185592   0.481   1.949   4.204
28450WAT     H285593   0.576   1.969   4.072
28451WAT      O85594   7.930   4.392   5.579
28451WAT     H185595   7.966   4.300   5.562
28451WAT     H285596   7.830   4.391   5.576
28452WAT      O85597   2.716   2.268   5.879
28452WAT     H185598   2.771   2.217   5.946
28452WAT     H285599   2.652   2.327   5.927
28453WAT      O85600   9.058   9.401   0.489
28453WAT     H185601   9.010   9.481   0.526
28453WAT     H285602   9.019   9.318   0.530
28454WAT      O85603   6.555   7.950   6.441
28454WAT     H185604   6.649   7.918   6.438
28454WAT     H285605   6.495   7.884   6.395
28455WAT      O85606   0.775   4.291   3.934
28455WAT     H185607   0.862   4.293   3.984
28455WAT     H285608   0.738   4.198   3.936
28456WAT      O85609   5.156   6.730   2.756
28456WAT     H185610   5.149   6.778   2.669
28456WAT     H285611   5.219   6.779   2.817
28457WAT      O85612   5.064   1.264   4.721
28457WAT     H185613   5.138   1.237   4.660
28457WAT     H285614   4.996   1.318   4.671
28458WAT      O85615   0.838   9.262   1.039
28458WAT     H185616   0.764   9.225   0.982
28458WAT     H285617   0.800   9.311   1.117
28459WAT      O85618   3.680   1.995   8.358
28459WAT     H185619   3.778   1.978   8.347
28459WAT     H285620   3.660   2.090   8.334
28460WAT      O85621   4.045   7.094   3.796
28460WAT     H185622   4.027   7.192   3.790
28460WAT     H285623   4.009   7.060   3.883
28461WAT      O85624   4.364   3.165   7.591
28461WAT     H185625   4.382   3.262   7.573
28461WAT     H285626   4.274   3.155   7.634
28462WAT      O85627   5.002   9.594   1.938
28462WAT     H185628   5.081   9.650   1.963
28462WAT     H285629   4.964   9.627   1.852
28463WAT      O85630   4.265   1.538   0.470
28463WAT     H185631   4.277   1.449   0.425
28463WAT     H285632   4.342   1.597   0.447
28464WAT      O85633   5.197   9.552   5.078
28464WAT     H185634   5.177   9.610   5.157
28464WAT     H285635   5.187   9.605   4.994
28465WAT      O85636   7.770   0.028   4.558
28465WAT     H185637   7.833   0.079   4.617
28465WAT     H285638   7.758  -0.064   4.594
28466WAT      O85639   7.721   6.140   2.550
28466WAT     H185640   7.773   6.113   2.469
28466WAT     H285641   7.627   6.161   2.524
28467WAT      O85642   0.518   4.497   0.608
28467WAT     H185643   0.546   4.548   0.526
28467WAT     H285644   0.424   4.523   0.632
28468WAT      O85645   5.879   9.590   1.222
28468WAT     H185646   5.914   9.684   1.222
28468WAT     H285647   5.955   9.526   1.224
28469WAT      O85648   7.075   3.269   3.032
28469WAT     H185649   7.144   3.275   3.103
28469WAT     H285650   7.112   3.221   2.952
28470WAT      O85651   0.714   2.134   3.762
28470WAT     H185652   0.722   2.083   3.676
28470WAT     H285653   0.802   2.175   3.784
28471WAT      O85654   6.096   4.359   3.060
28471WAT     H185655   6.099   4.445   3.110
28471WAT     H285656   6.189   4.322   3.052
28472WAT      O85657   9.038   8.185   6.257
28472WAT     H185658   9.081   8.188   6.167
28472WAT     H285659   9.094   8.131   6.319
28473WAT      O85660   7.788   9.797   8.436
28473WAT     H185661   7.703   9.826   8.481
28473WAT     H285662   7.823   9.872   8.381
28474WAT      O85663   9.076   7.880   5.560
28474WAT     H185664   9.022   7.963   5.569
28474WAT     H285665   9.159   7.888   5.615
28475WAT      O85666   8.161   3.717   9.473
28475WAT     H185667   8.159   3.705   9.572
28475WAT     H285668   8.168   3.815   9.452
28476WAT      O85669   8.948   9.203   0.847
28476WAT     H185670   8.980   9.269   0.915
28476WAT     H285671   8.877   9.145   0.888
28477WAT      O85672   1.310   3.305   3.285
28477WAT     H185673   1.359   3.233   3.235
28477WAT     H285674   1.312   3.390   3.233
28478WAT      O85675   8.066   6.155   4.194
28478WAT     H185676   8.130   6.124   4.265
28478WAT     H285677   7.976   6.169   4.235
28479WAT      O85678   9.789   5.194   2.220
28479WAT     H185679   9.694   5.166   2.204
28479WAT     H285680   9.848   5.114   2.219
28480WAT      O85681   3.154   3.659   1.484
28480WAT     H185682   3.221   3.730   1.505
28480WAT     H285683   3.201   3.571   1.477
28481WAT      O85684   4.969   2.913   5.623
28481WAT     H185685   4.983   2.996   5.568
28481WAT     H285686   4.909   2.850   5.573
28482WAT      O85687   1.807   5.278   1.685
28482WAT     H185688   1.729   5.248   1.740
28482WAT     H285689   1.892   5.249   1.729
28483WAT      O85690   6.434   9.383   0.946
28483WAT     H185691   6.360   9.317   0.929
28483WAT     H285692   6.460   9.426   0.859
28484WAT      O85693   1.219   7.501   9.372
28484WAT     H185694   1.267   7.537   9.292
28484WAT     H285695   1.284   7.489   9.447
28485WAT      O85696   9.432   4.594   0.967
28485WAT     H185697   9.527   4.581   0.938
28485WAT     H285698   9.429   4.658   1.044
28486WAT      O85699   2.057   4.687   4.293
28486WAT     H185700   2.063   4.668   4.391
28486WAT     H285701   2.096   4.610   4.241
28487WAT      O85702   5.308   1.126   5.422
28487WAT     H185703   5.357   1.201   5.377
28487WAT     H285704   5.347   1.039   5.396
28488WAT      O85705   5.950   4.479   8.218
28488WAT     H185706   6.033   4.530   8.195
28488WAT     H285707   5.971   4.381   8.222
28489WAT      O85708   6.686   3.255   5.760
28489WAT     H185709   6.589   3.251   5.737
28489WAT     H285710   6.721   3.162   5.774
28490WAT      O85711   9.020   2.201   3.976
28490WAT     H185712   8.975   2.117   4.005
28490WAT     H285713   8.972   2.240   3.897
28491WAT      O85714   9.577   9.410   3.060
28491WAT     H185715   9.500   9.439   3.003
28491WAT     H285716   9.546   9.343   3.127
28492WAT      O85717   8.421   9.089   2.819
28492WAT     H185718   8.505   9.037   2.804
28492WAT     H285719   8.444   9.181   2.850
28493WAT      O85720   4.894   4.207   1.849
28493WAT     H185721   4.880   4.208   1.948
28493WAT     H285722   4.936   4.119   1.823
28494WAT      O85723   1.971   6.302   7.426
28494WAT     H185724   2.000   6.357   7.348
28494WAT     H285725   1.964   6.360   7.507
28495WAT      O85726   8.106   3.590   8.680
28495WAT     H185727   8.038   3.655   8.712
28495WAT     H285728   8.088   3.500   8.719
28496WAT      O85729   7.837   5.105   1.763
28496WAT     H185730   7.934   5.118   1.741
28496WAT     H285731   7.819   5.143   1.854
28497WAT      O85732   7.804   5.611   5.587
28497WAT     H185733   7.774   5.588   5.679
28497WAT     H285734   7.899   5.642   5.590
28498WAT      O85735   8.884   8.348   9.829
28498WAT     H185736   8.836   8.434   9.817
28498WAT     H285737   8.983   8.362   9.818
28499WAT      O85738   4.423   7.771   2.525
28499WAT     H185739   4.383   7.716   2.598
28499WAT     H285740   4.358   7.779   2.449
28500WAT      O85741   5.688   8.688   8.321
28500WAT     H185742   5.607   8.715   8.270
28500WAT     H285743   5.734   8.770   8.355
28501WAT      O85744   8.204   5.993   5.250
28501WAT     H185745   8.226   6.084   5.214
28501WAT     H285746   8.289   5.944   5.271
28502WAT      O85747   3.100   4.578   9.048
28502WAT     H185748   3.043   4.546   9.123
28502WAT     H285749   3.144   4.664   9.074
28503WAT      O85750   1.991   7.697   2.298
28503WAT     H185751   1.944   7.618   2.258
28503WAT     H285752   1.927   7.748   2.355
28504WAT      O85753   4.929   8.105   7.956
28504WAT     H185754   5.013   8.128   8.004
28504WAT     H285755   4.902   8.182   7.898
28505WAT      O85756   4.319   1.529   5.533
28505WAT     H185757   4.410   1.569   5.546
28505WAT     H285758   4.321   1.469   5.453
28506WAT      O85759   6.529   2.754   4.787
28506WAT     H185760   6.583   2.688   4.839
28506WAT     H285761   6.553   2.847   4.817
28507WAT      O85762   7.655   3.248   3.278
28507WAT     H185763   7.735   3.264   3.337
28507WAT     H285764   7.637   3.149   3.273
28508WAT      O85765   0.065   2.233   6.836
28508WAT     H185766   0.023   2.161   6.780
28508WAT     H285767   0.001   2.310   6.843
28509WAT      O85768   2.710   8.836   0.641
28509WAT     H185769   2.610   8.835   0.649
28509WAT     H285770   2.744   8.926   0.669
28510WAT      O85771   2.466   5.201   6.160
28510WAT     H185772   2.446   5.142   6.082
28510WAT     H285773   2.426   5.291   6.145
28511WAT      O85774   0.915   3.708   0.454
28511WAT     H185775   1.006   3.748   0.465
28511WAT     H285776   0.857   3.771   0.401
28512WAT      O85777   4.522   4.864   5.576
28512WAT     H185778   4.557   4.863   5.483
28512WAT     H285779   4.485   4.773   5.599
28513WAT      O85780   1.703   6.967   3.111
28513WAT     H185781   1.782   6.986   3.170
28513WAT     H285782   1.620   6.967   3.166
28514WAT      O85783   6.287   7.452   9.733
28514WAT     H185784   6.367   7.423   9.785
28514WAT     H285785   6.230   7.373   9.712
28515WAT      O85786   6.807   6.680   9.737
28515WAT     H185787   6.755   6.610   9.688
28515WAT     H285788   6.901   6.649   9.750
28516WAT      O85789   8.027   8.373   0.725
28516WAT     H185790   8.008   8.426   0.642
28516WAT     H285791   7.941   8.352   0.771
28517WAT      O85792   7.453   9.302   8.583
28517WAT     H185793   7.440   9.377   8.648
28517WAT     H285794   7.481   9.339   8.494
28518WAT      O85795   2.722   6.149   8.505
28518WAT     H185796   2.704   6.246   8.489
28518WAT     H285797   2.639   6.097   8.490
28519WAT      O85798   9.740   2.076   5.242
28519WAT     H185799   9.814   2.140   5.221
28519WAT     H285800   9.661   2.096   5.184
28520WAT      O85801   1.991   6.973   1.095
28520WAT     H185802   2.014   6.986   0.999
28520WAT     H285803   1.936   7.050   1.127
28521WAT      O85804   9.637   4.484   7.411
28521WAT     H185805   9.575   4.551   7.453
28521WAT     H285806   9.689   4.528   7.339
28522WAT      O85807   5.398   8.079   6.403
28522WAT     H185808   5.388   7.980   6.395
28522WAT     H285809   5.332   8.114   6.470
28523WAT      O85810   7.904   2.394   7.557
28523WAT     H185811   7.983   2.360   7.506
28523WAT     H285812   7.835   2.428   7.492
28524WAT      O85813   6.953   3.669   6.836
28524WAT     H185814   6.972   3.573   6.813
28524WAT     H285815   6.952   3.679   6.936
28525WAT      O85816   0.663   3.881   1.111
28525WAT     H185817   0.702   3.790   1.126
28525WAT     H285818   0.679   3.938   1.192
28526WAT      O85819   9.612   5.444   4.483
28526WAT     H185820   9.610   5.344   4.486
28526WAT     H285821   9.553   5.481   4.554
28527WAT      O85822   0.712   1.611   4.094
28527WAT     H185823   0.636   1.580   4.038
28527WAT     H285824   0.786   1.544   4.090
28528WAT      O85825   9.072   7.343   9.406
28528WAT     H185826   9.011   7.270   9.435
28528WAT     H285827   9.075   7.414   9.476
28529WAT      O85828   1.513   6.317   9.718
28529WAT     H185829   1.560   6.344   9.802
28529WAT     H285830   1.581   6.285   9.651
28530WAT      O85831   8.927   3.279   6.845
28530WAT     H185832   8.941   3.231   6.931
28530WAT     H285833   8.896   3.373   6.864
28531WAT      O85834   4.508   2.197   4.762
28531WAT     H185835   4.411   2.218   4.754
28531WAT     H285836   4.549   2.192   4.671
28532WAT      O85837   0.196   7.229   2.712
28532WAT     H185838   0.281   7.236   2.661
28532WAT     H285839   0.121   7.267   2.657
28533WAT      O85840   9.872   4.114   6.895
28533WAT     H185841   9.796   4.099   6.958
28533WAT     H285842   9.948   4.054   6.920
28534WAT      O85843   2.383   1.103   3.942
28534WAT     H185844   2.431   1.092   4.029
28534WAT     H285845   2.292   1.141   3.959
28535WAT      O85846   9.756   5.027   2.480
28535WAT     H185847   9.772   5.033   2.382
28535WAT     H285848   9.833   4.981   2.524
28536WAT      O85849   7.687   9.476   1.656
28536WAT     H185850   7.602   9.489   1.605
28536WAT     H285851   7.672   9.497   1.753
28537WAT      O85852   8.088   0.888   9.598
28537WAT     H185853   8.118   0.948   9.524
28537WAT     H285854   8.061   0.799   9.561
28538WAT      O85855   5.012   1.319   0.113
28538WAT     H185856   4.937   1.325   0.047
28538WAT     H285857   5.086   1.263   0.074
28539WAT      O85858   2.794   4.590   8.311
28539WAT     H185859   2.874   4.530   8.317
28539WAT     H285860   2.768   4.619   8.403
28540WAT      O85861   6.078   6.613   2.532
28540WAT     H185862   6.016   6.661   2.471
28540WAT     H285863   6.026   6.573   2.608
28541WAT      O85864   5.375   3.868   4.895
28541WAT     H185865   5.396   3.784   4.945
28541WAT     H285866   5.409   3.947   4.946
28542WAT      O85867   0.673   3.173   2.080
28542WAT     H185868   0.728   3.116   2.019
28542WAT     H285869   0.662   3.264   2.039
28543WAT      O85870   2.912   7.185   9.709
28543WAT     H185871   2.952   7.274   9.686
28543WAT     H285872   2.826   7.199   9.757
28544WAT      O85873   2.782   3.367   6.080
28544WAT     H185874   2.718   3.328   6.146
28544WAT     H285875   2.731   3.417   6.010
28545WAT      O85876   1.443   2.003   3.389
28545WAT     H185877   1.464   2.000   3.486
28545WAT     H285878   1.401   1.916   3.362
28546WAT      O85879   3.091   0.627   6.845
28546WAT     H185880   3.044   0.540   6.829
28546WAT     H285881   3.091   0.647   6.943
28547WAT      O85882   6.105   2.637   0.544
28547WAT     H185883   6.081   2.712   0.606
28547WAT     H285884   6.033   2.567   0.546
28548WAT      O85885   3.042   1.899   1.338
28548WAT     H185886   3.125   1.932   1.382
28548WAT     H285887   3.065   1.829   1.271
28549WAT      O85888   1.571   6.669   3.735
28549WAT     H185889   1.567   6.657   3.834
28549WAT     H285890   1.667   6.678   3.706
28550WAT      O85891   6.046   9.077   0.372
28550WAT     H185892   6.036   8.996   0.315
28550WAT     H285893   5.964   9.089   0.429
28551WAT      O85894   6.141   4.644   6.752
28551WAT     H185895   6.055   4.602   6.780
28551WAT     H285896   6.205   4.643   6.829
28552WAT      O85897   5.599   9.142   2.335
28552WAT     H185898   5.653   9.169   2.256
28552WAT     H285899   5.657   9.140   2.416
28553WAT      O85900   9.660   4.368   9.595
28553WAT     H185901   9.707   4.357   9.683
28553WAT     H285902   9.572   4.322   9.598
28554WAT      O85903   7.032   6.159   1.749
28554WAT     H185904   7.053   6.144   1.845
28554WAT     H285905   6.971   6.238   1.740
28555WAT      O85906   6.839   0.770   0.079
28555WAT     H185907   6.835   0.810  -0.012
28555WAT     H285908   6.769   0.811   0.137
28556WAT      O85909   2.442   7.238   5.349
28556WAT     H185910   2.343   7.246   5.344
28556WAT     H285911   2.479   7.316   5.399
28557WAT      O85912   4.633   9.140   9.491
28557WAT     H185913   4.588   9.222   9.528
28557WAT     H285914   4.669   9.085   9.566
28558WAT      O85915   4.914   2.235   4.276
28558WAT     H185916   4.880   2.148   4.240
28558WAT     H285917   4.910   2.305   4.204
28559WAT      O85918   4.669   5.414   0.123
28559WAT     H185919   4.637   5.426   0.029
28559WAT     H285920   4.603   5.456   0.186
28560WAT      O85921   3.962   1.175   4.237
28560WAT     H185922   3.981   1.236   4.313
28560WAT     H285923   3.899   1.219   4.173
28561WAT      O85924   2.287   7.648   8.297
28561WAT     H185925   2.196   7.641   8.258
28561WAT     H285926   2.284   7.701   8.381
28562WAT      O85927   8.467   4.918   9.316
28562WAT     H185928   8.417   4.885   9.396
28562WAT     H285929   8.406   4.923   9.237
28563WAT      O85930   8.729   0.210   4.507
28563WAT     H185931   8.662   0.284   4.514
28563WAT     H285932   8.787   0.225   4.428
28564WAT      O85933   4.985   6.568   7.627
28564WAT     H185934   5.023   6.547   7.717
28564WAT     H285935   4.984   6.667   7.613
28565WAT      O85936   7.169   6.534   6.500
28565WAT     H185937   7.134   6.578   6.582
28565WAT     H285938   7.260   6.497   6.517
28566WAT      O85939   3.526   3.551   9.044
28566WAT     H185940   3.578   3.488   8.987
28566WAT     H285941   3.452   3.592   8.989
28567WAT      O85942   3.054   0.111   9.683
28567WAT     H185943   3.142   0.099   9.638
28567WAT     H285944   2.990   0.155   9.619
28568WAT      O85945   8.485   0.554   8.867
28568WAT     H185946   8.521   0.615   8.938
28568WAT     H285947   8.405   0.505   8.902
28569WAT      O85948   1.765   2.202   8.142
28569WAT     H185949   1.831   2.128   8.159
28569WAT     H285950   1.738   2.201   8.046
28570WAT      O85951   8.721   1.297   6.044
28570WAT     H185952   8.808   1.343   6.029
28570WAT     H285953   8.646   1.359   6.024
28571WAT      O85954   3.524   7.653   9.075
28571WAT     H185955   3.577   7.737   9.064
28571WAT     H285956   3.427   7.674   9.061
28572WAT      O85957   8.706   8.994   2.735
28572WAT     H185958   8.760   9.078   2.722
28572WAT     H285959   8.761   8.927   2.785
28573WAT      O85960   9.865   0.953   0.613
28573WAT     H185961   9.900   0.861   0.594
28573WAT     H285962   9.788   0.947   0.677
28574WAT      O85963   7.945   2.846   5.343
28574WAT     H185964   7.946   2.946   5.352
28574WAT     H285965   8.029   2.816   5.299
28575WAT      O85966   8.588   6.891   1.172
28575WAT     H185967   8.667   6.831   1.158
28575WAT     H285968   8.595   6.936   1.261
28576WAT      O85969   2.685   2.429   7.300
28576WAT     H185970   2.670   2.521   7.263
28576WAT     H285971   2.655   2.425   7.395
28577WAT      O85972   5.917   9.431   2.129
28577WAT     H185973   5.931   9.481   2.043
28577WAT     H285974   5.845   9.475   2.182
28578WAT      O85975   1.926   3.058   7.639
28578WAT     H185976   1.918   2.984   7.573
28578WAT     H285977   1.909   3.023   7.731
28579WAT      O85978   0.266   1.270   8.006
28579WAT     H185979   0.355   1.268   7.959
28579WAT     H285980   0.193   1.279   7.938
28580WAT      O85981   5.742   3.648   4.675
28580WAT     H185982   5.681   3.592   4.620
28580WAT     H285983   5.834   3.648   4.634
28581WAT      O85984   9.781   9.484   8.798
28581WAT     H185985   9.687   9.514   8.780
28581WAT     H285986   9.812   9.424   8.724
28582WAT      O85987   6.865   7.774   7.431
28582WAT     H185988   6.808   7.840   7.382
28582WAT     H285989   6.961   7.803   7.424
28583WAT      O85990   9.142   1.920   1.913
28583WAT     H185991   9.080   1.998   1.922
28583WAT     H285992   9.120   1.870   1.829
28584WAT      O85993   5.520   2.848   9.349
28584WAT     H185994   5.460   2.794   9.291
28584WAT     H285995   5.530   2.803   9.438
28585WAT      O85996   4.622   7.323   3.203
28585WAT     H185997   4.706   7.278   3.173
28585WAT     H285998   4.637   7.363   3.294
28586WAT      O85999   9.603   4.694   0.186
28586WAT     H186000   9.658   4.613   0.170
28586WAT     H286001   9.566   4.692   0.279
28587WAT      O86002   7.585   4.743   2.454
28587WAT     H186003   7.683   4.758   2.445
28587WAT     H286004   7.549   4.706   2.368
28588WAT      O86005   7.956   3.330   5.807
28588WAT     H186006   7.880   3.371   5.756
28588WAT     H286007   8.013   3.403   5.846
28589WAT      O86008   0.871   1.362   0.772
28589WAT     H186009   0.886   1.284   0.833
28589WAT     H286010   0.866   1.329   0.677
28590WAT      O86011   3.496   7.389   0.658
28590WAT     H186012   3.525   7.485   0.653
28590WAT     H286013   3.488   7.352   0.566
28591WAT      O86014   7.886   2.021   0.054
28591WAT     H186015   7.846   1.980   0.136
28591WAT     H286016   7.898   1.951  -0.016
28592WAT      O86017   4.488   8.031   6.401
28592WAT     H186018   4.496   7.995   6.494
28592WAT     H286019   4.394   8.063   6.386
28593WAT      O86020   2.129   6.392   9.216
28593WAT     H186021   2.169   6.404   9.307
28593WAT     H286022   2.034   6.363   9.225
28594WAT      O86023   2.966   2.040   4.955
28594WAT     H186024   2.998   1.987   4.877
28594WAT     H286025   2.917   1.979   5.019
28595WAT      O86026   7.195   5.058   8.950
28595WAT     H186027   7.185   5.089   9.045
28595WAT     H286028   7.260   4.982   8.947
28596WAT      O86029   3.333   9.562   1.913
28596WAT     H186030   3.259   9.628   1.903
28596WAT     H286031   3.369   9.538   1.823
28597WAT      O86032   9.306   3.676   1.498
28597WAT     H186033   9.379   3.608   1.489
28597WAT     H286034   9.334   3.746   1.563
28598WAT      O86035   8.418   4.899   1.068
28598WAT     H186036   8.502   4.872   1.021
28598WAT     H286037   8.340   4.857   1.022
28599WAT      O86038   5.952   9.494   2.507
28599WAT     H186039   5.980   9.438   2.429
28599WAT     H286040   5.897   9.438   2.569
28600WAT      O86041   9.570   0.341   2.712
28600WAT     H186042   9.546   0.293   2.628
28600WAT     H286043   9.517   0.426   2.717
28601WAT      O86044   1.450   6.700   8.844
28601WAT     H186045   1.520   6.656   8.901
28601WAT     H286046   1.442   6.796   8.869
28602WAT      O86047   3.045   5.550   6.458
28602WAT     H186048   3.009   5.486   6.390
28602WAT     H286049   2.969   5.589   6.511
28603WAT      O86050   4.787   7.917   1.354
28603WAT     H186051   4.734   7.871   1.283
28603WAT     H286052   4.761   7.881   1.444
28604WAT      O86053   6.483   3.971   7.437
28604WAT     H186054   6.580   3.966   7.459
28604WAT     H286055   6.472   3.979   7.337
28605WAT      O86056   9.685   6.741   0.373
28605WAT     H186057   9.765   6.710   0.322
28605WAT     H286058   9.613   6.769   0.309
28606WAT      O86059   3.508   8.390   5.268
28606WAT     H186060   3.491   8.443   5.351
28606WAT     H286061   3.440   8.415   5.198
28607WAT      O86062   3.645   9.019   0.918
28607WAT     H186063   3.731   9.050   0.878
28607WAT     H286064   3.569   9.065   0.873
28608WAT      O86065   4.334   5.360   8.131
28608WAT     H186066   4.359   5.390   8.223
28608WAT     H286067   4.304   5.439   8.077
28609WAT      O86068   2.625   6.959   8.175
28609WAT     H186069   2.708   6.929   8.128
28609WAT     H286070   2.585   6.881   8.224
28610WAT      O86071   2.262   8.646   4.265
28610WAT     H186072   2.320   8.692   4.197
28610WAT     H286073   2.168   8.680   4.257
28611WAT      O86074   2.836   2.640   9.777
28611WAT     H186075   2.875   2.549   9.793
28611WAT     H286076   2.849   2.696   9.859
28612WAT      O86077   4.433   6.206   1.883
28612WAT     H186078   4.418   6.123   1.829
28612WAT     H286079   4.510   6.257   1.846
28613WAT      O86080   3.959   1.550   7.489
28613WAT     H186081   3.934   1.558   7.393
28613WAT     H286082   4.008   1.464   7.503
28614WAT      O86083   9.352   7.403   6.193
28614WAT     H186084   9.256   7.378   6.208
28614WAT     H286085   9.400   7.399   6.281
28615WAT      O86086   0.090   4.125   4.000
28615WAT     H186087   0.124   4.062   4.070
28615WAT     H286088   0.001   4.161   4.027
28616WAT      O86089   8.394   2.094   0.233
28616WAT     H186090   8.326   2.164   0.255
28616WAT     H286091   8.347   2.014   0.195
28617WAT      O86092   6.920   0.981   8.923
28617WAT     H186093   6.946   1.076   8.941
28617WAT     H286094   6.865   0.977   8.840
28618WAT      O86095   1.447   1.578   3.905
28618WAT     H186096   1.393   1.611   3.982
28618WAT     H286097   1.387   1.536   3.837
28619WAT      O86098   6.986   1.133   2.063
28619WAT     H186099   7.032   1.186   2.134
28619WAT     H286100   7.021   1.159   1.974
28620WAT      O86101   1.604   5.579   3.356
28620WAT     H186102   1.536   5.644   3.390
28620WAT     H286103   1.608   5.583   3.257
28621WAT      O86104   7.825   2.469   4.624
28621WAT     H186105   7.760   2.438   4.555
28621WAT     H286106   7.779   2.529   4.689
28622WAT      O86107   3.913   7.871   4.908
28622WAT     H186108   3.921   7.839   5.002
28622WAT     H286109   3.941   7.967   4.902
28623WAT      O86110   2.535   5.951   8.022
28623WAT     H186111   2.590   6.027   7.989
28623WAT     H286112   2.570   5.865   7.986
28624WAT      O86113   9.602   7.704   5.026
28624WAT     H186114   9.540   7.766   4.978
28624WAT     H286115   9.606   7.729   5.122
28625WAT      O86116   3.752   1.291   4.064
28625WAT     H186117   3.659   1.258   4.080
28625WAT     H286118   3.758   1.331   3.973
28626WAT      O86119   8.742   0.431   8.897
28626WAT     H186120   8.659   0.485   8.885
28626WAT     H286121   8.790   0.425   8.810
28627WAT      O86122   5.648   3.467   8.089
28627WAT     H186123   5.718   3.433   8.151
28627WAT     H286124   5.558   3.451   8.130
28628WAT      O86125   9.222   2.180   1.351
28628WAT     H186126   9.152   2.227   1.405
28628WAT     H286127   9.208   2.200   1.254
28629WAT      O86128   2.819   5.525   3.897
28629WAT     H186129   2.861   5.595   3.839
28629WAT     H286130   2.861   5.436   3.878
28630WAT      O86131   4.863   3.297   1.048
28630WAT     H186132   4.848   3.335   1.140
28630WAT     H286133   4.878   3.198   1.056
28631WAT      O86134   3.819   5.780   2.157
28631WAT     H186135   3.784   5.782   2.063
28631WAT     H286136   3.758   5.724   2.214
28632WAT      O86137   2.353   7.330   2.632
28632WAT     H186138   2.391   7.400   2.571
28632WAT     H286139   2.257   7.350   2.650
28633WAT      O86140   9.465   0.584   6.982
28633WAT     H186141   9.524   0.624   6.911
28633WAT     H286142   9.371   0.578   6.948
28634WAT      O86143   6.322   4.064   7.624
28634WAT     H186144   6.375   4.018   7.553
28634WAT     H286145   6.311   4.161   7.599
28635WAT      O86146   8.563   3.107   2.898
28635WAT     H186147   8.516   3.189   2.865
28635WAT     H286148   8.662   3.124   2.903
28636WAT      O86149   8.242   6.990   9.167
28636WAT     H186150   8.191   6.959   9.087
28636WAT     H286151   8.184   6.983   9.248
28637WAT      O86152   6.774   4.180   0.052
28637WAT     H186153   6.869   4.156   0.075
28637WAT     H286154   6.719   4.178   0.135
28638WAT      O86155   7.720   2.625   9.034
28638WAT     H186156   7.756   2.582   9.117
28638WAT     H286157   7.671   2.556   8.980
28639WAT      O86158   5.924   2.187   8.514
28639WAT     H186159   5.919   2.257   8.442
28639WAT     H286160   5.858   2.115   8.494
28640WAT      O86161   0.960   1.646   8.328
28640WAT     H186162   0.868   1.667   8.361
28640WAT     H286163   1.014   1.606   8.402
28641WAT      O86164   5.092   6.941   2.528
28641WAT     H186165   5.168   6.896   2.481
28641WAT     H286166   5.034   6.987   2.462
28642WAT      O86167   6.285   8.635   1.714
28642WAT     H186168   6.269   8.652   1.812
28642WAT     H286169   6.338   8.711   1.676
28643WAT      O86170   6.103   1.924   8.568
28643WAT     H186171   6.092   1.925   8.469
28643WAT     H286172   6.033   1.864   8.609
28644WAT      O86173   5.993   5.596   1.603
28644WAT     H186174   6.018   5.505   1.571
28644WAT     H286175   5.920   5.633   1.545
28645WAT      O86176   6.311   8.704   2.435
28645WAT     H186177   6.389   8.758   2.467
28645WAT     H286178   6.331   8.607   2.450
28646WAT      O86179   6.134   1.055   4.889
28646WAT     H186180   6.137   0.969   4.838
28646WAT     H286181   6.149   1.131   4.826
28647WAT      O86182   3.658   8.901   0.250
28647WAT     H186183   3.711   8.825   0.287
28647WAT     H286184   3.615   8.873   0.163
28648WAT      O86185   5.514   6.942   0.309
28648WAT     H186186   5.501   7.037   0.283
28648WAT     H286187   5.429   6.905   0.346
28649WAT      O86188   4.095   4.039   4.818
28649WAT     H186189   4.070   4.113   4.756
28649WAT     H286190   4.158   4.073   4.888
28650WAT      O86191   2.274   5.052   1.981
28650WAT     H186192   2.273   5.140   2.029
28650WAT     H286193   2.209   4.989   2.024
28651WAT      O86194   0.169   1.116   0.708
28651WAT     H186195   0.084   1.064   0.698
28651WAT     H286196   0.247   1.056   0.686
28652WAT      O86197   7.612   3.091   0.596
28652WAT     H186198   7.666   3.136   0.667
28652WAT     H286199   7.520   3.073   0.631
28653WAT      O86200   1.041   8.755   4.536
28653WAT     H186201   1.068   8.668   4.496
28653WAT     H286202   0.945   8.751   4.563
28654WAT      O86203   2.963   8.274   5.313
28654WAT     H186204   2.974   8.300   5.409
28654WAT     H286205   2.967   8.355   5.255
28655WAT      O86206   9.204   1.229   8.708
28655WAT     H186207   9.171   1.175   8.786
28655WAT     H286208   9.142   1.218   8.631
28656WAT      O86209   3.492   2.939   7.519
28656WAT     H186210   3.585   2.952   7.486
28656WAT     H286211   3.472   2.842   7.528
28657WAT      O86212   8.336   4.000   3.410
28657WAT     H186213   8.292   4.061   3.345
28657WAT     H286214   8.432   4.025   3.420
28658WAT      O86215   4.945   2.920   0.794
28658WAT     H186216   5.043   2.901   0.799
28658WAT     H286217   4.917   2.975   0.873
28659WAT      O86218   4.493   2.455   6.910
28659WAT     H186219   4.474   2.373   6.965
28659WAT     H286220   4.497   2.534   6.971
28660WAT      O86221   6.094   8.162   3.934
28660WAT     H186222   6.147   8.091   3.979
28660WAT     H286223   6.128   8.176   3.841
28661WAT      O86224   0.080   3.465   3.459
28661WAT     H186225   0.042   3.556   3.448
28661WAT     H286226   0.172   3.462   3.421
28662WAT      O86227   5.695   8.524   0.103
28662WAT     H186228   5.715   8.428   0.083
28662WAT     H286229   5.664   8.570   0.020
28663WAT      O86230   6.359   6.422   2.011
28663WAT     H186231   6.406   6.439   1.924
28663WAT     H286232   6.388   6.335   2.049
28664WAT      O86233   8.145   9.427   1.441
28664WAT     H186234   8.197   9.501   1.397
28664WAT     H286235   8.142   9.348   1.380
28665WAT      O86236   0.721   0.270   0.135
28665WAT     H186237   0.791   0.198   0.130
28665WAT     H286238   0.644   0.246   0.076
28666WAT      O86239   8.730   0.177   3.164
28666WAT     H186240   8.802   0.231   3.122
28666WAT     H286241   8.709   0.215   3.254
28667WAT      O86242   7.020   3.458   0.237
28667WAT     H186243   7.051   3.434   0.329
28667WAT     H286244   7.066   3.399   0.170
28668WAT      O86245   6.739   4.763   6.402
28668WAT     H186246   6.797   4.799   6.329
28668WAT     H286247   6.766   4.805   6.489
28669WAT      O86248   7.388   3.490   6.859
28669WAT     H186249   7.468   3.488   6.798
28669WAT     H286250   7.382   3.580   6.902
28670WAT      O86251   8.242   2.695   0.606
28670WAT     H186252   8.215   2.674   0.700
28670WAT     H286253   8.180   2.764   0.568
28671WAT      O86254   4.585   2.301   3.339
28671WAT     H186255   4.602   2.236   3.265
28671WAT     H286256   4.514   2.366   3.311
28672WAT      O86257   3.355   3.129   9.068
28672WAT     H186258   3.291   3.203   9.089
28672WAT     H286259   3.317   3.070   8.996
28673WAT      O86260   0.901   6.785   3.707
28673WAT     H186261   0.941   6.768   3.618
28673WAT     H286262   0.967   6.832   3.766
28674WAT      O86263   7.716   2.025   8.084
28674WAT     H186264   7.798   2.032   8.027
28674WAT     H286265   7.649   1.965   8.040
28675WAT      O86266   2.021   3.487   4.570
28675WAT     H186267   2.052   3.491   4.475
28675WAT     H286268   2.015   3.392   4.599
28676WAT      O86269   6.506   4.000   0.914
28676WAT     H186270   6.561   4.023   0.994
28676WAT     H286271   6.462   3.911   0.927
28677WAT      O86272   0.405   7.474   2.468
28677WAT     H186273   0.423   7.544   2.398
28677WAT     H286274   0.352   7.400   2.428
28678WAT      O86275   4.945   0.670   4.112
28678WAT     H186276   4.953   0.709   4.020
28678WAT     H286277   5.002   0.722   4.175
28679WAT      O86278   3.083   4.014   1.971
28679WAT     H186279   3.073   4.005   2.070
28679WAT     H286280   3.104   4.109   1.948
28680WAT      O86281   1.269   4.237   4.666
28680WAT     H186282   1.249   4.278   4.578
28680WAT     H286283   1.368   4.232   4.679
28681WAT      O86284   4.502   6.713   2.579
28681WAT     H186285   4.445   6.780   2.533
28681WAT     H286286   4.490   6.623   2.537
28682WAT      O86287   1.330   8.003   1.691
28682WAT     H186288   1.316   8.076   1.624
28682WAT     H286289   1.280   8.025   1.775
28683WAT      O86290   6.063   0.466   2.436
28683WAT     H186291   6.155   0.446   2.404
28683WAT     H286292   6.049   0.565   2.439
28684WAT      O86293   6.504   4.107   9.319
28684WAT     H186294   6.593   4.121   9.361
28684WAT     H286295   6.515   4.096   9.220
28685WAT      O86296   1.685   5.850   0.078
28685WAT     H186297   1.616   5.882   0.013
28685WAT     H286298   1.741   5.927   0.107
28686WAT      O86299   7.625   5.795   5.881
28686WAT     H186300   7.704   5.849   5.849
28686WAT     H286301   7.575   5.847   5.950
28687WAT      O86302   5.865   8.074   4.198
28687WAT     H186303   5.808   8.081   4.116
28687WAT     H286304   5.916   8.159   4.210
28688WAT      O86305   9.304   5.064   7.250
28688WAT     H186306   9.365   5.142   7.267
28688WAT     H286307   9.269   5.070   7.156
28689WAT      O86308   8.381   9.180   6.918
28689WAT     H186309   8.295   9.169   6.869
28689WAT     H286310   8.384   9.271   6.960
28690WAT      O86311   7.230   3.938   6.229
28690WAT     H186312   7.298   3.914   6.160
28690WAT     H286313   7.267   3.920   6.320
28691WAT      O86314   6.588   0.972   8.125
28691WAT     H186315   6.627   1.063   8.114
28691WAT     H286316   6.651   0.915   8.178
28692WAT      O86317   5.533   3.266   1.058
28692WAT     H186318   5.470   3.256   0.981
28692WAT     H286319   5.612   3.321   1.029
28693WAT      O86320   9.785   8.073   2.736
28693WAT     H186321   9.693   8.102   2.708
28693WAT     H286322   9.796   8.088   2.835
28694WAT      O86323   4.625   1.719   3.044
28694WAT     H186324   4.639   1.745   3.139
28694WAT     H286325   4.688   1.645   3.020
28695WAT      O86326   2.604   6.304   1.639
28695WAT     H186327   2.596   6.308   1.540
28695WAT     H286328   2.518   6.272   1.678
28696WAT      O86329   1.396   7.453   3.700
28696WAT     H186330   1.378   7.452   3.799
28696WAT     H286331   1.318   7.413   3.652
28697WAT      O86332   0.001   4.375   0.999
28697WAT     H186333  -0.037   4.329   0.919
28697WAT     H286334   0.099   4.388   0.987
28698WAT      O86335   1.254   6.948   9.728
28698WAT     H186336   1.305   6.964   9.812
28698WAT     H286337   1.208   6.859   9.733
28699WAT      O86338   8.623   6.530   2.535
28699WAT     H186339   8.595   6.568   2.623
28699WAT     H286340   8.624   6.430   2.540
28700WAT      O86341   6.237   5.440   3.342
28700WAT     H186342   6.288   5.377   3.284
28700WAT     H286343   6.179   5.498   3.285
28701WAT      O86344   2.450   7.829   9.304
28701WAT     H186345   2.503   7.809   9.386
28701WAT     H286346   2.370   7.883   9.328
28702WAT      O86347   7.868   5.174   2.968
28702WAT     H186348   7.770   5.173   2.988
28702WAT     H286349   7.882   5.180   2.869
28703WAT      O86350   4.797   8.809   9.576
28703WAT     H186351   4.719   8.850   9.623
28703WAT     H286352   4.842   8.878   9.520
28704WAT      O86353   7.616   9.489   1.935
28704WAT     H186354   7.593   9.463   2.029
28704WAT     H286355   7.609   9.589   1.927
28705WAT      O86356   4.744   2.044   2.853
28705WAT     H186357   4.662   2.101   2.858
28705WAT     H286358   4.775   2.039   2.758
28706WAT      O86359   4.242   0.173   1.828
28706WAT     H186360   4.221   0.131   1.740
28706WAT     H286361   4.164   0.162   1.890
28707WAT      O86362   6.406   1.878   6.831
28707WAT     H186363   6.332   1.862   6.897
28707WAT     H286364   6.376   1.852   6.740
28708WAT      O86365   7.076   4.615   8.379
28708WAT     H186366   7.095   4.632   8.475
28708WAT     H286367   6.978   4.620   8.362
28709WAT      O86368   4.793   5.049   0.265
28709WAT     H186369   4.791   5.048   0.365
28709WAT     H286370   4.868   4.993   0.232
28710WAT      O86371   6.759   9.685   6.798
28710WAT     H186372   6.794   9.702   6.705
28710WAT     H286373   6.660   9.671   6.794
28711WAT      O86374   3.572   7.020   5.457
28711WAT     H186375   3.569   6.994   5.361
28711WAT     H286376   3.602   7.115   5.466
28712WAT      O86377   7.256   3.656   3.420
28712WAT     H186378   7.212   3.567   3.403
28712WAT     H286379   7.354   3.649   3.402
28713WAT      O86380   2.193   8.374   4.152
28713WAT     H186381   2.105   8.379   4.105
28713WAT     H286382   2.207   8.457   4.205
28714WAT      O86383   2.645   6.818   2.846
28714WAT     H186384   2.657   6.870   2.930
28714WAT     H286385   2.734   6.804   2.803
28715WAT      O86386   0.950   1.748   1.340
28715WAT     H186387   0.873   1.766   1.279
28715WAT     H286388   1.022   1.814   1.324
28716WAT      O86389   2.017   9.027   9.487
28716WAT     H186390   1.970   9.037   9.575
28716WAT     H286391   2.063   8.938   9.484
28717WAT      O86392   8.779   3.214   5.204
28717WAT     H186393   8.684   3.233   5.229
28717WAT     H286394   8.832   3.298   5.207
28718WAT      O86395   2.030   0.430   0.454
28718WAT     H186396   1.957   0.486   0.416
28718WAT     H286397   2.017   0.421   0.553
28719WAT      O86398   5.684   9.537   3.323
28719WAT     H186399   5.694   9.518   3.421
28719WAT     H286400   5.592   9.512   3.294
28720WAT      O86401   9.647   3.116   3.051
28720WAT     H186402   9.666   3.022   3.023
28720WAT     H286403   9.726   3.154   3.098
28721WAT      O86404   2.809   4.931   6.235
28721WAT     H186405   2.844   4.910   6.144
28721WAT     H286406   2.866   4.886   6.304
28722WAT      O86407   5.481   5.335   9.340
28722WAT     H186408   5.414   5.337   9.267
28722WAT     H286409   5.546   5.410   9.328
28723WAT      O86410   8.955   4.055   6.132
28723WAT     H186411   8.918   3.963   6.127
28723WAT     H286412   9.047   4.057   6.094
28724WAT      O86413   8.548   2.771   5.304
28724WAT     H186414   8.607   2.710   5.357
28724WAT     H286415   8.525   2.728   5.217
28725WAT      O86416   3.096   6.662   6.966
28725WAT     H186417   3.044   6.647   7.050
28725WAT     H286418   3.101   6.760   6.947
28726WAT      O86419   3.994   6.076   7.227
28726WAT     H186420   3.987   6.166   7.183
28726WAT     H286421   3.971   6.085   7.324
28727WAT      O86422   5.833   3.438   8.281
28727WAT     H186423   5.875   3.347   8.280
28727WAT     H286424   5.872   3.492   8.355
28728WAT      O86425   7.702   6.049   0.482
28728WAT     H186426   7.679   6.145   0.464
28728WAT     H286427   7.633   6.009   0.542
28729WAT      O86428   2.321   7.115   5.078
28729WAT     H186429   2.351   7.020   5.083
28729WAT     H286430   2.222   7.119   5.071
28730WAT      O86431   4.750   5.367   1.351
28730WAT     H186432   4.811   5.347   1.274
28730WAT     H286433   4.675   5.301   1.352
28731WAT      O86434   4.318   4.928   7.955
28731WAT     H186435   4.350   4.861   7.888
28731WAT     H286436   4.314   5.018   7.913
28732WAT      O86437   3.743   6.959   9.755
28732WAT     H186438   3.767   7.027   9.686
28732WAT     H286439   3.753   6.867   9.715
28733WAT      O86440   7.914   1.886   5.621
28733WAT     H186441   7.989   1.821   5.613
28733WAT     H286442   7.928   1.962   5.558
28734WAT      O86443   9.667   7.076   9.768
28734WAT     H186444   9.672   7.176   9.767
28734WAT     H286445   9.720   7.041   9.844
28735WAT      O86446   9.468   4.649   4.020
28735WAT     H186447   9.517   4.734   4.038
28735WAT     H286448   9.378   4.653   4.063
28736WAT      O86449   1.813   5.578   2.149
28736WAT     H186450   1.824   5.673   2.117
28736WAT     H286451   1.823   5.516   2.072
28737WAT      O86452   6.490   3.043   3.272
28737WAT     H186453   6.568   3.106   3.277
28737WAT     H286454   6.482   3.007   3.179
28738WAT      O86455   7.284   8.825   8.242
28738WAT     H186456   7.292   8.773   8.326
28738WAT     H286457   7.331   8.776   8.168
28739WAT      O86458   0.509   2.325   2.843
28739WAT     H186459   0.481   2.418   2.863
28739WAT     H286460   0.604   2.312   2.869
28740WAT      O86461   4.128   8.875   5.295
28740WAT     H186462   4.104   8.902   5.388
28740WAT     H286463   4.121   8.953   5.234
28741WAT      O86464   3.937   4.326   2.941
28741WAT     H186465   3.943   4.227   2.934
28741WAT     H286466   3.980   4.368   2.861
28742WAT      O86467   6.829   6.993   9.594
28742WAT     H186468   6.782   6.977   9.508
28742WAT     H286469   6.782   6.944   9.668
28743WAT      O86470   1.690   0.178   5.128
28743WAT     H186471   1.651   0.181   5.036
28743WAT     H286472   1.675   0.266   5.174
28744WAT      O86473   8.556   4.345   8.246
28744WAT     H186474   8.565   4.246   8.256
28744WAT     H286475   8.566   4.370   8.150
28745WAT      O86476   0.041   8.503   9.318
28745WAT     H186477   0.131   8.534   9.286
28745WAT     H286478   0.040   8.403   9.320
28746WAT      O86479   9.480   1.888   5.064
28746WAT     H186480   9.457   1.861   5.157
28746WAT     H286481   9.503   1.985   5.062
28747WAT      O86482   1.571   7.203   7.255
28747WAT     H186483   1.549   7.298   7.231
28747WAT     H286484   1.649   7.201   7.317
28748WAT      O86485   8.200   6.647   3.918
28748WAT     H186486   8.173   6.571   3.977
28748WAT     H286487   8.136   6.722   3.930
28749WAT      O86488   5.598   9.209   1.172
28749WAT     H186489   5.598   9.220   1.073
28749WAT     H286490   5.640   9.290   1.214
28750WAT      O86491   3.009   2.062   3.336
28750WAT     H186492   3.041   2.000   3.264
28750WAT     H286493   2.914   2.039   3.360
28751WAT      O86494   0.732   6.693   1.925
28751WAT     H186495   0.678   6.776   1.911
28751WAT     H286496   0.676   6.613   1.901
28752WAT      O86497   3.629   7.430   7.293
28752WAT     H186498   3.537   7.460   7.317
28752WAT     H286499   3.624   7.364   7.218
28753WAT      O86500   1.159   2.228   2.478
28753WAT     H186501   1.238   2.207   2.535
28753WAT     H286502   1.141   2.150   2.417
28754WAT      O86503   3.392   3.927   4.073
28754WAT     H186504   3.309   3.921   4.018
28754WAT     H286505   3.457   3.857   4.043
28755WAT      O86506   5.828   9.490   9.522
28755WAT     H186507   5.790   9.398   9.533
28755WAT     H286508   5.754   9.555   9.503
28756WAT      O86509   0.412   1.841   8.023
28756WAT     H186510   0.377   1.909   8.087
28756WAT     H286511   0.496   1.875   7.980
28757WAT      O86512   1.319   9.109   1.113
28757WAT     H186513   1.257   9.178   1.075
28757WAT     H286514   1.390   9.155   1.166
28758WAT      O86515   5.490   6.603   9.391
28758WAT     H186516   5.555   6.531   9.367
28758WAT     H286517   5.540   6.686   9.417
28759WAT      O86518   6.891   3.834   3.743
28759WAT     H186519   6.873   3.790   3.831
28759WAT     H286520   6.977   3.799   3.706
28760WAT      O86521   0.029   3.200   3.427
28760WAT     H186522   0.108   3.159   3.472
28760WAT     H286523   0.033   3.300   3.436
28761WAT      O86524   9.462   8.682   2.770
28761WAT     H186525   9.555   8.666   2.735
28761WAT     H286526   9.446   8.623   2.849
28762WAT      O86527   1.560   0.601   1.492
28762WAT     H186528   1.625   0.622   1.565
28762WAT     H286529   1.611   0.581   1.408
28763WAT      O86530   6.022   6.476   5.741
28763WAT     H186531   5.991   6.503   5.650
28763WAT     H286532   5.944   6.460   5.800
28764WAT      O86533   3.652   4.880   5.916
28764WAT     H186534   3.569   4.923   5.881
28764WAT     H286535   3.632   4.787   5.946
28765WAT      O86536   9.478   1.032   6.427
28765WAT     H186537   9.392   1.082   6.425
28765WAT     H286538   9.540   1.069   6.358
28766WAT      O86539   4.646   3.269   9.637
28766WAT     H186540   4.676   3.313   9.553
28766WAT     H286541   4.711   3.289   9.710
28767WAT      O86542   5.611   6.708   2.810
28767WAT     H186543   5.529   6.674   2.857
28767WAT     H286544   5.590   6.728   2.715
28768WAT      O86545   7.405   4.726   9.251
28768WAT     H186546   7.468   4.714   9.328
28768WAT     H286547   7.318   4.762   9.284
28769WAT      O86548   1.385   3.069   5.658
28769WAT     H186549   1.353   3.118   5.577
28769WAT     H286550   1.457   3.122   5.703
28770WAT      O86551   4.926   8.918   1.814
28770WAT     H186552   4.839   8.876   1.838
28770WAT     H286553   4.985   8.922   1.895
28771WAT      O86554   9.830   7.554   7.087
28771WAT     H186555   9.741   7.577   7.046
28771WAT     H286556   9.831   7.457   7.110
28772WAT      O86557   5.211   2.363   0.264
28772WAT     H186558   5.201   2.307   0.345
28772WAT     H286559   5.157   2.324   0.189
28773WAT      O86560   4.247   7.403   2.089
28773WAT     H186561   4.246   7.446   1.999
28773WAT     H286562   4.197   7.316   2.085
28774WAT      O86563   4.414   4.390   8.173
28774WAT     H186564   4.396   4.423   8.080
28774WAT     H286565   4.333   4.344   8.209
28775WAT      O86566   7.617   3.797   5.419
28775WAT     H186567   7.588   3.845   5.336
28775WAT     H286568   7.552   3.816   5.492
28776WAT      O86569   0.729   1.787   6.258
28776WAT     H186570   0.741   1.707   6.199
28776WAT     H286571   0.775   1.771   6.346
28777WAT      O86572   8.825   4.278   2.580
28777WAT     H186573   8.772   4.336   2.641
28777WAT     H286574   8.872   4.334   2.512
28778WAT      O86575   6.176   6.006   4.820
28778WAT     H186576   6.111   6.079   4.802
28778WAT     H286577   6.166   5.975   4.915
28779WAT      O86578   4.931   9.471   4.176
28779WAT     H186579   4.885   9.537   4.117
28779WAT     H286580   4.998   9.519   4.234
28780WAT      O86581   8.781   2.885   6.310
28780WAT     H186582   8.761   2.787   6.310
28780WAT     H286583   8.844   2.906   6.236
28781WAT      O86584   9.658   4.900   3.279
28781WAT     H186585   9.566   4.879   3.312
28781WAT     H286586   9.722   4.900   3.357
28782WAT      O86587   2.025   2.758   6.700
28782WAT     H186588   2.092   2.827   6.728
28782WAT     H286589   2.042   2.733   6.605
28783WAT      O86590   2.441   9.512   7.594
28783WAT     H186591   2.519   9.570   7.616
28783WAT     H286592   2.383   9.557   7.526
28784WAT      O86593   5.305   1.537   5.452
28784WAT     H186594   5.232   1.551   5.385
28784WAT     H286595   5.282   1.460   5.511
28785WAT      O86596   5.649   7.158   3.546
28785WAT     H186597   5.699   7.079   3.582
28785WAT     H286598   5.648   7.230   3.615
28786WAT      O86599   8.800   2.613   7.670
28786WAT     H186600   8.829   2.519   7.656
28786WAT     H286601   8.713   2.629   7.623
28787WAT      O86602   1.180   8.272   5.808
28787WAT     H186603   1.215   8.305   5.895
28787WAT     H286604   1.215   8.180   5.791
28788WAT      O86605   5.093   0.095   5.626
28788WAT     H186606   4.995   0.077   5.630
28788WAT     H286607   5.119   0.115   5.531
28789WAT      O86608   5.347   5.229   7.728
28789WAT     H186609   5.322   5.139   7.765
28789WAT     H286610   5.446   5.242   7.739
28790WAT      O86611   8.902   0.346   3.691
28790WAT     H186612   8.986   0.326   3.741
28790WAT     H286613   8.876   0.266   3.637
28791WAT      O86614   8.867   8.068   9.358
28791WAT     H186615   8.838   7.975   9.334
28791WAT     H286616   8.944   8.095   9.299
28792WAT      O86617   7.066   6.565   5.926
28792WAT     H186618   7.105   6.577   6.018
28792WAT     H286619   7.140   6.564   5.858
28793WAT      O86620   4.369   0.088   2.649
28793WAT     H186621   4.272   0.100   2.671
28793WAT     H286622   4.386   0.118   2.555
28794WAT      O86623   9.497   6.294   8.272
28794WAT     H186624   9.474   6.209   8.320
28794WAT     H286625   9.595   6.296   8.252
28795WAT      O86626   1.220   2.462   9.246
28795WAT     H186627   1.177   2.422   9.327
28795WAT     H286628   1.193   2.409   9.165
28796WAT      O86629   4.933   2.460   8.250
28796WAT     H186630   4.899   2.490   8.160
28796WAT     H286631   4.955   2.539   8.305
28797WAT      O86632   5.949   1.346   5.878
28797WAT     H186633   5.962   1.429   5.931
28797WAT     H286634   5.967   1.365   5.781
28798WAT      O86635   4.957   1.046   9.793
28798WAT     H186636   4.988   0.969   9.849
28798WAT     H286637   4.866   1.074   9.822
28799WAT      O86638   8.715   3.756   4.603
28799WAT     H186639   8.761   3.753   4.515
28799WAT     H286640   8.704   3.663   4.638
28800WAT      O86641   3.946   4.929   7.264
28800WAT     H186642   3.884   4.973   7.200
28800WAT     H286643   3.924   4.832   7.271
28801WAT      O86644   2.374   9.413   0.944
28801WAT     H186645   2.363   9.332   0.886
28801WAT     H286646   2.356   9.495   0.891
28802WAT      O86647   1.958   0.599   3.713
28802WAT     H186648   2.055   0.611   3.693
28802WAT     H286649   1.913   0.689   3.715
28803WAT      O86650   2.929   2.283   6.330
28803WAT     H186651   2.934   2.192   6.288
28803WAT     H286652   2.901   2.349   6.260
28804WAT      O86653   9.521   4.411   0.373
28804WAT     H186654   9.458   4.356   0.318
28804WAT     H286655   9.612   4.410   0.331
28805WAT      O86656   8.096   0.353   7.117
28805WAT     H186657   8.106   0.255   7.106
28805WAT     H286658   8.186   0.397   7.111
28806WAT      O86659   7.297   4.060   4.238
28806WAT     H186660   7.289   4.151   4.197
28806WAT     H286661   7.386   4.051   4.282
28807WAT      O86662   0.213   6.753   9.219
28807WAT     H186663   0.219   6.688   9.295
28807WAT     H286664   0.251   6.841   9.249
28808WAT      O86665   4.756   9.225   8.551
28808WAT     H186666   4.663   9.190   8.542
28808WAT     H286667   4.788   9.259   8.463
28809WAT      O86668   8.936   0.788   6.561
28809WAT     H186669   8.885   0.725   6.503
28809WAT     H286670   8.895   0.879   6.555
28810WAT      O86671   4.252   2.830   1.722
28810WAT     H186672   4.286   2.740   1.749
28810WAT     H286673   4.306   2.901   1.768
28811WAT      O86674   2.918   7.523   2.893
28811WAT     H186675   2.893   7.432   2.925
28811WAT     H286676   3.018   7.533   2.896
28812WAT      O86677   8.456   0.561   7.284
28812WAT     H186678   8.408   0.619   7.349
28812WAT     H286679   8.527   0.509   7.331
28813WAT      O86680   9.818   3.063   1.416
28813WAT     H186681   9.735   3.076   1.363
28813WAT     H286682   9.856   2.972   1.398
28814WAT      O86683   7.388   3.594   0.992
28814WAT     H186684   7.361   3.617   1.086
28814WAT     H286685   7.339   3.654   0.928
28815WAT      O86686   5.731   7.136   5.613
28815WAT     H186687   5.824   7.171   5.604
28815WAT     H286688   5.718   7.061   5.549
28816WAT      O86689   1.128   4.094   5.158
28816WAT     H186690   1.054   4.094   5.225
28816WAT     H286691   1.215   4.107   5.204
28817WAT      O86692   3.585   4.602   5.016
28817WAT     H186693   3.626   4.632   4.931
28817WAT     H286694   3.655   4.567   5.078
28818WAT      O86695   8.709   5.703   3.921
28818WAT     H186696   8.789   5.644   3.925
28818WAT     H286697   8.694   5.745   4.011
28819WAT      O86698   2.067   0.094   3.943
28819WAT     H186699   2.092  -0.003   3.943
28819WAT     H286700   2.069   0.129   3.849
28820WAT      O86701   7.357   0.234   1.425
28820WAT     H186702   7.300   0.241   1.344
28820WAT     H286703   7.302   0.205   1.503
28821WAT      O86704   9.080   2.073   4.911
28821WAT     H186705   8.989   2.036   4.930
28821WAT     H286706   9.074   2.141   4.838
28822WAT      O86707   7.847   7.746   6.979
28822WAT     H186708   7.766   7.751   7.036
28822WAT     H286709   7.884   7.653   6.981
28823WAT      O86710   1.972   4.394   9.071
28823WAT     H186711   2.069   4.377   9.089
28823WAT     H286712   1.918   4.371   9.152
28824WAT      O86713   4.606   7.269   1.959
28824WAT     H186714   4.600   7.362   1.997
28824WAT     H286715   4.666   7.214   2.016
28825WAT      O86716   8.506   0.752   0.769
28825WAT     H186717   8.514   0.818   0.843
28825WAT     H286718   8.586   0.759   0.709
28826WAT      O86719   9.738   9.250   1.193
28826WAT     H186720   9.674   9.266   1.269
28826WAT     H286721   9.793   9.168   1.212
28827WAT      O86722   3.008   4.330   1.869
28827WAT     H186723   2.990   4.407   1.809
28827WAT     H286724   2.926   4.307   1.921
28828WAT      O86725   9.735   3.993   2.801
28828WAT     H186726   9.722   3.934   2.721
28828WAT     H286727   9.832   4.015   2.811
28829WAT      O86728   9.759   2.811   4.859
28829WAT     H186729   9.774   2.739   4.926
28829WAT     H286730   9.739   2.771   4.770
28830WAT      O86731   4.792   9.212   1.940
28830WAT     H186732   4.772   9.118   1.911
28830WAT     H286733   4.709   9.253   1.978
28831WAT      O86734   5.042   9.090   4.272
28831WAT     H186735   5.032   8.994   4.243
28831WAT     H286736   5.073   9.092   4.367
28832WAT      O86737   2.316   3.625   1.898
28832WAT     H186738   2.262   3.638   1.981
28832WAT     H286739   2.360   3.536   1.899
28833WAT      O86740   3.925   0.560   6.707
28833WAT     H186741   3.932   0.535   6.610
28833WAT     H286742   4.010   0.603   6.737
28834WAT      O86743   2.906   5.110   0.849
28834WAT     H186744   2.916   5.114   0.949
28834WAT     H286745   2.997   5.111   0.807
28835WAT      O86746   5.098   7.565   2.214
28835WAT     H186747   5.155   7.636   2.173
28835WAT     H286748   5.033   7.531   2.146
28836WAT      O86749   8.436   1.852   8.527
28836WAT     H186750   8.401   1.790   8.457
28836WAT     H286751   8.363   1.871   8.593
28837WAT      O86752   8.036   6.579   8.647
28837WAT     H186753   8.032   6.669   8.691
28837WAT     H286754   7.959   6.569   8.584
28838WAT      O86755   9.561   1.643   3.699
28838WAT     H186756   9.631   1.575   3.721
28838WAT     H286757   9.548   1.647   3.600
28839WAT      O86758   4.320   9.287   3.352
28839WAT     H186759   4.220   9.282   3.348
28839WAT     H286760   4.359   9.260   3.264
28840WAT      O86761   7.073   1.976   1.956
28840WAT     H186762   7.153   2.033   1.938
28840WAT     H286763   7.080   1.936   2.048
28841WAT      O86764   6.928   4.424   7.907
28841WAT     H186765   6.854   4.369   7.870
28841WAT     H286766   6.908   4.521   7.894
28842WAT      O86767   1.909   4.034   7.335
28842WAT     H186768   1.845   4.110   7.327
28842WAT     H286769   1.872   3.966   7.398
28843WAT      O86770   3.857   5.131   9.828
28843WAT     H186771   3.779   5.102   9.884
28843WAT     H286772   3.934   5.155   9.887
28844WAT      O86773   4.933   9.154   0.308
28844WAT     H186774   5.011   9.132   0.249
28844WAT     H286775   4.892   9.069   0.341
28845WAT      O86776   4.440   3.969   3.269
28845WAT     H186777   4.436   4.054   3.216
28845WAT     H286778   4.490   3.900   3.217
28846WAT      O86779   6.352   7.861   3.575
28846WAT     H186780   6.402   7.941   3.543
28846WAT     H286781   6.275   7.843   3.514
28847WAT      O86782   5.177   2.673   1.052
28847WAT     H186783   5.123   2.611   1.109
28847WAT     H286784   5.163   2.650   0.956
28848WAT      O86785   5.484   2.945   0.809
28848WAT     H186786   5.530   3.033   0.806
28848WAT     H286787   5.522   2.890   0.884
28849WAT      O86788   8.141   2.096   0.832
28849WAT     H186789   8.221   2.103   0.891
28849WAT     H286790   8.111   2.001   0.827
28850WAT      O86791   2.118   1.801   3.879
28850WAT     H186792   2.098   1.831   3.973
28850WAT     H286793   2.035   1.765   3.837
28851WAT      O86794   5.848   3.324   6.460
28851WAT     H186795   5.839   3.423   6.476
28851WAT     H286796   5.945   3.301   6.453
28852WAT      O86797   4.211   5.575   7.989
28852WAT     H186798   4.251   5.586   7.898
28852WAT     H286799   4.112   5.577   7.983
28853WAT      O86800   8.813   7.613   5.360
28853WAT     H186801   8.819   7.546   5.286
28853WAT     H286802   8.853   7.575   5.443
28854WAT      O86803   9.434   7.955   7.638
28854WAT     H186804   9.421   8.052   7.659
28854WAT     H286805   9.497   7.946   7.560
28855WAT      O86806   8.531   0.081   8.644
28855WAT     H186807   8.451   0.022   8.657
28855WAT     H286808   8.552   0.127   8.730
28856WAT      O86809   0.534   6.296   5.367
28856WAT     H186810   0.500   6.382   5.328
28856WAT     H286811   0.564   6.236   5.294
28857WAT      O86812   5.977   6.075   7.554
28857WAT     H186813   6.030   5.998   7.589
28857WAT     H286814   5.882   6.067   7.583
28858WAT      O86815   3.264   9.461   5.188
28858WAT     H186816   3.194   9.468   5.117
28858WAT     H286817   3.354   9.452   5.146
28859WAT      O86818   5.482   0.140   0.232
28859WAT     H186819   5.553   0.209   0.218
28859WAT     H286820   5.479   0.080   0.152
28860WAT      O86821   6.669   8.196   9.410
28860WAT     H186822   6.590   8.245   9.448
28860WAT     H286823   6.660   8.099   9.429
28861WAT      O86824   8.330   6.806   1.344
28861WAT     H186825   8.416   6.772   1.381
28861WAT     H286826   8.254   6.766   1.395
28862WAT      O86827   3.674   6.994   0.900
28862WAT     H186828   3.773   6.995   0.916
28862WAT     H286829   3.647   6.907   0.860
28863WAT      O86830   4.558   2.000   5.808
28863WAT     H186831   4.583   2.058   5.730
28863WAT     H286832   4.632   1.935   5.827
28864WAT      O86833   7.094   0.801   5.020
28864WAT     H186834   7.051   0.889   4.999
28864WAT     H286835   7.189   0.816   5.049
28865WAT      O86836   7.099   0.836   4.208
28865WAT     H186837   7.016   0.821   4.154
28865WAT     H286838   7.077   0.831   4.305
28866WAT      O86839   5.645   5.538   9.292
28866WAT     H186840   5.742   5.524   9.273
28866WAT     H286841   5.634   5.587   9.378
28867WAT      O86842   4.816   5.995   0.876
28867WAT     H186843   4.860   6.020   0.790
28867WAT     H286844   4.886   5.975   0.945
28868WAT      O86845   6.409   9.642   0.993
28868WAT     H186846   6.437   9.546   1.000
28868WAT     H286847   6.310   9.647   0.982
28869WAT      O86848   7.640   5.797   5.050
28869WAT     H186849   7.669   5.825   4.959
28869WAT     H286850   7.685   5.712   5.075
28870WAT      O86851   8.325   0.535   1.107
28870WAT     H186852   8.277   0.616   1.071
28870WAT     H286853   8.336   0.544   1.206
28871WAT      O86854   9.729   3.521   2.530
28871WAT     H186855   9.691   3.428   2.522
28871WAT     H286856   9.793   3.537   2.454
28872WAT      O86857   5.023   8.510   4.409
28872WAT     H186858   4.987   8.498   4.502
28872WAT     H286859   5.080   8.592   4.406
28873WAT      O86860   4.556   3.255   3.758
28873WAT     H186861   4.599   3.230   3.844
28873WAT     H286862   4.459   3.230   3.761
28874WAT      O86863   8.819   7.744   5.051
28874WAT     H186864   8.835   7.689   5.132
28874WAT     H286865   8.739   7.709   5.002
28875WAT      O86866   4.210   9.559   7.859
28875WAT     H186867   4.124   9.609   7.844
28875WAT     H286868   4.281   9.594   7.798
28876WAT      O86869   9.834   4.134   1.802
28876WAT     H186870   9.816   4.036   1.791
28876WAT     H286871   9.763   4.175   1.859
28877WAT      O86872   8.574   4.281   4.182
28877WAT     H186873   8.634   4.310   4.257
28877WAT     H286874   8.479   4.305   4.205
28878WAT      O86875   6.696   1.090   0.991
28878WAT     H186876   6.609   1.078   0.944
28878WAT     H286877   6.741   1.173   0.957
28879WAT      O86878   5.095   1.156   1.757
28879WAT     H186879   4.996   1.150   1.741
28879WAT     H286880   5.137   1.207   1.682
28880WAT      O86881   2.119   9.499   2.641
28880WAT     H186882   2.108   9.400   2.651
28880WAT     H286883   2.210   9.525   2.672
28881WAT      O86884   5.260   2.188   3.275
28881WAT     H186885   5.345   2.136   3.276
28881WAT     H286886   5.226   2.194   3.181
28882WAT      O86887   8.917   4.294   5.877
28882WAT     H186888   8.935   4.357   5.953
28882WAT     H286889   8.932   4.200   5.908
28883WAT      O86890   0.255   4.273   8.038
28883WAT     H186891   0.177   4.212   8.027
28883WAT     H286892   0.320   4.258   7.963
28884WAT      O86893   3.070   6.748   3.639
28884WAT     H186894   2.981   6.716   3.606
28884WAT     H286895   3.084   6.842   3.611
28885WAT      O86896   3.401   8.309   4.131
28885WAT     H186897   3.348   8.234   4.171
28885WAT     H286898   3.487   8.320   4.181
28886WAT      O86899   2.276   6.191   1.082
28886WAT     H186900   2.204   6.159   1.021
28886WAT     H286901   2.277   6.291   1.083
28887WAT      O86902   0.810   4.083   6.589
28887WAT     H186903   0.784   4.059   6.496
28887WAT     H286904   0.826   4.181   6.596
28888WAT      O86905   0.768   4.301   7.896
28888WAT     H186906   0.790   4.248   7.814
28888WAT     H286907   0.741   4.239   7.970
28889WAT      O86908   0.175   6.942   4.166
28889WAT     H186909   0.224   7.024   4.137
28889WAT     H286910   0.092   6.932   4.112
28890WAT      O86911   4.863   1.965   6.769
28890WAT     H186912   4.855   1.964   6.670
28890WAT     H286913   4.838   2.056   6.804
28891WAT      O86914   9.463   6.168   5.151
28891WAT     H186915   9.563   6.173   5.162
28891WAT     H286916   9.419   6.165   5.240
28892WAT      O86917   4.677   4.720   7.086
28892WAT     H186918   4.706   4.682   6.998
28892WAT     H286919   4.614   4.796   7.071
28893WAT      O86920   3.090   1.983   0.184
28893WAT     H186921   2.990   1.988   0.178
28893WAT     H286922   3.125   1.932   0.106
28894WAT      O86923   6.281   1.373   7.673
28894WAT     H186924   6.367   1.322   7.674
28894WAT     H286925   6.223   1.343   7.748
28895WAT      O86926   0.982   4.540   1.897
28895WAT     H186927   0.942   4.477   1.963
28895WAT     H286928   0.932   4.627   1.899
28896WAT      O86929   9.713   4.027   3.072
28896WAT     H186930   9.641   3.974   3.117
28896WAT     H286931   9.719   4.001   2.976
28897WAT      O86932   0.552   8.126   2.959
28897WAT     H186933   0.469   8.150   2.910
28897WAT     H286934   0.572   8.197   3.028
28898WAT      O86935   4.247   7.504   3.002
28898WAT     H186936   4.165   7.458   2.970
28898WAT     H286937   4.324   7.480   2.943
28899WAT      O86938   4.005   7.534   5.341
28899WAT     H186939   3.923   7.477   5.334
28899WAT     H286940   4.000   7.591   5.422
28900WAT      O86941   0.741   6.675   8.194
28900WAT     H186942   0.662   6.614   8.191
28900WAT     H286943   0.711   6.770   8.184
28901WAT      O86944   6.176   7.307   9.304
28901WAT     H186945   6.137   7.221   9.274
28901WAT     H286946   6.174   7.373   9.228
28902WAT      O86947   3.606   7.109   1.707
28902WAT     H186948   3.606   7.152   1.797
28902WAT     H286949   3.520   7.130   1.660
28903WAT      O86950   8.623   8.141   3.551
28903WAT     H186951   8.554   8.175   3.615
28903WAT     H286952   8.579   8.114   3.466
28904WAT      O86953   7.221   5.682   8.168
28904WAT     H186954   7.266   5.769   8.148
28904WAT     H286955   7.189   5.681   8.262
28905WAT      O86956   0.124   3.344   4.988
28905WAT     H186957   0.079   3.336   5.077
28905WAT     H286958   0.217   3.308   4.995
28906WAT      O86959   6.449   6.536   1.078
28906WAT     H186960   6.393   6.455   1.097
28906WAT     H286961   6.528   6.509   1.023
28907WAT      O86962   7.065   7.642   0.517
28907WAT     H186963   7.138   7.610   0.456
28907WAT     H286964   7.097   7.639   0.612
28908WAT      O86965   9.157   1.065   4.527
28908WAT     H186966   9.219   1.124   4.476
28908WAT     H286967   9.165   0.971   4.493
28909WAT      O86968   2.259   8.499   3.169
28909WAT     H186969   2.264   8.481   3.071
28909WAT     H286970   2.334   8.560   3.196
28910WAT      O86971   4.822   0.497   2.244
28910WAT     H186972   4.832   0.487   2.145
28910WAT     H286973   4.911   0.515   2.285
28911WAT      O86974   2.119   4.991   6.316
28911WAT     H186975   2.073   4.932   6.382
28911WAT     H286976   2.073   4.984   6.227
28912WAT      O86977   7.458   4.832   6.952
28912WAT     H186978   7.390   4.829   6.879
28912WAT     H286979   7.529   4.899   6.929
28913WAT      O86980   6.898   7.166   4.166
28913WAT     H186981   6.863   7.206   4.250
28913WAT     H286982   6.824   7.118   4.119
28914WAT      O86983   3.296   8.768   9.457
28914WAT     H186984   3.230   8.702   9.421
28914WAT     H286985   3.310   8.752   9.555
28915WAT      O86986   9.710   8.629   5.598
28915WAT     H186987   9.612   8.644   5.583
28915WAT     H286988   9.763   8.688   5.537
28916WAT      O86989   8.503   0.614   2.161
28916WAT     H186990   8.568   0.541   2.138
28916WAT     H286991   8.430   0.616   2.093
28917WAT      O86992   3.275   3.628   7.898
28917WAT     H186993   3.309   3.545   7.942
28917WAT     H286994   3.352   3.690   7.881
28918WAT      O86995   8.164   4.667   3.828
28918WAT     H186996   8.206   4.583   3.794
28918WAT     H286997   8.223   4.709   3.896
28919WAT      O86998   5.818   0.020   9.386
28919WAT     H186999   5.739  -0.040   9.377
28919WAT     H287000   5.900  -0.035   9.403
28920WAT      O87001   7.970   4.915   0.129
28920WAT     H187002   7.956   4.849   0.203
28920WAT     H287003   7.901   4.902   0.058
28921WAT      O87004   3.163   1.972   7.178
28921WAT     H187005   3.119   1.909   7.243
28921WAT     H287006   3.249   1.932   7.147
28922WAT      O87007   0.675   8.484   9.130
28922WAT     H187008   0.671   8.530   9.219
28922WAT     H287009   0.703   8.550   9.060
28923WAT      O87010   5.343   3.585   0.160
28923WAT     H187011   5.351   3.489   0.189
28923WAT     H287012   5.355   3.645   0.239
28924WAT      O87013   6.963   6.469   6.734
28924WAT     H187014   6.944   6.397   6.667
28924WAT     H287015   6.883   6.480   6.793
28925WAT      O87016   0.844   6.394   9.672
28925WAT     H187017   0.888   6.309   9.643
28925WAT     H287018   0.887   6.427   9.756
28926WAT      O87019   6.443   6.564   3.098
28926WAT     H187020   6.460   6.494   3.168
28926WAT     H287021   6.480   6.652   3.130
28927WAT      O87022   3.695   0.120   5.360
28927WAT     H187023   3.754   0.184   5.410
28927WAT     H287024   3.708   0.028   5.396
28928WAT      O87025   7.880   5.405   8.183
28928WAT     H187026   7.847   5.386   8.275
28928WAT     H287027   7.809   5.452   8.130
28929WAT      O87028   0.228   0.471   7.534
28929WAT     H187029   0.193   0.478   7.441
28929WAT     H287030   0.319   0.512   7.540
28930WAT      O87031   4.828   0.596   8.982
28930WAT     H187032   4.848   0.519   9.043
28930WAT     H287033   4.814   0.562   8.889
28931WAT      O87034   4.656   4.524   2.984
28931WAT     H187035   4.669   4.618   3.014
28931WAT     H287036   4.745   4.478   2.978
28932WAT      O87037   4.620   0.046   8.921
28932WAT     H187038   4.638   0.139   8.888
28932WAT     H287039   4.543   0.007   8.869
28933WAT      O87040   7.816   8.372   3.614
28933WAT     H187041   7.841   8.295   3.673
28933WAT     H287042   7.856   8.456   3.650
28934WAT      O87043   4.130   7.904   4.633
28934WAT     H187044   4.033   7.880   4.630
28934WAT     H287045   4.169   7.897   4.542
28935WAT      O87046   2.609   1.527   0.473
28935WAT     H187047   2.536   1.589   0.503
28935WAT     H287048   2.616   1.450   0.537
28936WAT      O87049   9.594   8.319   9.726
28936WAT     H187050   9.639   8.393   9.777
28936WAT     H287051   9.661   8.250   9.700
28937WAT      O87052   4.247   0.815   0.241
28937WAT     H187053   4.314   0.742   0.248
28937WAT     H287054   4.270   0.875   0.165
28938WAT      O87055   4.744   7.088   9.337
28938WAT     H187056   4.808   7.016   9.364
28938WAT     H287057   4.688   7.114   9.415
28939WAT      O87058   5.846   6.762   1.880
28939WAT     H187059   5.915   6.703   1.922
28939WAT     H287060   5.869   6.857   1.898
28940WAT      O87061   8.680   7.270   2.467
28940WAT     H187062   8.605   7.310   2.414
28940WAT     H287063   8.762   7.326   2.455
28941WAT      O87064   0.407   6.262   2.470
28941WAT     H187065   0.316   6.303   2.474
28941WAT     H287066   0.476   6.333   2.486
28942WAT      O87067   3.961   8.102   3.516
28942WAT     H187068   3.991   8.135   3.426
28942WAT     H287069   3.898   8.168   3.556
28943WAT      O87070   5.262   7.699   1.077
28943WAT     H187071   5.231   7.689   0.983
28943WAT     H287072   5.184   7.720   1.136
28944WAT      O87073   3.455   4.744   8.235
28944WAT     H187074   3.438   4.653   8.272
28944WAT     H287075   3.546   4.745   8.192
28945WAT      O87076   3.257   2.671   4.679
28945WAT     H187077   3.251   2.611   4.599
28945WAT     H287078   3.173   2.665   4.732
28946WAT      O87079   1.191   3.321   7.608
28946WAT     H187080   1.290   3.308   7.613
28946WAT     H287081   1.161   3.374   7.687
28947WAT      O87082   0.656   7.756   6.923
28947WAT     H187083   0.687   7.748   7.018
28947WAT     H287084   0.704   7.831   6.878
28948WAT      O87085   2.506   8.223   3.329
28948WAT     H187086   2.574   8.164   3.372
28948WAT     H287087   2.426   8.232   3.389
28949WAT      O87088   8.908   8.810   2.473
28949WAT     H187089   8.973   8.781   2.403
28949WAT     H287090   8.855   8.730   2.503
28950WAT      O87091   0.027   3.361   4.207
28950WAT     H187092  -0.067   3.379   4.180
28950WAT     H287093   0.063   3.439   4.259
28951WAT      O87094   0.862   6.426   3.428
28951WAT     H187095   0.913   6.368   3.491
28951WAT     H287096   0.850   6.517   3.469
28952WAT      O87097   0.528   3.402   2.603
28952WAT     H187098   0.443   3.363   2.569
28952WAT     H287099   0.507   3.483   2.658
28953WAT      O87100   9.725   7.334   1.475
28953WAT     H187101   9.791   7.312   1.402
28953WAT     H287102   9.697   7.429   1.466
28954WAT      O87103   1.468   5.280   0.340
28954WAT     H187104   1.381   5.259   0.295
28954WAT     H287105   1.514   5.195   0.365
28955WAT      O87106   1.162   9.325   7.643
28955WAT     H187107   1.078   9.274   7.625
28955WAT     H287108   1.142   9.423   7.642
28956WAT      O87109   9.607   0.996   6.669
28956WAT     H187110   9.571   0.924   6.728
28956WAT     H287111   9.546   1.007   6.590
28957WAT      O87112   4.058   2.889   8.464
28957WAT     H187113   4.097   2.927   8.380
28957WAT     H287114   4.133   2.862   8.525
28958WAT      O87115   8.743   3.929   2.869
28958WAT     H187116   8.775   4.019   2.901
28958WAT     H287117   8.652   3.939   2.829
28959WAT      O87118   5.017   1.236   9.408
28959WAT     H187119   5.069   1.218   9.492
28959WAT     H287120   5.020   1.154   9.350
28960WAT      O87121   7.137   7.128   4.404
28960WAT     H187122   7.200   7.055   4.431
28960WAT     H287123   7.122   7.189   4.482
28961WAT      O87124   5.681   7.374   3.723
28961WAT     H187125   5.777   7.372   3.752
28961WAT     H287126   5.657   7.466   3.693
28962WAT      O87127   0.741   3.947   0.053
28962WAT     H187128   0.667   4.014   0.050
28962WAT     H287129   0.827   3.993   0.077
28963WAT      O87130   1.470   6.359   3.742
28963WAT     H187131   1.523   6.398   3.668
28963WAT     H287132   1.472   6.420   3.821
28964WAT      O87133   0.970   4.659   5.424
28964WAT     H187134   0.999   4.571   5.387
28964WAT     H287135   0.887   4.689   5.377
28965WAT      O87136   7.088   6.071   5.644
28965WAT     H187137   7.061   6.123   5.725
28965WAT     H287138   7.184   6.044   5.653
28966WAT      O87139   9.857   1.479   5.558
28966WAT     H187140   9.956   1.466   5.567
28966WAT     H287141   9.817   1.397   5.516
28967WAT      O87142   0.874   8.683   6.220
28967WAT     H187143   0.848   8.728   6.135
28967WAT     H287144   0.921   8.598   6.200
28968WAT      O87145   3.263   9.323   3.748
28968WAT     H187146   3.346   9.331   3.693
28968WAT     H287147   3.266   9.238   3.801
28969WAT      O87148   9.604   3.112   6.728
28969WAT     H187149   9.575   3.113   6.824
28969WAT     H287150   9.668   3.036   6.714
28970WAT      O87151   0.443   7.800   6.613
28970WAT     H187152   0.413   7.713   6.652
28970WAT     H287153   0.374   7.836   6.551
28971WAT      O87154   4.805   3.342   4.905
28971WAT     H187155   4.758   3.254   4.906
28971WAT     H287156   4.866   3.346   4.827
28972WAT      O87157   1.053   7.823   7.034
28972WAT     H187158   1.060   7.920   7.055
28972WAT     H287159   1.117   7.771   7.091
28973WAT      O87160   5.987   7.451   1.810
28973WAT     H187161   6.069   7.502   1.785
28973WAT     H287162   6.012   7.362   1.848
28974WAT      O87163   7.066   5.119   9.268
28974WAT     H187164   7.018   5.122   9.180
28974WAT     H287165   7.145   5.180   9.266
28975WAT      O87166   0.404   9.754   9.040
28975WAT     H187167   0.357   9.763   9.128
28975WAT     H287168   0.339   9.721   8.972
28976WAT      O87169   9.064   6.934   4.535
28976WAT     H187170   9.033   6.999   4.604
28976WAT     H287171   9.107   6.983   4.459
28977WAT      O87172   9.787   2.990   3.519
28977WAT     H187173   9.841   3.062   3.475
28977WAT     H287174   9.771   2.916   3.453
28978WAT      O87175   5.879   4.310   3.450
28978WAT     H187176   5.787   4.348   3.437
28978WAT     H287177   5.943   4.383   3.474
28979WAT      O87178   9.791   9.624   5.663
28979WAT     H187179   9.730   9.549   5.688
28979WAT     H287180   9.839   9.656   5.745
28980WAT      O87181   5.105   6.230   9.787
28980WAT     H187182   5.108   6.250   9.885
28980WAT     H287183   5.196   6.203   9.756
28981WAT      O87184   2.071   5.815   1.220
28981WAT     H187185   2.149   5.876   1.234
28981WAT     H287186   2.076   5.775   1.128
28982WAT      O87187   4.169   5.893   9.512
28982WAT     H187188   4.114   5.974   9.531
28982WAT     H287189   4.212   5.862   9.597
28983WAT      O87190   9.159   4.911   2.999
28983WAT     H187191   9.098   4.836   3.024
28983WAT     H287192   9.107   4.981   2.950
28984WAT      O87193   7.026   0.443   7.093
28984WAT     H187194   7.114   0.448   7.140
28984WAT     H287195   6.986   0.535   7.088
28985WAT      O87196   5.321   9.062   8.348
28985WAT     H187197   5.231   9.104   8.359
28985WAT     H287198   5.334   8.992   8.418
28986WAT      O87199   4.210   8.048   6.461
28986WAT     H187200   4.257   7.972   6.505
28986WAT     H287201   4.115   8.052   6.493
28987WAT      O87202   8.085   7.992   3.394
28987WAT     H187203   8.074   7.902   3.352
28987WAT     H287204   8.086   8.062   3.323
28988WAT      O87205   0.458   1.090   9.611
28988WAT     H187206   0.424   1.182   9.591
28988WAT     H287207   0.465   1.038   9.526
28989WAT      O87208   1.311   5.843   7.094
28989WAT     H187209   1.344   5.749   7.086
28989WAT     H287210   1.219   5.843   7.134
28990WAT      O87211   5.093   0.297   8.885
28990WAT     H187212   5.103   0.360   8.808
28990WAT     H287213   5.065   0.347   8.967
28991WAT      O87214   0.668   6.588   0.027
28991WAT     H187215   0.759   6.574  -0.012
28991WAT     H287216   0.620   6.658  -0.026
28992WAT      O87217   1.819   5.221   6.354
28992WAT     H187218   1.754   5.296   6.356
28992WAT     H287219   1.905   5.252   6.313
28993WAT      O87220   1.199   5.827   8.038
28993WAT     H187221   1.225   5.918   8.069
28993WAT     H287222   1.174   5.830   7.941
28994WAT      O87223   6.444   1.308   1.220
28994WAT     H187224   6.459   1.352   1.132
28994WAT     H287225   6.522   1.251   1.244
28995WAT      O87226   1.207   8.949   0.845
28995WAT     H187227   1.186   8.852   0.854
28995WAT     H287228   1.137   9.003   0.892
28996WAT      O87229   6.352   1.891   2.526
28996WAT     H187230   6.403   1.845   2.453
28996WAT     H287231   6.289   1.826   2.568
28997WAT      O87232   9.218   3.133   4.329
28997WAT     H187233   9.223   3.194   4.250
28997WAT     H287234   9.308   3.092   4.345
28998WAT      O87235   3.862   9.115   6.920
28998WAT     H187236   3.875   9.080   6.827
28998WAT     H287237   3.923   9.192   6.935
28999WAT      O87238   4.786   2.194   8.040
28999WAT     H187239   4.880   2.207   8.008
28999WAT     H287240   4.727   2.172   7.962
29000WAT      O87241   0.866   9.391   1.766
29000WAT     H187242   0.916   9.327   1.708
29000WAT     H287243   0.841   9.472   1.713
29001WAT      O87244   6.919   9.690   8.996
29001WAT     H187245   6.837   9.733   8.957
29001WAT     H287246   6.894   9.603   9.039
29002WAT      O87247   1.287   1.481   9.652
29002WAT     H187248   1.227   1.489   9.572
29002WAT     H287249   1.331   1.569   9.670
29003WAT      O87250   8.857   1.904   9.818
29003WAT     H187251   8.817   1.990   9.787
29003WAT     H287252   8.795   1.829   9.796
29004WAT      O87253   8.137   1.584   0.830
29004WAT     H187254   8.167   1.664   0.883
29004WAT     H287255   8.189   1.579   0.745
29005WAT      O87256   7.106   9.275   6.114
29005WAT     H187257   7.041   9.226   6.056
29005WAT     H287258   7.138   9.214   6.187
29006WAT      O87259   4.366   1.354   6.105
29006WAT     H187260   4.391   1.399   6.019
29006WAT     H287261   4.418   1.269   6.114
29007WAT      O87262   1.613   4.283   7.718
29007WAT     H187263   1.689   4.303   7.656
29007WAT     H287264   1.592   4.185   7.715
29008WAT      O87265   5.384   6.573   3.005
29008WAT     H187266   5.313   6.515   3.044
29008WAT     H287267   5.350   6.667   2.999
29009WAT      O87268   5.719   5.586   8.427
29009WAT     H187269   5.814   5.563   8.443
29009WAT     H287270   5.693   5.558   8.334
29010WAT      O87271   4.949   8.978   8.537
29010WAT     H187272   4.891   8.983   8.619
29010WAT     H287273   4.901   8.930   8.464
29011WAT      O87274   3.457   0.382   0.742
29011WAT     H187275   3.384   0.321   0.714
29011WAT     H287276   3.545   0.344   0.716
29012WAT      O87277   7.565   9.523   7.530
29012WAT     H187278   7.648   9.546   7.480
29012WAT     H287279   7.590   9.473   7.614
29013WAT      O87280   1.308   7.192   0.435
29013WAT     H187281   1.292   7.290   0.440
29013WAT     H287282   1.406   7.173   0.442
29014WAT      O87283   6.227   9.348   2.581
29014WAT     H187284   6.158   9.341   2.508
29014WAT     H287285   6.205   9.281   2.652
29015WAT      O87286   0.066   1.164   8.819
29015WAT     H187287   0.138   1.138   8.756
29015WAT     H287288   0.060   1.097   8.893
29016WAT      O87289   6.387   8.714   3.789
29016WAT     H187290   6.355   8.621   3.776
29016WAT     H287291   6.368   8.743   3.883
29017WAT      O87292   4.608   9.201   9.014
29017WAT     H187293   4.688   9.196   8.954
29017WAT     H287294   4.540   9.134   8.984
29018WAT      O87295   3.358   1.231   7.473
29018WAT     H187296   3.430   1.163   7.460
29018WAT     H287297   3.390   1.300   7.539
29019WAT      O87298   7.586   6.291   8.871
29019WAT     H187299   7.626   6.381   8.892
29019WAT     H287300   7.489   6.302   8.852
29020WAT      O87301   6.824   6.721   1.668
29020WAT     H187302   6.786   6.800   1.620
29020WAT     H287303   6.787   6.716   1.760
29021WAT      O87304   7.960   5.797   2.556
29021WAT     H187305   7.890   5.845   2.502
29021WAT     H287306   7.958   5.830   2.650
29022WAT      O87307   2.803   5.238   3.906
29022WAT     H187308   2.775   5.147   3.937
29022WAT     H287309   2.725   5.284   3.862
29023WAT      O87310   0.055   8.868   0.353
29023WAT     H187311   0.054   8.769   0.362
29023WAT     H287312   0.091   8.909   0.437
29024WAT      O87313   7.991   9.728   7.139
29024WAT     H187314   8.060   9.665   7.177
29024WAT     H287315   7.935   9.764   7.214
29025WAT      O87316   7.929   9.622   8.578
29025WAT     H187317   7.894   9.688   8.510
29025WAT     H287318   7.991   9.669   8.641
29026WAT      O87319   9.471   8.428   9.201
29026WAT     H187320   9.570   8.443   9.201
29026WAT     H287321   9.436   8.438   9.294
29027WAT      O87322   3.625   1.702   0.019
29027WAT     H187323   3.605   1.686   0.115
29027WAT     H287324   3.724   1.712   0.007
29028WAT      O87325   1.520   0.268   8.176
29028WAT     H187326   1.597   0.211   8.146
29028WAT     H287327   1.521   0.353   8.124
29029WAT      O87328   7.776   7.496   4.696
29029WAT     H187329   7.686   7.535   4.679
29029WAT     H287330   7.787   7.479   4.794
29030WAT      O87331   8.032   6.901   0.954
29030WAT     H187332   8.039   6.943   1.044
29030WAT     H287333   8.119   6.858   0.931
29031WAT      O87334   3.302   6.090   9.316
29031WAT     H187335   3.362   6.154   9.267
29031WAT     H287336   3.306   6.109   9.414
29032WAT      O87337   4.028   5.852   7.085
29032WAT     H187338   4.014   5.935   7.140
29032WAT     H287339   4.028   5.877   6.988
29033WAT      O87340   9.149   5.563   1.343
29033WAT     H187341   9.223   5.603   1.396
29033WAT     H287342   9.085   5.518   1.404
29034WAT      O87343   1.467   7.166   0.140
29034WAT     H187344   1.414   7.221   0.075
29034WAT     H287345   1.478   7.073   0.105
29035WAT      O87346   6.498   5.904   6.385
29035WAT     H187347   6.444   5.840   6.440
29035WAT     H287348   6.566   5.854   6.332
29036WAT      O87349   7.179   0.123   4.468
29036WAT     H187350   7.228   0.157   4.387
29036WAT     H287351   7.235   0.055   4.515
29037WAT      O87352   4.759   3.453   9.436
29037WAT     H187353   4.740   3.543   9.396
29037WAT     H287354   4.837   3.412   9.389
29038WAT      O87355   5.416   6.536   1.282
29038WAT     H187356   5.329   6.543   1.331
29038WAT     H287357   5.449   6.627   1.258
29039WAT      O87358   3.372   5.158   6.179
29039WAT     H187359   3.286   5.142   6.227
29039WAT     H287360   3.352   5.186   6.085
29040WAT      O87361   1.111   5.971   0.126
29040WAT     H187362   1.155   5.921   0.201
29040WAT     H287363   1.176   6.038   0.089
29041WAT      O87364   8.945   9.535   7.182
29041WAT     H187365   9.012   9.507   7.251
29041WAT     H287366   8.982   9.612   7.130
29042WAT      O87367   8.914   7.816   6.671
29042WAT     H187368   8.825   7.788   6.635
29042WAT     H287369   8.905   7.832   6.770
29043WAT      O87370   1.372   4.540   9.602
29043WAT     H187371   1.448   4.586   9.647
29043WAT     H287372   1.366   4.570   9.507
29044WAT      O87373   4.523   8.078   0.073
29044WAT     H187374   4.623   8.082   0.069
29044WAT     H287375   4.487   8.056  -0.018
29045WAT      O87376   5.182   6.884   7.436
29045WAT     H187377   5.221   6.810   7.381
29045WAT     H287378   5.241   6.964   7.431
29046WAT      O87379   0.863   8.842   2.459
29046WAT     H187380   0.947   8.799   2.493
29046WAT     H287381   0.800   8.857   2.535
29047WAT      O87382   7.953   6.994   1.849
29047WAT     H187383   7.872   6.981   1.791
29047WAT     H287384   7.994   6.905   1.869
29048WAT      O87385   4.625   0.888   9.846
29048WAT     H187386   4.653   0.845   9.932
29048WAT     H287387   4.642   0.825   9.770
29049WAT      O87388   8.371   7.271   0.996
29049WAT     H187389   8.463   7.269   1.036
29049WAT     H287390   8.349   7.179   0.962
29050WAT      O87391   0.050   2.342   1.038
29050WAT     H187392   0.081   2.258   0.994
29050WAT     H287393   0.123   2.410   1.035
29051WAT      O87394   6.207   2.131   6.322
29051WAT     H187395   6.277   2.118   6.392
29051WAT     H287396   6.172   2.224   6.327
29052WAT      O87397   1.100   8.170   7.423
29052WAT     H187398   1.085   8.194   7.327
29052WAT     H287399   1.032   8.214   7.480
29053WAT      O87400   3.985   8.128   1.728
29053WAT     H187401   3.901   8.084   1.760
29053WAT     H287402   4.049   8.059   1.697
29054WAT      O87403   0.339   6.688   3.585
29054WAT     H187404   0.382   6.694   3.675
29054WAT     H287405   0.328   6.779   3.547
29055WAT      O87406   0.084   1.472   3.928
29055WAT     H187407   0.010   1.459   3.862
29055WAT     H287408   0.088   1.568   3.956
29056WAT      O87409   6.355   1.116   7.300
29056WAT     H187410   6.364   1.099   7.398
29056WAT     H287411   6.299   1.044   7.258
29057WAT      O87412   5.603   8.666   4.269
29057WAT     H187413   5.669   8.617   4.327
29057WAT     H287414   5.537   8.714   4.327
29058WAT      O87415   1.041   3.250   4.286
29058WAT     H187416   0.975   3.311   4.330
29058WAT     H287417   1.006   3.156   4.289
29059WAT      O87418   2.392   5.885   3.682
29059WAT     H187419   2.379   5.803   3.627
29059WAT     H287420   2.487   5.916   3.674
29060WAT      O87421   9.796   6.419   0.740
29060WAT     H187422   9.755   6.335   0.775
29060WAT     H287423   9.757   6.440   0.650
29061WAT      O87424   4.147   9.750   9.374
29061WAT     H187425   4.114   9.659   9.348
29061WAT     H287426   4.105   9.777   9.460
29062WAT      O87427   9.564   7.364   3.281
29062WAT     H187428   9.604   7.272   3.287
29062WAT     H287429   9.531   7.380   3.188
29063WAT      O87430   5.919   4.511   3.790
29063WAT     H187431   6.004   4.500   3.841
29063WAT     H287432   5.850   4.449   3.826
29064WAT      O87433   9.120   7.772   7.996
29064WAT     H187434   9.191   7.702   7.989
29064WAT     H287435   9.038   7.742   7.947
29065WAT      O87436   7.538   5.174   9.024
29065WAT     H187437   7.628   5.141   8.998
29065WAT     H287438   7.524   5.266   8.988
29066WAT      O87439   2.054   4.630   0.479
29066WAT     H187440   2.138   4.619   0.532
29066WAT     H287441   2.069   4.695   0.405
29067WAT      O87442   4.321   3.137   9.767
29067WAT     H187443   4.236   3.105   9.809
29067WAT     H287444   4.303   3.171   9.675
29068WAT      O87445   0.158   9.418   1.336
29068WAT     H187446   0.098   9.419   1.416
29068WAT     H287447   0.253   9.422   1.365
29069WAT      O87448   7.687   2.501   8.237
29069WAT     H187449   7.737   2.547   8.164
29069WAT     H287450   7.657   2.411   8.204
29070WAT      O87451   9.400   1.435   6.322
29070WAT     H187452   9.361   1.517   6.364
29070WAT     H287453   9.499   1.433   6.338
29071WAT      O87454   4.035   0.505   9.308
29071WAT     H187455   4.001   0.489   9.215
29071WAT     H287456   3.959   0.507   9.372
29072WAT      O87457   9.313   6.881   1.259
29072WAT     H187458   9.362   6.838   1.335
29072WAT     H287459   9.294   6.977   1.282
29073WAT      O87460   4.396   1.735   2.522
29073WAT     H187461   4.375   1.660   2.584
29073WAT     H287462   4.488   1.770   2.542
29074WAT      O87463   4.104   4.092   5.560
29074WAT     H187464   4.151   4.011   5.597
29074WAT     H287465   4.014   4.065   5.526
29075WAT      O87466   7.498   0.103   2.368
29075WAT     H187467   7.482   0.201   2.382
29075WAT     H287468   7.437   0.050   2.428
29076WAT      O87469   2.716   8.618   4.805
29076WAT     H187470   2.772   8.682   4.858
29076WAT     H287471   2.716   8.645   4.709
29077WAT      O87472   7.018   8.104   8.973
29077WAT     H187473   7.007   8.065   9.064
29077WAT     H287474   7.043   8.031   8.908
29078WAT      O87475   7.521   8.536   7.377
29078WAT     H187476   7.481   8.577   7.294
29078WAT     H287477   7.612   8.574   7.392
29079WAT      O87478   3.369   8.679   0.386
29079WAT     H187479   3.431   8.649   0.314
29079WAT     H287480   3.335   8.599   0.436
29080WAT      O87481   5.875   5.260   4.964
29080WAT     H187482   5.805   5.193   4.939
29080WAT     H287483   5.919   5.233   5.049
29081WAT      O87484   2.474   5.943   2.578
29081WAT     H187485   2.557   5.986   2.614
29081WAT     H287486   2.446   5.870   2.640
29082WAT      O87487   3.168   5.852   2.185
29082WAT     H187488   3.182   5.838   2.283
29082WAT     H287489   3.191   5.946   2.161
29083WAT      O87490   0.429   5.953   9.438
29083WAT     H187491   0.517   5.974   9.396
29083WAT     H287492   0.441   5.878   9.504
29084WAT      O87493   5.993   4.273   6.590
29084WAT     H187494   5.988   4.242   6.495
29084WAT     H287495   6.028   4.199   6.648
29085WAT      O87496   4.774   3.152   8.949
29085WAT     H187497   4.783   3.092   9.028
29085WAT     H287498   4.862   3.161   8.904
29086WAT      O87499   1.311   5.108   7.079
29086WAT     H187500   1.365   5.186   7.109
29086WAT     H287501   1.363   5.054   7.013
29087WAT      O87502   8.747   6.608   1.499
29087WAT     H187503   8.662   6.656   1.481
29087WAT     H287504   8.767   6.547   1.422
29088WAT      O87505   3.373   2.904   5.620
29088WAT     H187506   3.378   2.960   5.703
29088WAT     H287507   3.373   2.964   5.540
29089WAT      O87508   7.109   9.694   3.961
29089WAT     H187509   7.043   9.702   3.885
29089WAT     H287510   7.184   9.758   3.946
29090WAT      O87511   5.846   9.178   0.518
29090WAT     H187512   5.819   9.257   0.463
29090WAT     H287513   5.767   9.144   0.569
29091WAT      O87514   8.731   9.104   8.536
29091WAT     H187515   8.788   9.078   8.458
29091WAT     H287516   8.649   9.151   8.503
29092WAT      O87517   4.129   4.258   1.372
29092WAT     H187518   4.211   4.282   1.424
29092WAT     H287519   4.053   4.316   1.402
29093WAT      O87520   3.117   7.192   3.196
29093WAT     H187521   3.190   7.185   3.265
29093WAT     H287522   3.099   7.101   3.158
29094WAT      O87523   0.751   4.113   5.147
29094WAT     H187524   0.796   4.089   5.233
29094WAT     H287525   0.672   4.171   5.166
29095WAT      O87526   2.427   3.244   7.625
29095WAT     H187527   2.424   3.147   7.648
29095WAT     H287528   2.500   3.289   7.677
29096WAT      O87529   8.905   8.655   1.729
29096WAT     H187530   8.843   8.577   1.741
29096WAT     H287531   8.874   8.732   1.785
29097WAT      O87532   0.320   6.075   0.549
29097WAT     H187533   0.223   6.098   0.558
29097WAT     H287534   0.371   6.157   0.521
29098WAT      O87535   7.834   1.021   6.116
29098WAT     H187536   7.758   1.082   6.136
29098WAT     H287537   7.903   1.070   6.064
29099WAT      O87538   8.519   0.777   7.873
29099WAT     H187539   8.476   0.696   7.910
29099WAT     H287540   8.598   0.802   7.929
29100WAT      O87541   8.539   7.188   7.900
29100WAT     H187542   8.615   7.164   7.840
29100WAT     H287543   8.569   7.257   7.965
29101WAT      O87544   8.245   1.235   0.236
29101WAT     H187545   8.216   1.166   0.303
29101WAT     H287546   8.185   1.232   0.156
29102WAT      O87547   7.828   7.595   0.726
29102WAT     H187548   7.789   7.600   0.818
29102WAT     H287549   7.884   7.513   0.718
29103WAT      O87550   3.766   2.087   5.095
29103WAT     H187551   3.722   2.147   5.028
29103WAT     H287552   3.857   2.123   5.118
29104WAT      O87553   8.610   2.680   0.452
29104WAT     H187554   8.635   2.587   0.478
29104WAT     H287555   8.577   2.681   0.358
29105WAT      O87556   9.401   4.923   1.504
29105WAT     H187557   9.336   4.940   1.577
29105WAT     H287558   9.357   4.872   1.430
29106WAT      O87559   4.007   3.442   2.603
29106WAT     H187560   3.954   3.526   2.614
29106WAT     H287561   4.050   3.417   2.690
29107WAT      O87562   6.717   1.098   5.795
29107WAT     H187563   6.764   1.130   5.714
29107WAT     H287564   6.719   0.998   5.797
29108WAT      O87565   7.538   0.328   7.936
29108WAT     H187566   7.541   0.235   7.972
29108WAT     H287567   7.522   0.324   7.837
29109WAT      O87568   6.298   0.096   5.047
29109WAT     H187569   6.314   0.184   5.002
29109WAT     H287570   6.379   0.039   5.039
29110WAT      O87571   2.215   9.210   9.684
29110WAT     H187572   2.185   9.257   9.767
29110WAT     H287573   2.260   9.276   9.623
29111WAT      O87574   3.901   3.943   5.405
29111WAT     H187575   3.850   3.861   5.377
29111WAT     H287576   3.947   3.982   5.324
29112WAT      O87577   0.258   2.325   3.097
29112WAT     H187578   0.177   2.319   3.155
29112WAT     H287579   0.276   2.421   3.075
29113WAT      O87580   1.918   8.765   2.794
29113WAT     H187581   1.850   8.731   2.858
29113WAT     H287582   1.892   8.739   2.701
29114WAT      O87583   0.901   6.750   3.431
29114WAT     H187584   0.856   6.838   3.411
29114WAT     H287585   0.933   6.709   3.346
29115WAT      O87586   2.674   1.825   1.688
29115WAT     H187587   2.729   1.819   1.604
29115WAT     H287588   2.725   1.785   1.764
29116WAT      O87589   8.299   4.501   5.653
29116WAT     H187590   8.269   4.406   5.653
29116WAT     H287591   8.375   4.512   5.717
29117WAT      O87592   7.027   0.333   1.454
29117WAT     H187593   6.955   0.280   1.499
29117WAT     H287594   7.070   0.395   1.520
29118WAT      O87595   6.781   9.278   2.809
29118WAT     H187596   6.728   9.226   2.741
29118WAT     H287597   6.865   9.311   2.767
29119WAT      O87598   8.261   2.824   9.109
29119WAT     H187599   8.359   2.811   9.123
29119WAT     H287600   8.234   2.915   9.141
29120WAT      O87601   4.801   6.474   0.384
29120WAT     H187602   4.725   6.481   0.319
29120WAT     H287603   4.769   6.500   0.475
29121WAT      O87604   2.935   4.860   5.999
29121WAT     H187605   2.892   4.798   5.933
29121WAT     H287606   3.025   4.888   5.965
29122WAT      O87607   6.746   9.800   1.264
29122WAT     H187608   6.665   9.807   1.206
29122WAT     H287609   6.825   9.838   1.214
29123WAT      O87610   9.872   4.342   5.859
29123WAT     H187611   9.933   4.265   5.840
29123WAT     H287612   9.777   4.314   5.850
29124WAT      O87613   0.213   1.937   2.484
29124WAT     H187614   0.191   1.866   2.418
29124WAT     H287615   0.309   1.965   2.472
29125WAT      O87616   9.733   0.817   6.170
29125WAT     H187617   9.827   0.825   6.205
29125WAT     H287618   9.671   0.796   6.246
29126WAT      O87619   9.626   2.415   8.739
29126WAT     H187620   9.606   2.503   8.696
29126WAT     H287621   9.606   2.421   8.837
29127WAT      O87622   3.170   5.941   8.437
29127WAT     H187623   3.084   5.924   8.388
29127WAT     H287624   3.156   5.925   8.535
29128WAT      O87625   9.417   2.147   3.784
29128WAT     H187626   9.462   2.229   3.748
29128WAT     H287627   9.468   2.066   3.757
29129WAT      O87628   9.201   2.311   5.735
29129WAT     H187629   9.208   2.230   5.793
29129WAT     H287630   9.183   2.283   5.641
29130WAT      O87631   5.814   5.646   2.357
29130WAT     H187632   5.718   5.671   2.340
29130WAT     H287633   5.848   5.695   2.436
29131WAT      O87634   3.429   5.742   9.484
29131WAT     H187635   3.422   5.808   9.559
29131WAT     H287636   3.354   5.676   9.491
29132WAT      O87637   0.257   7.415   6.424
29132WAT     H187638   0.292   7.323   6.403
29132WAT     H287639   0.275   7.476   6.347
29133WAT      O87640   9.536   8.771   3.278
29133WAT     H187641   9.566   8.818   3.196
29133WAT     H287642   9.516   8.837   3.350
29134WAT      O87643   5.484   8.318   7.795
29134WAT     H187644   5.419   8.365   7.735
29134WAT     H287645   5.575   8.318   7.753
29135WAT      O87646   3.459   2.741   4.843
29135WAT     H187647   3.384   2.692   4.797
29135WAT     H287648   3.484   2.821   4.789
29136WAT      O87649   2.050   8.221   6.866
29136WAT     H187650   1.951   8.233   6.858
29136WAT     H287651   2.094   8.250   6.781
29137WAT      O87652   1.834   6.881   4.789
29137WAT     H187653   1.906   6.926   4.738
29137WAT     H287654   1.755   6.942   4.797
29138WAT      O87655   8.988   9.266   1.684
29138WAT     H187656   8.935   9.206   1.625
29138WAT     H287657   9.079   9.226   1.699
29139WAT      O87658   8.741   1.243   0.200
29139WAT     H187659   8.825   1.190   0.201
29139WAT     H287660   8.713   1.263   0.295
29140WAT      O87661   3.524   8.566   9.246
29140WAT     H187662   3.494   8.606   9.159
29140WAT     H287663   3.610   8.608   9.274
29141WAT      O87664   5.954   9.197   6.637
29141WAT     H187665   5.967   9.187   6.736
29141WAT     H287666   5.968   9.108   6.593
29142WAT      O87667   6.753   4.329   9.371
29142WAT     H187668   6.772   4.241   9.413
29142WAT     H287669   6.666   4.365   9.407
29143WAT      O87670   5.424   8.558   9.640
29143WAT     H187671   5.349   8.563   9.707
29143WAT     H287672   5.502   8.610   9.674
29144WAT      O87673   3.936   3.508   8.619
29144WAT     H187674   3.926   3.486   8.716
29144WAT     H287675   3.942   3.423   8.566
29145WAT      O87676   9.671   7.539   5.520
29145WAT     H187677   9.694   7.449   5.556
29145WAT     H287678   9.648   7.601   5.595
29146WAT      O87679   3.295   7.018   5.531
29146WAT     H187680   3.232   7.056   5.463
29146WAT     H287681   3.388   7.047   5.509
29147WAT      O87682   0.374   5.328   4.770
29147WAT     H187683   0.409   5.237   4.750
29147WAT     H287684   0.444   5.383   4.816
29148WAT      O87685   3.814   0.696   2.041
29148WAT     H187686   3.910   0.668   2.041
29148WAT     H287687   3.796   0.755   1.962
29149WAT      O87688   5.359   4.797   9.253
29149WAT     H187689   5.279   4.850   9.226
29149WAT     H287690   5.428   4.800   9.180
29150WAT      O87691   0.942   9.144   8.147
29150WAT     H187692   0.917   9.164   8.052
29150WAT     H287693   1.037   9.112   8.150
29151WAT      O87694   9.178   6.488   7.946
29151WAT     H187695   9.112   6.563   7.936
29151WAT     H287696   9.150   6.430   8.022
29152WAT      O87697   9.079   1.008   8.891
29152WAT     H187698   9.000   1.045   8.940
29152WAT     H287699   9.141   0.964   8.956
29153WAT      O87700   2.935   2.400   9.835
29153WAT     H187701   2.923   2.335   9.759
29153WAT     H287702   3.011   2.369   9.893
29154WAT      O87703   7.377   3.970   8.421
29154WAT     H187704   7.282   3.983   8.452
29154WAT     H287705   7.381   3.979   8.322
29155WAT      O87706   5.913   5.058   0.774
29155WAT     H187707   5.918   4.985   0.705
29155WAT     H287708   5.946   5.023   0.861
29156WAT      O87709   5.650   0.691   4.750
29156WAT     H187710   5.712   0.752   4.701
29156WAT     H287711   5.701   0.644   4.823
29157WAT      O87712   9.762   7.831   1.037
29157WAT     H187713   9.676   7.817   0.988
29157WAT     H287714   9.743   7.870   1.127
29158WAT      O87715   7.265   2.753   9.651
29158WAT     H187716   7.349   2.753   9.705
29158WAT     H287717   7.219   2.665   9.660
29159WAT      O87718   6.126   4.947   4.428
29159WAT     H187719   6.117   4.989   4.519
29159WAT     H287720   6.036   4.943   4.385
29160WAT      O87721   1.448   1.090   6.505
29160WAT     H187722   1.413   1.020   6.567
29160WAT     H287723   1.403   1.177   6.525
29161WAT      O87724   3.801   1.450   1.060
29161WAT     H187725   3.867   1.381   1.089
29161WAT     H287726   3.836   1.497   0.979
29162WAT      O87727   2.694   3.803   1.358
29162WAT     H187728   2.757   3.831   1.285
29162WAT     H287729   2.729   3.835   1.446
29163WAT      O87730   3.253   0.527   3.322
29163WAT     H187731   3.272   0.561   3.414
29163WAT     H287732   3.287   0.433   3.314
29164WAT      O87733   8.042   6.763   0.305
29164WAT     H187734   7.943   6.747   0.302
29164WAT     H287735   8.072   6.771   0.400
29165WAT      O87736   2.883   0.007   2.781
29165WAT     H187737   2.886   0.077   2.709
29165WAT     H287738   2.820  -0.066   2.754
29166WAT      O87739   5.340   3.153   9.291
29166WAT     H187740   5.426   3.111   9.262
29166WAT     H287741   5.271   3.140   9.219
29167WAT      O87742   0.234   1.416   2.164
29167WAT     H187743   0.211   1.320   2.180
29167WAT     H287744   0.217   1.469   2.248
29168WAT      O87745   7.211   0.280   0.320
29168WAT     H187746   7.191   0.183   0.338
29168WAT     H287747   7.310   0.292   0.311
29169WAT      O87748   1.048   3.390   6.343
29169WAT     H187749   1.026   3.304   6.388
29169WAT     H287750   1.126   3.433   6.389
29170WAT      O87751   5.873   3.342   0.975
29170WAT     H187752   5.971   3.361   0.966
29170WAT     H287753   5.856   3.246   0.955
29171WAT      O87754   9.849   9.811   0.988
29171WAT     H187755   9.766   9.787   0.937
29171WAT     H287756   9.824   9.866   1.067
29172WAT      O87757   3.624   0.494   9.245
29172WAT     H187758   3.575   0.572   9.207
29172WAT     H287759   3.586   0.409   9.208
29173WAT      O87760   5.879   8.268   0.873
29173WAT     H187761   5.846   8.361   0.888
29173WAT     H287762   5.843   8.207   0.944
29174WAT      O87763   2.865   2.705   5.276
29174WAT     H187764   2.941   2.770   5.276
29174WAT     H287765   2.849   2.672   5.183
29175WAT      O87766   4.726   3.222   0.425
29175WAT     H187767   4.656   3.164   0.384
29175WAT     H287768   4.761   3.285   0.356
29176WAT      O87769   3.695   7.350   6.307
29176WAT     H187770   3.734   7.412   6.375
29176WAT     H287771   3.759   7.275   6.289
29177WAT      O87772   3.911   0.887   7.159
29177WAT     H187773   3.822   0.871   7.117
29177WAT     H287774   3.976   0.818   7.128
29178WAT      O87775   8.183   4.773   8.898
29178WAT     H187776   8.171   4.696   8.835
29178WAT     H287777   8.101   4.831   8.896
29179WAT      O87778   7.186   1.589   9.075
29179WAT     H187779   7.100   1.547   9.106
29179WAT     H287780   7.250   1.518   9.047
29180WAT      O87781   3.032   5.439   9.137
29180WAT     H187782   2.935   5.452   9.119
29180WAT     H287783   3.054   5.341   9.130
29181WAT      O87784   6.003   1.088   7.091
29181WAT     H187785   5.956   1.056   7.174
29181WAT     H287786   6.076   1.152   7.117
29182WAT      O87787   2.503   6.327   7.684
29182WAT     H187788   2.474   6.412   7.729
29182WAT     H287789   2.431   6.259   7.692
29183WAT      O87790   2.482   4.022   9.122
29183WAT     H187791   2.517   4.102   9.169
29183WAT     H287792   2.459   4.046   9.028
29184WAT      O87793   2.289   7.376   9.317
29184WAT     H187794   2.296   7.463   9.268
29184WAT     H287795   2.202   7.333   9.297
29185WAT      O87796   5.974   9.042   8.846
29185WAT     H187797   5.943   9.132   8.815
29185WAT     H287798   5.982   9.042   8.946
29186WAT      O87799   3.380   8.179   4.792
29186WAT     H187800   3.304   8.243   4.785
29186WAT     H287801   3.348   8.093   4.833
29187WAT      O87802   8.472   3.568   3.237
29187WAT     H187803   8.488   3.585   3.140
29187WAT     H287804   8.559   3.570   3.286
29188WAT      O87805   1.517   2.325   3.026
29188WAT     H187806   1.540   2.252   2.962
29188WAT     H287807   1.515   2.289   3.120
29189WAT      O87808   1.653   7.506   7.245
29189WAT     H187809   1.745   7.482   7.213
29189WAT     H287810   1.639   7.466   7.335
29190WAT      O87811   5.117   0.663   1.544
29190WAT     H187812   5.134   0.648   1.642
29190WAT     H287813   5.028   0.708   1.532
29191WAT      O87814   8.344   8.165   7.695
29191WAT     H187815   8.289   8.177   7.613
29191WAT     H287816   8.370   8.255   7.731
29192WAT      O87817   5.587   4.688   4.015
29192WAT     H187818   5.594   4.763   4.081
29192WAT     H287819   5.517   4.710   3.947
29193WAT      O87820   3.504   4.982   2.742
29193WAT     H187821   3.603   4.989   2.751
29193WAT     H287822   3.459   5.037   2.812
29194WAT      O87823   6.085   0.520   7.599
29194WAT     H187824   6.183   0.518   7.579
29194WAT     H287825   6.036   0.470   7.528
29195WAT      O87826   6.909   4.272   4.528
29195WAT     H187827   6.990   4.262   4.586
29195WAT     H287828   6.882   4.183   4.492
29196WAT      O87829   6.858   0.733   3.771
29196WAT     H187830   6.869   0.633   3.767
29196WAT     H287831   6.866   0.771   3.679
29197WAT      O87832   2.002   1.669   7.495
29197WAT     H187833   2.084   1.621   7.465
29197WAT     H287834   1.946   1.691   7.415
29198WAT      O87835   6.203   5.781   7.029
29198WAT     H187836   6.264   5.704   7.015
29198WAT     H287837   6.136   5.759   7.099
29199WAT      O87838   1.928   0.517   2.157
29199WAT     H187839   1.886   0.436   2.199
29199WAT     H287840   1.858   0.584   2.136
29200WAT      O87841   1.439   3.339   4.664
29200WAT     H187842   1.416   3.426   4.707
29200WAT     H287843   1.538   3.326   4.666
29201WAT      O87844   2.500   3.513   6.180
29201WAT     H187845   2.563   3.576   6.225
29201WAT     H287846   2.484   3.544   6.086
29202WAT      O87847   2.678   8.474   1.550
29202WAT     H187848   2.666   8.562   1.505
29202WAT     H287849   2.664   8.400   1.484
29203WAT      O87850   9.224   4.010   0.143
29203WAT     H187851   9.160   3.953   0.091
29203WAT     H287852   9.183   4.032   0.232
29204WAT      O87853   5.260   4.866   0.164
29204WAT     H187854   5.358   4.883   0.152
29204WAT     H287855   5.245   4.811   0.246
29205WAT      O87856   5.182   3.817   0.233
29205WAT     H187857   5.095   3.767   0.232
29205WAT     H287858   5.201   3.849   0.326
29206WAT      O87859   9.783   1.200   6.608
29206WAT     H187860   9.731   1.115   6.609
29206WAT     H287861   9.738   1.268   6.667
29207WAT      O87862   2.814   8.641   9.406
29207WAT     H187863   2.729   8.666   9.360
29207WAT     H287864   2.868   8.723   9.425
29208WAT      O87865   9.792   1.603   7.640
29208WAT     H187866   9.808   1.633   7.545
29208WAT     H287867   9.726   1.664   7.683
29209WAT      O87868   7.420   1.838   6.027
29209WAT     H187869   7.441   1.786   6.110
29209WAT     H287870   7.499   1.895   6.003
29210WAT      O87871   7.495   7.922   2.620
29210WAT     H187872   7.480   7.981   2.699
29210WAT     H287873   7.581   7.947   2.576
29211WAT      O87874   4.603   0.035   3.538
29211WAT     H187875   4.702   0.022   3.541
29211WAT     H287876   4.564   0.010   3.627
29212WAT      O87877   3.920   7.652   4.111
29212WAT     H187878   3.922   7.607   4.200
29212WAT     H287879   3.919   7.751   4.124
29213WAT      O87880   5.942   2.309   2.883
29213WAT     H187881   5.973   2.344   2.971
29213WAT     H287882   5.859   2.357   2.855
29214WAT      O87883   3.661   9.628   6.972
29214WAT     H187884   3.581   9.667   6.927
29214WAT     H287885   3.633   9.583   7.056
29215WAT      O87886   0.403   1.035   9.859
29215WAT     H187887   0.419   1.042   9.761
29215WAT     H287888   0.426   0.943   9.890
29216WAT      O87889   5.132   0.609   5.305
29216WAT     H187890   5.132   0.569   5.213
29216WAT     H287891   5.133   0.535   5.373
29217WAT      O87892   5.934   9.602   1.516
29217WAT     H187893   5.871   9.525   1.506
29217WAT     H287894   6.027   9.567   1.530
29218WAT      O87895   6.064   7.282   2.688
29218WAT     H187896   6.147   7.229   2.669
29218WAT     H287897   6.010   7.234   2.757
29219WAT      O87898   9.391   1.790   4.593
29219WAT     H187899   9.331   1.711   4.602
29219WAT     H287900   9.377   1.851   4.671
29220WAT      O87901   3.210   4.486   7.491
29220WAT     H187902   3.153   4.406   7.513
29220WAT     H287903   3.248   4.523   7.576
29221WAT      O87904   7.465   2.814   4.613
29221WAT     H187905   7.534   2.799   4.543
29221WAT     H287906   7.375   2.791   4.576
29222WAT      O87907   9.196   3.270   7.870
29222WAT     H187908   9.257   3.305   7.798
29222WAT     H287909   9.204   3.327   7.951
29223WAT      O87910   7.562   9.197   2.991
29223WAT     H187911   7.622   9.200   3.071
29223WAT     H287912   7.535   9.102   2.973
29224WAT      O87913   1.085   2.254   8.633
29224WAT     H187914   1.057   2.218   8.544
29224WAT     H287915   1.061   2.351   8.639
29225WAT      O87916   8.169   5.710   9.258
29225WAT     H187917   8.110   5.630   9.272
29225WAT     H287918   8.115   5.793   9.264
29226WAT      O87919   5.377   1.667   6.055
29226WAT     H187920   5.407   1.622   6.139
29226WAT     H287921   5.289   1.630   6.026
29227WAT      O87922   0.406   9.317   9.592
29227WAT     H187923   0.464   9.397   9.576
29227WAT     H287924   0.425   9.248   9.523
29228WAT      O87925   8.162   3.045   9.812
29228WAT     H187926   8.131   3.082   9.724
29228WAT     H287927   8.233   3.105   9.849
29229WAT      O87928   5.024   6.454   1.015
29229WAT     H187929   4.993   6.548   0.997
29229WAT     H287930   5.122   6.456   1.036
29230WAT      O87931   3.107   3.443   6.818
29230WAT     H187932   3.029   3.380   6.821
29230WAT     H287933   3.103   3.504   6.897
29231WAT      O87934   9.168   5.323   0.438
29231WAT     H187935   9.090   5.322   0.500
29231WAT     H287936   9.184   5.230   0.403
29232WAT      O87937   1.497   2.303   8.682
29232WAT     H187938   1.482   2.399   8.705
29232WAT     H287939   1.443   2.280   8.601
29233WAT      O87940   6.308   8.774   0.322
29233WAT     H187941   6.287   8.696   0.263
29233WAT     H287942   6.274   8.858   0.278
29234WAT      O87943   9.563   5.964   2.173
29234WAT     H187944   9.619   5.898   2.122
29234WAT     H287945   9.571   5.944   2.271
29235WAT      O87946   4.909   9.217   7.491
29235WAT     H187947   4.820   9.258   7.506
29235WAT     H287948   4.907   9.121   7.520
29236WAT      O87949   4.064   0.204   4.359
29236WAT     H187950   4.005   0.208   4.278
29236WAT     H287951   4.117   0.289   4.365
29237WAT      O87952   7.905   3.139   2.476
29237WAT     H187953   7.865   3.176   2.392
29237WAT     H287954   7.908   3.210   2.546
29238WAT      O87955   4.285   1.502   8.374
29238WAT     H187956   4.310   1.588   8.330
29238WAT     H287957   4.351   1.479   8.445
29239WAT      O87958   0.086   5.938   6.558
29239WAT     H187959   0.074   5.991   6.474
29239WAT     H287960   0.141   5.857   6.539
29240WAT      O87961   3.426   8.388   2.919
29240WAT     H187962   3.375   8.474   2.919
29240WAT     H287963   3.362   8.312   2.932
29241WAT      O87964   9.626   5.587   5.623
29241WAT     H187965   9.534   5.625   5.608
29241WAT     H287966   9.669   5.567   5.535
29242WAT      O87967   6.175   7.775   5.973
29242WAT     H187968   6.204   7.867   5.945
29242WAT     H287969   6.196   7.761   6.069
29243WAT      O87970   7.765   3.248   4.819
29243WAT     H187971   7.728   3.303   4.745
29243WAT     H287972   7.767   3.151   4.792
29244WAT      O87973   9.182   8.529   1.493
29244WAT     H187974   9.085   8.506   1.485
29244WAT     H287975   9.197   8.579   1.578
29245WAT      O87976   0.707   0.556   2.781
29245WAT     H187977   0.649   0.518   2.709
29245WAT     H287978   0.661   0.548   2.869
29246WAT      O87979   6.349   2.870   1.296
29246WAT     H187980   6.367   2.881   1.394
29246WAT     H287981   6.254   2.893   1.276
29247WAT      O87982   4.475   7.136   2.925
29247WAT     H187983   4.403   7.104   2.864
29247WAT     H287984   4.542   7.063   2.940
29248WAT      O87985   6.884   0.530   5.441
29248WAT     H187986   6.883   0.430   5.438
29248WAT     H287987   6.915   0.565   5.353
29249WAT      O87988   7.872   1.085   2.520
29249WAT     H187989   7.822   1.159   2.565
29249WAT     H287990   7.843   1.079   2.424
29250WAT      O87991   2.222   5.861   9.807
29250WAT     H187992   2.305   5.820   9.844
29250WAT     H287993   2.247   5.929   9.738
29251WAT      O87994   1.514   4.951   4.798
29251WAT     H187995   1.465   5.013   4.860
29251WAT     H287996   1.535   4.866   4.846
29252WAT      O87997   4.349   1.187   8.327
29252WAT     H187998   4.331   1.282   8.301
29252WAT     H287999   4.391   1.185   8.418
29253WAT      O88000   7.227   0.811   6.901
29253WAT     H188001   7.159   0.842   6.967
29253WAT     H288002   7.190   0.735   6.848
29254WAT      O88003   7.566   7.483   8.599
29254WAT     H188004   7.603   7.571   8.569
29254WAT     H288005   7.597   7.411   8.537
29255WAT      O88006   2.173   9.193   8.849
29255WAT     H188007   2.193   9.184   8.752
29255WAT     H288008   2.232   9.263   8.889
29256WAT      O88009   8.843   0.830   3.419
29256WAT     H188010   8.750   0.801   3.399
29256WAT     H288011   8.841   0.910   3.479
29257WAT      O88012   0.516   4.770   5.570
29257WAT     H188013   0.536   4.690   5.628
29257WAT     H288014   0.428   4.757   5.525
29258WAT      O88015   3.080   5.085   1.430
29258WAT     H188016   3.000   5.136   1.399
29258WAT     H288017   3.055   5.022   1.503
29259WAT      O88018   3.962   4.914   0.209
29259WAT     H188019   4.013   4.858   0.143
29259WAT     H288020   4.027   4.963   0.267
29260WAT      O88021   1.565   5.806   4.533
29260WAT     H188022   1.544   5.717   4.492
29260WAT     H288023   1.526   5.878   4.476
29261WAT      O88024   2.135   1.144   1.235
29261WAT     H188025   2.181   1.106   1.315
29261WAT     H288026   2.046   1.180   1.262
29262WAT      O88027   6.848   3.386   8.186
29262WAT     H188028   6.824   3.309   8.245
29262WAT     H288029   6.765   3.424   8.146
29263WAT      O88030   1.637   0.458   3.057
29263WAT     H188031   1.545   0.474   3.022
29263WAT     H288032   1.697   0.533   3.029
29264WAT      O88033   5.995   5.325   6.016
29264WAT     H188034   6.005   5.403   5.954
29264WAT     H288035   5.926   5.346   6.085
29265WAT      O88036   3.376   0.301   9.210
29265WAT     H188037   3.364   0.207   9.242
29265WAT     H288038   3.439   0.302   9.132
29266WAT      O88039   1.391   6.313   2.873
29266WAT     H188040   1.484   6.337   2.901
29266WAT     H288041   1.373   6.349   2.781
29267WAT      O88042   3.926   0.838   0.752
29267WAT     H188043   3.863   0.761   0.751
29267WAT     H288044   3.933   0.877   0.660
29268WAT      O88045   6.812   0.219   1.582
29268WAT     H188046   6.793   0.134   1.631
29268WAT     H288047   6.757   0.223   1.499
29269WAT      O88048   3.950   5.504   1.235
29269WAT     H188049   3.930   5.499   1.333
29269WAT     H288050   3.887   5.569   1.192
29270WAT      O88051   7.805   4.345   6.141
29270WAT     H188052   7.836   4.290   6.064
29270WAT     H288053   7.708   4.327   6.159
29271WAT      O88054   2.609   6.953   9.668
29271WAT     H188055   2.590   6.904   9.582
29271WAT     H288056   2.544   6.925   9.738
29272WAT      O88057   4.919   9.115   3.413
29272WAT     H188058   4.934   9.070   3.501
29272WAT     H288059   4.999   9.169   3.388
29273WAT      O88060   2.951   9.376   1.329
29273WAT     H188061   3.044   9.339   1.337
29273WAT     H288062   2.955   9.469   1.292
29274WAT      O88063   6.907   7.357   0.052
29274WAT     H188064   6.916   7.456   0.039
29274WAT     H288065   6.995   7.319   0.079
29275WAT      O88066   3.388   9.526   9.109
29275WAT     H188067   3.401   9.476   9.195
29275WAT     H288068   3.463   9.591   9.097
29276WAT      O88069   9.276   9.219   1.279
29276WAT     H188070   9.250   9.128   1.312
29276WAT     H288071   9.223   9.289   1.327
29277WAT      O88072   7.642   1.911   4.854
29277WAT     H188073   7.713   1.982   4.843
29277WAT     H288074   7.561   1.952   4.895
29278WAT      O88075   2.445   2.492   3.857
29278WAT     H188076   2.411   2.526   3.944
29278WAT     H288077   2.545   2.491   3.858
29279WAT      O88078   6.240   7.679   4.843
29279WAT     H188079   6.233   7.580   4.857
29279WAT     H288080   6.286   7.697   4.755
29280WAT      O88081   7.355   8.207   8.613
29280WAT     H188082   7.432   8.265   8.639
29280WAT     H288083   7.280   8.219   8.678
29281WAT      O88084   1.750   7.642   5.014
29281WAT     H188085   1.716   7.698   4.939
29281WAT     H288086   1.848   7.628   5.003
29282WAT      O88087   0.736   4.431   3.117
29282WAT     H188088   0.779   4.520   3.106
29282WAT     H288089   0.772   4.387   3.200
29283WAT      O88090   1.711   0.547   6.134
29283WAT     H188091   1.798   0.549   6.184
29283WAT     H288092   1.712   0.472   6.068
29284WAT      O88093   3.274   0.099   2.172
29284WAT     H188094   3.260   0.194   2.146
29284WAT     H288095   3.191   0.046   2.153
29285WAT      O88096   5.263   9.216   5.280
29285WAT     H188097   5.262   9.173   5.190
29285WAT     H288098   5.173   9.209   5.321
29286WAT      O88099   2.880   5.902   9.474
29286WAT     H188100   2.811   5.877   9.406
29286WAT     H288101   2.875   5.840   9.552
29287WAT      O88102   0.777   7.087   0.518
29287WAT     H188103   0.737   7.041   0.597
29287WAT     H288104   0.877   7.089   0.527
29288WAT      O88105   2.716   0.575   3.906
29288WAT     H188106   2.664   0.575   3.991
29288WAT     H288107   2.675   0.638   3.841
29289WAT      O88108   2.340   2.545   9.587
29289WAT     H188109   2.282   2.624   9.606
29289WAT     H288110   2.339   2.483   9.665
29290WAT      O88111   3.793   7.065   6.338
29290WAT     H188112   3.839   7.092   6.253
29290WAT     H288113   3.862   7.045   6.408
29291WAT      O88114   0.289   3.402   9.515
29291WAT     H188115   0.293   3.480   9.454
29291WAT     H288116   0.195   3.386   9.544
29292WAT      O88117   8.147   0.499   9.327
29292WAT     H188118   8.166   0.406   9.296
29292WAT     H288119   8.152   0.504   9.426
29293WAT      O88120   9.286   7.999   9.841
29293WAT     H188121   9.331   7.918   9.878
29293WAT     H288122   9.207   7.972   9.787
29294WAT      O88123   8.776   5.489   1.222
29294WAT     H188124   8.682   5.486   1.256
29294WAT     H288125   8.811   5.583   1.227
29295WAT      O88126   8.597   1.346   1.321
29295WAT     H188127   8.609   1.325   1.419
29295WAT     H288128   8.680   1.321   1.272
29296WAT      O88129   7.256   6.250   8.554
29296WAT     H188130   7.171   6.205   8.526
29296WAT     H288131   7.267   6.241   8.653
29297WAT      O88132   5.155   7.427   0.626
29297WAT     H188133   5.069   7.393   0.665
29297WAT     H288134   5.219   7.450   0.700
29298WAT      O88135   8.890   8.555   8.291
29298WAT     H188136   8.940   8.617   8.351
29298WAT     H288137   8.810   8.519   8.339
29299WAT      O88138   1.386   3.582   4.767
29299WAT     H188139   1.295   3.584   4.727
29299WAT     H288140   1.384   3.623   4.858
29300WAT      O88141   2.096   2.170   2.982
29300WAT     H188142   2.134   2.111   3.054
29300WAT     H288143   2.158   2.171   2.903
29301WAT      O88144   1.030   4.769   9.858
29301WAT     H188145   1.038   4.670   9.856
29301WAT     H288146   0.992   4.801   9.771
29302WAT      O88147   2.007   5.112   7.543
29302WAT     H188148   2.103   5.140   7.544
29302WAT     H288149   1.953   5.173   7.601
29303WAT      O88150   8.714   5.535   4.455
29303WAT     H188151   8.672   5.486   4.531
29303WAT     H288152   8.814   5.531   4.464
29304WAT      O88153   5.200   5.850   8.339
29304WAT     H188154   5.152   5.909   8.274
29304WAT     H288155   5.143   5.771   8.361
29305WAT      O88156   0.564   4.500   3.885
29305WAT     H188157   0.638   4.434   3.884
29305WAT     H288158   0.556   4.539   3.977
29306WAT      O88159   3.892   1.534   8.805
29306WAT     H188160   3.870   1.447   8.761
29306WAT     H288161   3.879   1.609   8.740
29307WAT      O88162   8.424   1.070   6.420
29307WAT     H188163   8.502   1.075   6.359
29307WAT     H288164   8.378   1.159   6.424
29308WAT      O88165   2.910   0.098   0.011
29308WAT     H188166   2.889   0.001   0.024
29308WAT     H288167   2.970   0.108  -0.069
29309WAT      O88168   2.152   2.880   0.868
29309WAT     H188169   2.125   2.786   0.847
29309WAT     H288170   2.082   2.922   0.926
29310WAT      O88171   1.203   6.785   4.471
29310WAT     H188172   1.200   6.792   4.571
29310WAT     H288173   1.153   6.703   4.442
29311WAT      O88174   5.329   7.007   8.350
29311WAT     H188175   5.244   6.999   8.298
29311WAT     H288176   5.383   6.923   8.337
29312WAT      O88177   6.837   2.588   4.675
29312WAT     H188178   6.761   2.566   4.736
29312WAT     H288179   6.921   2.598   4.728
29313WAT      O88180   3.064   0.789   8.856
29313WAT     H188181   3.110   0.778   8.944
29313WAT     H288182   2.970   0.821   8.871
29314WAT      O88183   4.575   9.004   1.019
29314WAT     H188184   4.503   9.037   1.080
29314WAT     H288185   4.548   8.916   0.980
29315WAT      O88186   8.920   5.559   8.622
29315WAT     H188187   9.009   5.522   8.648
29315WAT     H288188   8.859   5.560   8.701
29316WAT      O88189   7.253   6.328   0.287
29316WAT     H188190   7.180   6.366   0.344
29316WAT     H288191   7.325   6.290   0.344
29317WAT      O88192   1.151   1.012   6.502
29317WAT     H188193   1.178   1.028   6.407
29317WAT     H288194   1.211   0.944   6.543
29318WAT      O88195   6.410   5.633   8.273
29318WAT     H188196   6.335   5.640   8.208
29318WAT     H288197   6.495   5.662   8.230
29319WAT      O88198   9.134   5.518   6.843
29319WAT     H188199   9.080   5.576   6.904
29319WAT     H288200   9.226   5.555   6.835
29320WAT      O88201   7.638   8.768   7.727
29320WAT     H188202   7.592   8.856   7.717
29320WAT     H288203   7.661   8.753   7.823
29321WAT      O88204   1.157   7.801   2.477
29321WAT     H188205   1.230   7.816   2.543
29321WAT     H288206   1.069   7.794   2.525
29322WAT      O88207   5.690   0.946   5.158
29322WAT     H188208   5.756   0.985   5.093
29322WAT     H288209   5.602   0.993   5.148
29323WAT      O88210   6.044   6.012   7.290
29323WAT     H188211   6.115   6.049   7.231
29323WAT     H288212   6.064   6.035   7.386
29324WAT      O88213   3.489   0.155   4.985
29324WAT     H188214   3.408   0.111   5.025
29324WAT     H288215   3.571   0.106   5.014
29325WAT      O88216   8.395   8.083   8.523
29325WAT     H188217   8.398   8.044   8.431
29325WAT     H288218   8.487   8.112   8.550
29326WAT      O88219   8.709   6.835   6.383
29326WAT     H188220   8.715   6.934   6.392
29326WAT     H288221   8.644   6.799   6.449
29327WAT      O88222   7.140   3.504   7.521
29327WAT     H188223   7.113   3.453   7.603
29327WAT     H288224   7.237   3.526   7.527
29328WAT      O88225   6.775   5.480   9.390
29328WAT     H188226   6.725   5.527   9.318
29328WAT     H288227   6.779   5.382   9.370
29329WAT      O88228   7.707   9.285   4.363
29329WAT     H188229   7.779   9.218   4.378
29329WAT     H288230   7.662   9.266   4.275
29330WAT      O88231   9.344   5.926   3.524
29330WAT     H188232   9.252   5.921   3.485
29330WAT     H288233   9.411   5.911   3.452
29331WAT      O88234   8.777   5.787   8.166
29331WAT     H188235   8.701   5.848   8.188
29331WAT     H288236   8.859   5.818   8.213
29332WAT      O88237   8.155   7.844   8.305
29332WAT     H188238   8.134   7.934   8.344
29332WAT     H288239   8.215   7.856   8.225
29333WAT      O88240   5.767   5.704   7.304
29333WAT     H188241   5.671   5.688   7.280
29333WAT     H288242   5.773   5.742   7.396
29334WAT      O88243   6.106   6.634   8.054
29334WAT     H188244   6.070   6.728   8.057
29334WAT     H288245   6.150   6.612   8.141
29335WAT      O88246   9.840   1.028   3.502
29335WAT     H188247   9.759   0.996   3.551
29335WAT     H288248   9.876   0.954   3.445
29336WAT      O88249   5.122   5.476   9.309
29336WAT     H188250   5.203   5.434   9.348
29336WAT     H288251   5.149   5.545   9.242
29337WAT      O88252   7.730   6.070   4.046
29337WAT     H188253   7.735   6.152   3.989
29337WAT     H288254   7.637   6.058   4.080
29338WAT      O88255   8.867   6.319   4.255
29338WAT     H188256   8.906   6.303   4.164
29338WAT     H288257   8.853   6.417   4.268
29339WAT      O88258   3.769   5.762   1.212
29339WAT     H188259   3.684   5.747   1.160
29339WAT     H288260   3.753   5.832   1.282
29340WAT      O88261   7.949   6.645   2.859
29340WAT     H188262   7.974   6.742   2.863
29340WAT     H288263   8.021   6.594   2.812
29341WAT      O88264   6.793   8.576   5.627
29341WAT     H188265   6.808   8.506   5.557
29341WAT     H288266   6.734   8.648   5.589
29342WAT      O88267   5.223   8.684   3.625
29342WAT     H188268   5.212   8.647   3.533
29342WAT     H288269   5.270   8.772   3.620
29343WAT      O88270   0.451   7.898   4.148
29343WAT     H188271   0.384   7.859   4.212
29343WAT     H288272   0.407   7.972   4.096
29344WAT      O88273   3.905   4.958   3.533
29344WAT     H188274   3.926   4.900   3.612
29344WAT     H288275   3.986   5.010   3.507
29345WAT      O88276   4.275   8.299   4.482
29345WAT     H188277   4.335   8.323   4.559
29345WAT     H288278   4.293   8.361   4.405
29346WAT      O88279   1.586   4.002   7.719
29346WAT     H188280   1.584   3.955   7.807
29346WAT     H288281   1.504   3.979   7.667
29347WAT      O88282   9.095   0.028   6.003
29347WAT     H188283   9.147   0.060   6.081
29347WAT     H288284   9.070  -0.068   6.017
29348WAT      O88285   4.505   0.430   2.612
29348WAT     H188286   4.417   0.415   2.567
29348WAT     H288287   4.577   0.384   2.559
29349WAT      O88288   3.984   1.863   0.242
29349WAT     H188289   3.988   1.767   0.213
29349WAT     H288290   4.073   1.906   0.228
29350WAT      O88291   9.284   6.763   8.726
29350WAT     H188292   9.227   6.684   8.748
29350WAT     H288293   9.331   6.794   8.809
29351WAT      O88294   5.671   1.113   5.447
29351WAT     H188295   5.639   1.197   5.402
29351WAT     H288296   5.657   1.121   5.546
29352WAT      O88297   3.227   8.063   5.626
29352WAT     H188298   3.245   8.025   5.535
29352WAT     H288299   3.272   8.006   5.695
29353WAT      O88300   1.511   8.544   5.795
29353WAT     H188301   1.498   8.537   5.696
29353WAT     H288302   1.424   8.530   5.842
29354WAT      O88303   0.763   8.071   7.498
29354WAT     H188304   0.686   8.057   7.561
29354WAT     H288305   0.735   8.047   7.405
29355WAT      O88306   7.980   4.837   6.245
29355WAT     H188307   8.024   4.800   6.326
29355WAT     H288308   7.913   4.906   6.272
29356WAT      O88309   0.647   3.308   8.992
29356WAT     H188310   0.719   3.261   9.043
29356WAT     H288311   0.565   3.312   9.048
29357WAT      O88312   7.150   5.091   1.704
29357WAT     H188313   7.092   5.015   1.736
29357WAT     H288314   7.102   5.177   1.719
29358WAT      O88315   9.763   3.202   8.300
29358WAT     H188316   9.722   3.283   8.343
29358WAT     H288317   9.816   3.152   8.368
29359WAT      O88318   8.924   2.545   4.105
29359WAT     H188319   9.011   2.563   4.150
29359WAT     H288320   8.936   2.551   4.006
29360WAT      O88321   7.615   1.196   9.011
29360WAT     H188322   7.630   1.293   8.995
29360WAT     H288323   7.696   1.144   8.982
29361WAT      O88324   0.055   7.615   1.881
29361WAT     H188325   0.026   7.521   1.900
29361WAT     H288326   0.151   7.615   1.855
29362WAT      O88327   9.160   7.050   8.885
29362WAT     H188328   9.107   6.965   8.881
29362WAT     H288329   9.173   7.077   8.980
29363WAT      O88330   2.063   6.543   4.977
29363WAT     H188331   2.046   6.453   5.018
29363WAT     H288332   1.976   6.584   4.950
29364WAT      O88333   1.597   0.777   6.461
29364WAT     H188334   1.504   0.758   6.492
29364WAT     H288335   1.639   0.693   6.427
29365WAT      O88336   2.870   0.884   4.911
29365WAT     H188337   2.841   0.894   4.816
29365WAT     H288338   2.800   0.834   4.962
29366WAT      O88339   0.324   0.136   0.304
29366WAT     H188340   0.413   0.113   0.343
29366WAT     H288341   0.313   0.088   0.217
29367WAT      O88342   3.410   1.930   1.699
29367WAT     H188343   3.329   1.934   1.758
29367WAT     H288344   3.484   1.882   1.746
29368WAT      O88345   3.865   6.683   7.701
29368WAT     H188346   3.807   6.627   7.641
29368WAT     H288347   3.822   6.772   7.714
29369WAT      O88348   1.579   5.753   2.397
29369WAT     H188349   1.658   5.710   2.439
29369WAT     H288350   1.605   5.795   2.311
29370WAT      O88351   1.272   4.014   4.952
29370WAT     H188352   1.367   4.038   4.972
29370WAT     H288353   1.213   4.052   5.023
29371WAT      O88354   2.990   6.013   8.935
29371WAT     H188355   2.990   6.070   9.017
29371WAT     H288356   3.075   5.960   8.930
29372WAT      O88357   2.481   3.951   0.054
29372WAT     H188358   2.534   3.905   0.126
29372WAT     H288359   2.388   3.966   0.085
29373WAT      O88360   1.665   3.124   4.840
29373WAT     H188361   1.689   3.203   4.784
29373WAT     H288362   1.620   3.055   4.783
29374WAT      O88363   8.339   2.560   4.768
29374WAT     H188364   8.365   2.626   4.698
29374WAT     H288365   8.257   2.511   4.738
29375WAT      O88366   7.529   5.596   5.263
29375WAT     H188367   7.618   5.580   5.220
29375WAT     H288368   7.541   5.654   5.344
29376WAT      O88369   8.189   5.389   8.360
29376WAT     H188370   8.257   5.424   8.423
29376WAT     H288371   8.171   5.457   8.288
29377WAT      O88372   8.796   2.294   5.443
29377WAT     H188373   8.824   2.277   5.349
29377WAT     H288374   8.850   2.237   5.505
29378WAT      O88375   1.532   0.957   2.515
29378WAT     H188376   1.537   0.972   2.614
29378WAT     H288377   1.569   0.866   2.494
29379WAT      O88378   6.148   3.476   7.826
29379WAT     H188379   6.146   3.562   7.776
29379WAT     H288380   6.057   3.455   7.860
29380WAT      O88381   7.740   0.842   7.887
29380WAT     H188382   7.767   0.812   7.979
29380WAT     H288383   7.821   0.870   7.836
29381WAT      O88384   4.941   6.045   2.105
29381WAT     H188385   4.984   6.014   2.190
29381WAT     H288386   4.929   5.967   2.044
29382WAT      O88387   7.187   7.658   8.886
29382WAT     H188388   7.219   7.588   8.822
29382WAT     H288389   7.259   7.677   8.953
29383WAT      O88390   3.347   5.591   5.735
29383WAT     H188391   3.332   5.504   5.781
29383WAT     H288392   3.258   5.630   5.708
29384WAT      O88393   4.536   4.625   8.714
29384WAT     H188394   4.628   4.606   8.678
29384WAT     H288395   4.502   4.545   8.763
29385WAT      O88396   4.376   8.084   9.462
29385WAT     H188397   4.449   8.026   9.425
29385WAT     H288398   4.289   8.036   9.458
29386WAT      O88399   8.404   1.574   7.019
29386WAT     H188400   8.317   1.611   7.051
29386WAT     H288401   8.421   1.486   7.064
29387WAT      O88402   6.160   6.684   3.592
29387WAT     H188403   6.155   6.660   3.689
29387WAT     H288404   6.130   6.778   3.579
29388WAT      O88405   9.759   1.764   7.134
29388WAT     H188406   9.728   1.675   7.101
29388WAT     H288407   9.801   1.753   7.224
29389WAT      O88408   0.731   0.200   7.219
29389WAT     H188409   0.828   0.190   7.237
29389WAT     H288410   0.695   0.114   7.181
29390WAT      O88411   1.793   8.056   4.907
29390WAT     H188412   1.735   7.975   4.917
29390WAT     H288413   1.762   8.128   4.968
29391WAT      O88414   2.892   0.120   2.154
29391WAT     H188415   2.901   0.202   2.097
29391WAT     H288416   2.963   0.054   2.129
29392WAT      O88417   6.887   9.460   4.509
29392WAT     H188418   6.903   9.545   4.460
29392WAT     H288419   6.834   9.478   4.592
29393WAT      O88420   3.739   9.773   7.815
29393WAT     H188421   3.675   9.850   7.812
29393WAT     H288422   3.708   9.703   7.751
29394WAT      O88423   8.656   7.397   6.559
29394WAT     H188424   8.745   7.409   6.515
29394WAT     H288425   8.637   7.478   6.616
29395WAT      O88426   6.315   8.520   6.101
29395WAT     H188427   6.385   8.537   6.170
29395WAT     H288428   6.301   8.602   6.046
29396WAT      O88429   9.398   8.511   8.716
29396WAT     H188430   9.434   8.452   8.644
29396WAT     H288431   9.408   8.607   8.689
29397WAT      O88432   9.459   2.345   9.518
29397WAT     H188433   9.519   2.411   9.563
29397WAT     H288434   9.507   2.303   9.441
29398WAT      O88435   5.036   2.677   0.321
29398WAT     H188436   5.084   2.723   0.246
29398WAT     H288437   5.102   2.628   0.377
29399WAT      O88438   4.352   1.912   9.230
29399WAT     H188439   4.336   2.008   9.208
29399WAT     H288440   4.316   1.854   9.157
29400WAT      O88441   1.235   6.125   7.781
29400WAT     H188442   1.172   6.052   7.811
29400WAT     H288443   1.184   6.210   7.769
29401WAT      O88444   9.134   0.636   3.810
29401WAT     H188445   9.232   0.619   3.801
29401WAT     H288446   9.105   0.611   3.903
29402WAT      O88447   4.585   7.752   3.243
29402WAT     H188448   4.503   7.771   3.297
29402WAT     H288449   4.559   7.733   3.148
29403WAT      O88450   1.541   9.686   6.964
29403WAT     H188451   1.546   9.590   6.991
29403WAT     H288452   1.493   9.739   7.034
29404WAT      O88453   5.000   8.779   2.219
29404WAT     H188454   5.093   8.798   2.185
29404WAT     H288455   4.972   8.688   2.187
29405WAT      O88456   0.177   2.031   7.063
29405WAT     H188457   0.098   2.001   7.009
29405WAT     H288458   0.248   2.065   7.001
29406WAT      O88459   4.697   6.958   3.844
29406WAT     H188460   4.708   7.045   3.893
29406WAT     H288461   4.773   6.945   3.781
29407WAT      O88462   7.532   5.361   7.237
29407WAT     H188463   7.574   5.369   7.327
29407WAT     H288464   7.447   5.309   7.244
29408WAT      O88465   1.414   2.753   7.955
29408WAT     H188466   1.435   2.802   7.870
29408WAT     H288467   1.335   2.795   7.998
29409WAT      O88468   4.568   0.702   2.231
29409WAT     H188469   4.663   0.669   2.225
29409WAT     H288470   4.507   0.624   2.237
29410WAT      O88471   7.260   9.516   9.297
29410WAT     H188472   7.315   9.573   9.236
29410WAT     H288473   7.195   9.463   9.243
29411WAT      O88474   1.020   4.471   0.279
29411WAT     H188475   1.038   4.466   0.377
29411WAT     H288476   1.074   4.402   0.231
29412WAT      O88477   8.256   7.715   5.520
29412WAT     H188478   8.191   7.765   5.577
29412WAT     H288479   8.272   7.766   5.436
29413WAT      O88480   6.020   5.582   1.894
29413WAT     H188481   6.003   5.584   1.795
29413WAT     H288482   6.051   5.490   1.920
29414WAT      O88483   2.700   4.634   8.561
29414WAT     H188484   2.743   4.724   8.569
29414WAT     H288485   2.683   4.597   8.652
29415WAT      O88486   8.718   0.988   4.907
29415WAT     H188487   8.708   0.891   4.930
29415WAT     H288488   8.734   0.998   4.809
29416WAT      O88489   6.867   6.718   6.242
29416WAT     H188490   6.796   6.648   6.232
29416WAT     H288491   6.952   6.686   6.201
29417WAT      O88492   1.354   0.493   9.858
29417WAT     H188493   1.424   0.446   9.804
29417WAT     H288494   1.397   0.534   9.939
29418WAT      O88495   4.529   6.813   2.222
29418WAT     H188496   4.593   6.819   2.299
29418WAT     H288497   4.536   6.895   2.166
29419WAT      O88498   2.199   5.292   0.821
29419WAT     H188499   2.120   5.245   0.780
29419WAT     H288500   2.226   5.369   0.764
29420WAT      O88501   7.804   9.525   5.013
29420WAT     H188502   7.856   9.440   5.003
29420WAT     H288503   7.708   9.508   4.989
29421WAT      O88504   8.751   7.067   3.991
29421WAT     H188505   8.795   7.144   3.945
29421WAT     H288506   8.660   7.095   4.023
29422WAT      O88507   4.027   0.568   4.138
29422WAT     H188508   4.063   0.569   4.045
29422WAT     H288509   4.059   0.648   4.187
29423WAT      O88510   0.203   0.542   5.174
29423WAT     H188511   0.281   0.604   5.179
29423WAT     H288512   0.194   0.506   5.081
29424WAT      O88513   6.595   3.216   2.055
29424WAT     H188514   6.569   3.304   2.094
29424WAT     H288515   6.589   3.220   1.956
29425WAT      O88516   7.057   3.614   2.553
29425WAT     H188517   7.037   3.653   2.463
29425WAT     H288518   7.027   3.678   2.624
29426WAT      O88519   2.124   1.443   7.363
29426WAT     H188520   2.198   1.384   7.397
29426WAT     H288521   2.114   1.430   7.264
29427WAT      O88522   2.012   5.448   9.080
29427WAT     H188523   1.992   5.353   9.105
29427WAT     H288524   2.110   5.464   9.088
29428WAT      O88525   2.712   1.155   2.277
29428WAT     H188526   2.762   1.221   2.222
29428WAT     H288527   2.697   1.193   2.369
29429WAT      O88528   1.225   2.062   6.646
29429WAT     H188529   1.193   2.157   6.635
29429WAT     H288530   1.292   2.059   6.720
29430WAT      O88531   5.545   1.629   2.170
29430WAT     H188532   5.453   1.620   2.210
29430WAT     H288533   5.592   1.705   2.214
29431WAT      O88534   1.208   1.235   7.362
29431WAT     H188535   1.153   1.196   7.435
29431WAT     H288536   1.281   1.291   7.402
29432WAT      O88537   3.655   7.185   3.471
29432WAT     H188538   3.635   7.253   3.542
29432WAT     H288539   3.733   7.129   3.500
29433WAT      O88540   5.838   2.952   1.199
29433WAT     H188541   5.865   2.994   1.112
29433WAT     H288542   5.906   2.884   1.225
29434WAT      O88543   6.534   3.154   5.484
29434WAT     H188544   6.451   3.112   5.520
29434WAT     H288545   6.532   3.253   5.503
29435WAT      O88546   1.325   5.070   2.759
29435WAT     H188547   1.336   5.025   2.671
29435WAT     H288548   1.413   5.104   2.790
29436WAT      O88549   1.884   5.020   5.291
29436WAT     H188550   1.973   4.976   5.285
29436WAT     H288551   1.895   5.118   5.279
29437WAT      O88552   2.164   1.734   9.655
29437WAT     H188553   2.249   1.684   9.676
29437WAT     H288554   2.086   1.673   9.663
29438WAT      O88555   3.709   3.656   0.172
29438WAT     H188556   3.617   3.652   0.211
29438WAT     H288557   3.729   3.748   0.140
29439WAT      O88558   8.124   2.943   0.175
29439WAT     H188559   8.104   3.018   0.238
29439WAT     H288560   8.156   2.980   0.088
29440WAT      O88561   8.278   6.885   2.437
29440WAT     H188562   8.312   6.957   2.377
29440WAT     H288563   8.353   6.821   2.458
29441WAT      O88564   2.060   7.507   9.159
29441WAT     H188565   2.036   7.569   9.233
29441WAT     H288566   2.024   7.416   9.179
29442WAT      O88567   0.128   6.773   9.660
29442WAT     H188568   0.189   6.761   9.739
29442WAT     H288569   0.167   6.727   9.580
29443WAT      O88570   6.967   1.764   2.373
29443WAT     H188571   6.872   1.790   2.390
29443WAT     H288572   7.000   1.707   2.448
29444WAT      O88573   6.037   6.604   0.177
29444WAT     H188574   6.109   6.668   0.151
29444WAT     H288575   6.054   6.573   0.271
29445WAT      O88576   3.496   5.489   1.524
29445WAT     H188577   3.484   5.498   1.425
29445WAT     H288578   3.407   5.494   1.569
29446WAT      O88579   8.671   6.101   1.973
29446WAT     H188580   8.718   6.168   1.915
29446WAT     H288581   8.577   6.089   1.941
29447WAT      O88582   4.280   1.626   2.310
29447WAT     H188583   4.313   1.654   2.400
29447WAT     H288584   4.304   1.696   2.243
29448WAT      O88585   9.463   5.922   2.427
29448WAT     H188586   9.467   5.906   2.525
29448WAT     H288587   9.426   5.841   2.381
29449WAT      O88588   8.709   2.397   8.323
29449WAT     H188589   8.659   2.379   8.408
29449WAT     H288590   8.801   2.359   8.331
29450WAT      O88591   0.097   4.692   3.200
29450WAT     H188592   0.171   4.661   3.259
29450WAT     H288593   0.116   4.668   3.105
29451WAT      O88594   3.241   5.887   8.998
29451WAT     H188595   3.310   5.920   8.935
29451WAT     H288596   3.284   5.860   9.084
29452WAT      O88597   6.355   7.914   9.553
29452WAT     H188598   6.268   7.945   9.513
29452WAT     H288599   6.337   7.837   9.614
29453WAT      O88600   2.046   0.512   1.427
29453WAT     H188601   2.106   0.493   1.350
29453WAT     H288602   2.001   0.600   1.414
29454WAT      O88603   7.710   3.414   4.226
29454WAT     H188604   7.736   3.504   4.261
29454WAT     H288605   7.657   3.365   4.296
29455WAT      O88606   9.686   4.316   3.523
29455WAT     H188607   9.626   4.306   3.444
29455WAT     H288608   9.665   4.244   3.590
29456WAT      O88609   0.694   7.837   9.364
29456WAT     H188610   0.711   7.866   9.270
29456WAT     H288611   0.769   7.870   9.422
29457WAT      O88612   5.747   6.715   9.861
29457WAT     H188613   5.719   6.661   9.940
29457WAT     H288614   5.703   6.679   9.779
29458WAT      O88615   1.721   0.161   4.341
29458WAT     H188616   1.641   0.148   4.283
29458WAT     H288617   1.702   0.125   4.433
29459WAT      O88618   7.993   4.537   6.168
29459WAT     H188619   7.952   4.625   6.144
29459WAT     H288620   7.921   4.467   6.170
29460WAT      O88621   1.927   7.742   0.306
29460WAT     H188622   1.847   7.777   0.354
29460WAT     H288623   1.986   7.817   0.279
29461WAT      O88624   2.952   5.929   7.723
29461WAT     H188625   3.015   5.967   7.656
29461WAT     H288626   3.003   5.872   7.788
29462WAT      O88627   2.230   1.508   7.807
29462WAT     H188628   2.178   1.439   7.756
29462WAT     H288629   2.183   1.596   7.799
29463WAT      O88630   0.181   9.272   3.674
29463WAT     H188631   0.235   9.340   3.625
29463WAT     H288632   0.230   9.245   3.757
29464WAT      O88633   0.491   6.138   5.155
29464WAT     H188634   0.400   6.151   5.117
29464WAT     H288635   0.507   6.040   5.169
29465WAT      O88636   1.073   6.745   8.480
29465WAT     H188637   1.121   6.699   8.554
29465WAT     H288638   0.975   6.739   8.495
29466WAT      O88639   2.080   8.329   5.915
29466WAT     H188640   2.065   8.290   5.824
29466WAT     H288641   2.111   8.423   5.907
29467WAT      O88642   6.322   5.800   1.068
29467WAT     H188643   6.371   5.749   1.139
29467WAT     H288644   6.301   5.892   1.102
29468WAT      O88645   7.022   5.473   4.088
29468WAT     H188646   6.947   5.411   4.064
29468WAT     H288647   6.993   5.532   4.164
29469WAT      O88648   2.706   8.562   7.434
29469WAT     H188649   2.667   8.510   7.358
29469WAT     H288650   2.685   8.515   7.520
29470WAT      O88651   4.286   9.535   9.542
29470WAT     H188652   4.376   9.578   9.533
29470WAT     H288653   4.259   9.495   9.454
29471WAT      O88654   0.587   3.333   5.886
29471WAT     H188655   0.501   3.360   5.929
29471WAT     H288656   0.637   3.272   5.947
29472WAT      O88657   5.065   6.027   2.816
29472WAT     H188658   5.092   6.121   2.837
29472WAT     H288659   5.112   5.964   2.877
29473WAT      O88660   0.111   3.680   4.029
29473WAT     H188661   0.160   3.622   3.963
29473WAT     H288662   0.134   3.651   4.122
29474WAT      O88663   7.887   7.195   4.613
29474WAT     H188664   7.879   7.099   4.587
29474WAT     H288665   7.982   7.225   4.604
29475WAT      O88666   8.214   7.394   0.493
29475WAT     H188667   8.247   7.325   0.428
29475WAT     H288668   8.221   7.485   0.451
29476WAT      O88669   6.305   8.782   5.935
29476WAT     H188670   6.396   8.751   5.905
29476WAT     H288671   6.296   8.880   5.920
29477WAT      O88672   6.130   4.607   4.238
29477WAT     H188673   6.101   4.570   4.326
29477WAT     H288674   6.224   4.640   4.245
29478WAT      O88675   2.162   6.642   4.552
29478WAT     H188676   2.175   6.738   4.579
29478WAT     H288677   2.073   6.632   4.507
29479WAT      O88678   7.884   5.357   8.651
29479WAT     H188679   7.882   5.378   8.553
29479WAT     H288680   7.918   5.436   8.702
29480WAT      O88681   3.665   7.754   8.759
29480WAT     H188682   3.659   7.709   8.669
29480WAT     H288683   3.579   7.743   8.808
29481WAT      O88684   4.935   5.342   1.142
29481WAT     H188685   5.024   5.306   1.173
29481WAT     H288686   4.946   5.437   1.111
29482WAT      O88687   5.314   3.829   5.268
29482WAT     H188688   5.238   3.888   5.294
29482WAT     H288689   5.400   3.874   5.290
29483WAT      O88690   2.162   8.026   5.066
29483WAT     H188691   2.089   8.089   5.040
29483WAT     H288692   2.234   8.077   5.114
29484WAT      O88693   3.127   7.576   2.261
29484WAT     H188694   3.114   7.524   2.177
29484WAT     H288695   3.084   7.666   2.251
29485WAT      O88696   2.612   0.443   3.441
29485WAT     H188697   2.687   0.382   3.467
29485WAT     H288698   2.647   0.518   3.386
29486WAT      O88699   5.215   7.201   8.927
29486WAT     H188700   5.300   7.212   8.876
29486WAT     H288701   5.233   7.205   9.025
29487WAT      O88702   5.012   3.548   3.801
29487WAT     H188703   5.056   3.494   3.873
29487WAT     H288704   4.949   3.490   3.750
29488WAT      O88705   5.271   8.044   2.193
29488WAT     H188706   5.204   8.054   2.267
29488WAT     H288707   5.224   8.024   2.107
29489WAT      O88708   6.174   4.715   4.622
29489WAT     H188709   6.180   4.781   4.547
29489WAT     H288710   6.168   4.764   4.709
29490WAT      O88711   5.992   5.524   6.488
29490WAT     H188712   5.926   5.476   6.546
29490WAT     H288713   5.942   5.584   6.425
29491WAT      O88714   4.167   8.652   6.598
29491WAT     H188715   4.171   8.724   6.529
29491WAT     H288716   4.083   8.662   6.652
29492WAT      O88717   1.011   5.433   1.914
29492WAT     H188718   1.016   5.409   2.011
29492WAT     H288719   1.074   5.376   1.862
29493WAT      O88720   8.938   3.748   3.659
29493WAT     H188721   8.899   3.703   3.579
29493WAT     H288722   9.016   3.695   3.692
29494WAT      O88723   1.120   8.626   5.991
29494WAT     H188724   1.124   8.591   5.898
29494WAT     H288725   1.074   8.560   6.050
29495WAT      O88726   7.551   9.418   8.344
29495WAT     H188727   7.539   9.322   8.317
29495WAT     H288728   7.602   9.467   8.273
29496WAT      O88729   1.631   1.239   1.109
29496WAT     H188730   1.576   1.310   1.064
29496WAT     H288731   1.575   1.195   1.180
29497WAT      O88732   1.428   8.266   5.293
29497WAT     H188733   1.395   8.250   5.386
29497WAT     H288734   1.483   8.188   5.263
29498WAT      O88735   5.030   4.192   9.555
29498WAT     H188736   5.127   4.166   9.552
29498WAT     H288737   4.987   4.169   9.468
29499WAT      O88738   1.510   8.382   3.863
29499WAT     H188739   1.503   8.289   3.899
29499WAT     H288740   1.561   8.439   3.926
29500WAT      O88741   4.252   6.887   4.054
29500WAT     H188742   4.308   6.875   3.972
29500WAT     H288743   4.216   6.980   4.056
29501WAT      O88744   2.964   0.821   5.724
29501WAT     H188745   3.057   0.795   5.751
29501WAT     H288746   2.961   0.837   5.626
29502WAT      O88747   8.784   5.883   4.914
29502WAT     H188748   8.827   5.823   4.982
29502WAT     H288749   8.801   5.978   4.939
29503WAT      O88750   5.740   4.917   0.585
29503WAT     H188751   5.704   5.010   0.594
29503WAT     H288752   5.824   4.919   0.531
29504WAT      O88753   6.534   8.359   4.771
29504WAT     H188754   6.474   8.327   4.697
29504WAT     H288755   6.480   8.411   4.837
29505WAT      O88756   2.635   9.422   5.282
29505WAT     H188757   2.607   9.411   5.377
29505WAT     H288758   2.713   9.485   5.278
29506WAT      O88759   4.533   7.506   0.168
29506WAT     H188760   4.547   7.602   0.144
29506WAT     H288761   4.451   7.472   0.121
29507WAT      O88762   5.309   4.491   0.231
29507WAT     H188763   5.347   4.506   0.140
29507WAT     H288764   5.331   4.569   0.290
29508WAT      O88765   3.814   1.912   1.174
29508WAT     H188766   3.779   2.005   1.161
29508WAT     H288767   3.868   1.885   1.094
29509WAT      O88768   6.415   1.258   3.927
29509WAT     H188769   6.494   1.309   3.962
29509WAT     H288770   6.337   1.272   3.988
29510WAT      O88771   2.999   7.531   0.674
29510WAT     H188772   2.981   7.449   0.728
29510WAT     H288773   3.028   7.605   0.734
29511WAT      O88774   8.664   1.778   9.410
29511WAT     H188775   8.644   1.876   9.413
29511WAT     H288776   8.739   1.761   9.347
29512WAT      O88777   7.232   5.517   8.559
29512WAT     H188778   7.157   5.547   8.501
29512WAT     H288779   7.271   5.432   8.523
29513WAT      O88780   3.486   8.916   1.330
29513WAT     H188781   3.444   8.997   1.289
29513WAT     H288782   3.524   8.940   1.420
29514WAT      O88783   0.542   5.179   6.028
29514WAT     H188784   0.594   5.265   6.021
29514WAT     H288785   0.450   5.192   5.991
29515WAT      O88786   8.189   8.243   2.690
29515WAT     H188787   8.275   8.266   2.736
29515WAT     H288788   8.204   8.242   2.591
29516WAT      O88789   1.545   0.593   0.142
29516WAT     H188790   1.471   0.612   0.206
29516WAT     H288791   1.589   0.679   0.115
29517WAT      O88792   1.767   0.529   7.440
29517WAT     H188793   1.858   0.533   7.482
29517WAT     H288794   1.776   0.523   7.340
29518WAT      O88795   5.756   5.308   0.307
29518WAT     H188796   5.681   5.282   0.247
29518WAT     H288797   5.818   5.230   0.319
29519WAT      O88798   4.605   6.330   6.963
29519WAT     H188799   4.510   6.338   6.933
29519WAT     H288800   4.607   6.313   7.062
29520WAT      O88801   4.433   9.500   4.818
29520WAT     H188802   4.525   9.498   4.779
29520WAT     H288803   4.419   9.417   4.873
29521WAT      O88804   7.960   7.891   7.885
29521WAT     H188805   7.949   7.849   7.975
29521WAT     H288806   8.055   7.917   7.871
29522WAT      O88807   8.591   1.105   0.790
29522WAT     H188808   8.618   1.201   0.784
29522WAT     H288809   8.633   1.064   0.870
29523WAT      O88810   0.383   3.613   7.453
29523WAT     H188811   0.390   3.683   7.523
29523WAT     H288812   0.465   3.555   7.456
29524WAT      O88813   1.082   0.780   4.922
29524WAT     H188814   0.991   0.808   4.893
29524WAT     H288815   1.151   0.838   4.878
29525WAT      O88816   1.101   6.799   2.389
29525WAT     H188817   1.112   6.728   2.320
29525WAT     H288818   1.052   6.877   2.349
29526WAT      O88819   8.254   8.101   3.568
29526WAT     H188820   8.228   8.197   3.571
29526WAT     H288821   8.194   8.052   3.503
29527WAT      O88822   0.484   8.209   1.517
29527WAT     H188823   0.451   8.153   1.441
29527WAT     H288824   0.425   8.290   1.527
29528WAT      O88825   8.193   5.676   5.830
29528WAT     H188826   8.182   5.589   5.877
29528WAT     H288827   8.166   5.751   5.890
29529WAT      O88828   0.141   3.702   7.378
29529WAT     H188829   0.231   3.665   7.404
29529WAT     H288830   0.081   3.626   7.353
29530WAT      O88831   0.623   1.855   3.740
29530WAT     H188832   0.630   1.851   3.840
29530WAT     H288833   0.704   1.901   3.703
29531WAT      O88834   5.561   9.111   8.583
29531WAT     H188835   5.491   9.171   8.621
29531WAT     H288836   5.605   9.157   8.505
29532WAT      O88837   5.151   0.495   2.388
29532WAT     H188838   5.127   0.592   2.388
29532WAT     H288839   5.146   0.460   2.295
29533WAT      O88840   1.152   3.400   7.056
29533WAT     H188841   1.120   3.390   6.962
29533WAT     H288842   1.162   3.309   7.097
29534WAT      O88843   0.188   9.298   6.747
29534WAT     H188844   0.222   9.336   6.661
29534WAT     H288845   0.262   9.290   6.813
29535WAT      O88846   8.016   1.633   6.656
29535WAT     H188847   8.096   1.577   6.674
29535WAT     H288848   7.956   1.630   6.736
29536WAT      O88849   1.846   8.781   0.910
29536WAT     H188850   1.817   8.820   0.822
29536WAT     H288851   1.917   8.840   0.950
29537WAT      O88852   0.101   7.011   7.041
29537WAT     H188853   0.119   7.107   7.061
29537WAT     H288854   0.128   6.990   6.947
29538WAT      O88855   0.873   8.866   6.695
29538WAT     H188856   0.785   8.879   6.650
29538WAT     H288857   0.893   8.769   6.703
29539WAT      O88858   6.271   3.418   8.048
29539WAT     H188859   6.252   3.323   8.074
29539WAT     H288860   6.239   3.434   7.955
29540WAT      O88861   6.701   5.723   4.570
29540WAT     H188862   6.683   5.819   4.592
29540WAT     H288863   6.663   5.665   4.642
29541WAT      O88864   8.853   5.405   0.970
29541WAT     H188865   8.811   5.456   1.045
29541WAT     H288866   8.889   5.318   1.004
29542WAT      O88867   9.704   2.739   5.779
29542WAT     H188868   9.800   2.722   5.799
29542WAT     H288869   9.649   2.722   5.861
29543WAT      O88870   1.569   9.032   1.798
29543WAT     H188871   1.537   8.949   1.753
29543WAT     H288872   1.538   9.033   1.893
29544WAT      O88873   0.257   4.885   1.367
29544WAT     H188874   0.277   4.974   1.326
29544WAT     H288875   0.173   4.891   1.421
29545WAT      O88876   8.452   6.449   5.864
29545WAT     H188877   8.538   6.401   5.851
29545WAT     H288878   8.381   6.406   5.808
29546WAT      O88879   3.020   0.583   1.963
29546WAT     H188880   3.024   0.614   2.058
29546WAT     H288881   2.994   0.660   1.904
29547WAT      O88882   5.543   1.407   3.065
29547WAT     H188883   5.541   1.344   3.142
29547WAT     H288884   5.453   1.408   3.021
29548WAT      O88885   2.669   1.770   2.109
29548WAT     H188886   2.573   1.766   2.082
29548WAT     H288887   2.679   1.834   2.185
29549WAT      O88888   9.301   2.828   9.357
29549WAT     H188889   9.356   2.851   9.276
29549WAT     H288890   9.222   2.889   9.362
29550WAT      O88891   9.317   7.973   4.710
29550WAT     H188892   9.225   8.004   4.734
29550WAT     H288893   9.312   7.910   4.632
29551WAT      O88894   1.630   8.129   1.173
29551WAT     H188895   1.681   8.081   1.102
29551WAT     H288896   1.669   8.109   1.263
29552WAT      O88897   1.166   8.563   4.038
29552WAT     H188898   1.225   8.591   4.114
29552WAT     H288899   1.169   8.632   3.966
29553WAT      O88900   5.637   3.429   4.534
29553WAT     H188901   5.661   3.334   4.510
29553WAT     H288902   5.553   3.455   4.486
29554WAT      O88903   6.196   5.549   8.000
29554WAT     H188904   6.165   5.482   8.067
29554WAT     H288905   6.199   5.508   7.909
29555WAT      O88906   2.584   8.833   1.216
29555WAT     H188907   2.644   8.903   1.254
29555WAT     H288908   2.630   8.787   1.140
29556WAT      O88909   1.834   2.238   2.076
29556WAT     H188910   1.807   2.232   1.980
29556WAT     H288911   1.781   2.172   2.129
29557WAT      O88912   0.768   0.728   0.966
29557WAT     H188913   0.746   0.822   0.941
29557WAT     H288914   0.811   0.682   0.889
29558WAT      O88915   2.548   3.845   1.874
29558WAT     H188916   2.496   3.870   1.956
29558WAT     H288917   2.485   3.804   1.807
29559WAT      O88918   0.277   5.745   5.129
29559WAT     H188919   0.262   5.736   5.030
29559WAT     H288920   0.245   5.835   5.159
29560WAT      O88921   5.507   9.151   4.947
29560WAT     H188922   5.462   9.226   4.995
29560WAT     H288923   5.520   9.176   4.851
29561WAT      O88924   0.433   6.875   4.942
29561WAT     H188925   0.345   6.846   4.979
29561WAT     H288926   0.430   6.869   4.842
29562WAT      O88927   5.773   7.866   0.420
29562WAT     H188928   5.849   7.818   0.463
29562WAT     H288929   5.730   7.927   0.487
29563WAT      O88930   6.756   3.986   5.872
29563WAT     H188931   6.736   3.946   5.962
29563WAT     H288932   6.685   3.959   5.807
29564WAT      O88933   1.919   9.148   1.736
29564WAT     H188934   1.855   9.200   1.792
29564WAT     H288935   2.009   9.150   1.778
29565WAT      O88936   2.452   9.167   6.463
29565WAT     H188937   2.431   9.174   6.365
29565WAT     H288938   2.368   9.178   6.516
29566WAT      O88939   0.790   8.140   1.492
29566WAT     H188940   0.697   8.176   1.494
29566WAT     H288941   0.808   8.099   1.402
29567WAT      O88942   8.697   0.998   3.645
29567WAT     H188943   8.722   1.088   3.681
29567WAT     H288944   8.603   1.000   3.611
29568WAT      O88945   4.117   8.232   2.863
29568WAT     H188946   4.180   8.284   2.921
29568WAT     H288947   4.047   8.190   2.920
29569WAT      O88948   0.292   9.704   3.047
29569WAT     H188949   0.248   9.792   3.065
29569WAT     H288950   0.234   9.630   3.081
29570WAT      O88951   4.106   2.827   4.097
29570WAT     H188952   4.007   2.827   4.084
29570WAT     H288953   4.148   2.764   4.032
29571WAT      O88954   9.202   0.214   0.067
29571WAT     H188955   9.127   0.170   0.116
29571WAT     H288956   9.203   0.312   0.087
29572WAT      O88957   3.053   2.453   2.907
29572WAT     H188958   2.981   2.489   2.967
29572WAT     H288959   3.103   2.381   2.955
29573WAT      O88960   9.460   9.742   0.330
29573WAT     H188961   9.379   9.799   0.343
29573WAT     H288962   9.499   9.718   0.420
29574WAT      O88963   0.027   4.964   2.195
29574WAT     H188964   0.112   4.945   2.244
29574WAT     H288965  -0.014   4.878   2.165
29575WAT      O88966   5.614   7.434   7.292
29575WAT     H188967   5.667   7.354   7.320
29575WAT     H288968   5.666   7.486   7.224
29576WAT      O88969   5.899   5.637   5.737
29576WAT     H188970   5.819   5.643   5.797
29576WAT     H288971   5.978   5.606   5.790
29577WAT      O88972   1.505   9.511   2.235
29577WAT     H188973   1.467   9.441   2.174
29577WAT     H288974   1.442   9.589   2.240
29578WAT      O88975   0.329   7.798   6.137
29578WAT     H188976   0.411   7.838   6.097
29578WAT     H288977   0.252   7.810   6.075
29579WAT      O88978   1.869   5.743   7.539
29579WAT     H188979   1.893   5.646   7.533
29579WAT     H288980   1.888   5.776   7.632
29580WAT      O88981   5.925   0.606   9.185
29580WAT     H188982   5.987   0.600   9.108
29580WAT     H288983   5.937   0.694   9.231
29581WAT      O88984   6.364   8.855   3.278
29581WAT     H188985   6.459   8.822   3.278
29581WAT     H288986   6.345   8.899   3.190
29582WAT      O88987   7.753   1.031   2.253
29582WAT     H188988   7.753   0.954   2.189
29582WAT     H288989   7.809   1.105   2.216
29583WAT      O88990   8.021   2.995   8.527
29583WAT     H188991   7.935   3.044   8.536
29583WAT     H288992   8.006   2.909   8.477
29584WAT      O88993   2.971   1.956   8.381
29584WAT     H188994   3.071   1.960   8.372
29584WAT     H288995   2.930   2.028   8.325
29585WAT      O88996   8.473   3.415   0.941
29585WAT     H188997   8.378   3.410   0.912
29585WAT     H288998   8.531   3.369   0.874
29586WAT      O88999   4.732   2.821   7.035
29586WAT     H189000   4.775   2.851   7.120
29586WAT     H289001   4.778   2.864   6.957
29587WAT      O89002   3.910   3.692   2.545
29587WAT     H189003   3.908   3.728   2.638
29587WAT     H289004   3.821   3.709   2.501
29588WAT      O89005   6.239   0.338   4.353
29588WAT     H189006   6.229   0.299   4.262
29588WAT     H289007   6.336   0.356   4.372
29589WAT      O89008   1.181   4.247   2.732
29589WAT     H189009   1.243   4.168   2.728
29589WAT     H289010   1.222   4.324   2.684
29590WAT      O89011   3.537   6.261   5.773
29590WAT     H189012   3.557   6.335   5.836
29590WAT     H289013   3.460   6.286   5.715
29591WAT      O89014   9.589   0.255   3.675
29591WAT     H189015   9.569   0.320   3.602
29591WAT     H289016   9.687   0.258   3.696
29592WAT      O89017   8.305   0.096   3.266
29592WAT     H189018   8.283   0.110   3.363
29592WAT     H289019   8.230   0.048   3.221
29593WAT      O89020   3.183   1.537   4.438
29593WAT     H189021   3.258   1.566   4.378
29593WAT     H289022   3.213   1.458   4.492
29594WAT      O89023   4.536   1.608   6.816
29594WAT     H189024   4.606   1.679   6.817
29594WAT     H289025   4.518   1.580   6.721
29595WAT      O89026   3.326   3.290   9.836
29595WAT     H189027   3.404   3.311   9.894
29595WAT     H289028   3.353   3.225   9.766
29596WAT      O89029   8.069   4.361   9.658
29596WAT     H189030   8.161   4.325   9.644
29596WAT     H289031   8.053   4.376   9.755
29597WAT      O89032   7.815   0.765   6.574
29597WAT     H189033   7.830   0.843   6.634
29597WAT     H289034   7.899   0.712   6.566
29598WAT      O89035   0.426   4.056   2.893
29598WAT     H189036   0.472   3.968   2.898
29598WAT     H289037   0.468   4.120   2.957
29599WAT      O89038   1.163   1.329   4.394
29599WAT     H189039   1.145   1.311   4.490
29599WAT     H289040   1.134   1.251   4.339
29600WAT      O89041   9.475   1.264   2.621
29600WAT     H189042   9.489   1.345   2.564
29600WAT     H289043   9.423   1.196   2.570
29601WAT      O89044   3.391   1.000   5.396
29601WAT     H189045   3.359   0.960   5.481
29601WAT     H289046   3.443   0.931   5.344
29602WAT      O89047   1.506   0.589   2.273
29602WAT     H189048   1.568   0.596   2.195
29602WAT     H289049   1.559   0.582   2.357
29603WAT      O89050   0.035   4.372   6.822
29603WAT     H189051  -0.003   4.431   6.893
29603WAT     H289052  -0.004   4.281   6.831
29604WAT      O89053   7.679   9.390   9.217
29604WAT     H189054   7.726   9.301   9.215
29604WAT     H289055   7.745   9.462   9.196
29605WAT      O89056   7.615   0.380   1.708
29605WAT     H189057   7.692   0.387   1.772
29605WAT     H289058   7.531   0.363   1.758
29606WAT      O89059   4.254   8.775   4.180
29606WAT     H189060   4.212   8.743   4.095
29606WAT     H289061   4.349   8.800   4.164
29607WAT      O89062   8.619   6.025   4.038
29607WAT     H189063   8.674   5.961   4.091
29607WAT     H289064   8.644   6.018   3.941
29608WAT      O89065   5.789   7.013   7.412
29608WAT     H189066   5.885   7.004   7.436
29608WAT     H289067   5.747   6.922   7.408
29609WAT      O89068   1.219   6.604   6.532
29609WAT     H189069   1.298   6.648   6.491
29609WAT     H289070   1.161   6.672   6.577
29610WAT      O89071   5.425   6.808   4.365
29610WAT     H189072   5.344   6.853   4.402
29610WAT     H289073   5.476   6.764   4.439
29611WAT      O89074   3.985   0.351   5.308
29611WAT     H189075   3.961   0.291   5.232
29611WAT     H289076   3.902   0.383   5.352
29612WAT      O89077   9.336   4.853   8.937
29612WAT     H189078   9.421   4.866   8.886
29612WAT     H289079   9.348   4.779   9.003
29613WAT      O89080   2.190   7.702   2.861
29613WAT     H189081   2.129   7.778   2.883
29613WAT     H289082   2.161   7.621   2.912
29614WAT      O89083   2.578   0.692   0.634
29614WAT     H189084   2.522   0.772   0.612
29614WAT     H289085   2.618   0.655   0.550
29615WAT      O89086   5.642   0.538   8.266
29615WAT     H189087   5.601   0.531   8.175
29615WAT     H289088   5.732   0.582   8.259
29616WAT      O89089   2.820   5.824   0.711
29616WAT     H189090   2.755   5.899   0.702
29616WAT     H289091   2.877   5.838   0.792
29617WAT      O89092   8.654   0.380   8.561
29617WAT     H189093   8.742   0.363   8.606
29617WAT     H289094   8.636   0.478   8.558
29618WAT      O89095   8.167   7.540   8.958
29618WAT     H189096   8.169   7.458   9.015
29618WAT     H289097   8.259   7.558   8.923
29619WAT      O89098   2.529   4.158   8.220
29619WAT     H189099   2.567   4.250   8.212
29619WAT     H289100   2.463   4.155   8.295
29620WAT      O89101   0.836   8.039   8.869
29620WAT     H189102   0.769   7.985   8.817
29620WAT     H289103   0.797   8.129   8.890
29621WAT      O89104   5.564   2.192   8.010
29621WAT     H189105   5.580   2.286   7.980
29621WAT     H289106   5.507   2.144   7.942
29622WAT      O89107   9.391   4.975   2.901
29622WAT     H189108   9.371   5.010   2.809
29622WAT     H289109   9.307   4.940   2.942
29623WAT      O89110   1.849   9.096   3.192
29623WAT     H189111   1.870   9.153   3.112
29623WAT     H289112   1.752   9.071   3.189
29624WAT      O89113   5.567   2.129   4.720
29624WAT     H189114   5.509   2.180   4.656
29624WAT     H289115   5.645   2.185   4.746
29625WAT      O89116   5.373   0.400   7.211
29625WAT     H189117   5.345   0.371   7.302
29625WAT     H289118   5.307   0.366   7.143
29626WAT      O89119   3.907   1.698   9.856
29626WAT     H189120   3.926   1.651   9.770
29626WAT     H289121   3.913   1.797   9.843
29627WAT      O89122   6.268   4.045   3.221
29627WAT     H189123   6.313   4.118   3.170
29627WAT     H289124   6.179   4.025   3.180
29628WAT      O89125   5.966   0.944   2.016
29628WAT     H189126   5.951   0.874   1.946
29628WAT     H289127   6.025   1.016   1.979
29629WAT      O89128   7.604   2.985   7.691
29629WAT     H189129   7.534   2.934   7.742
29629WAT     H289130   7.572   3.000   7.598
29630WAT      O89131   2.443   4.592   4.349
29630WAT     H189132   2.390   4.677   4.343
29630WAT     H289133   2.457   4.554   4.258
29631WAT      O89134   6.769   3.057   8.855
29631WAT     H189135   6.850   3.017   8.899
29631WAT     H289136   6.754   3.012   8.767
29632WAT      O89137   2.273   1.436   4.767
29632WAT     H189138   2.299   1.430   4.864
29632WAT     H289139   2.351   1.412   4.710
29633WAT      O89140   8.933   6.321   0.014
29633WAT     H189141   8.958   6.356  -0.077
29633WAT     H289142   8.915   6.398   0.075
29634WAT      O89143   7.168   8.789   2.243
29634WAT     H189144   7.139   8.698   2.271
29634WAT     H289145   7.258   8.810   2.283
29635WAT      O89146   8.010   8.717   5.418
29635WAT     H189147   8.098   8.760   5.439
29635WAT     H289148   7.943   8.744   5.488
29636WAT      O89149   6.978   9.187   7.337
29636WAT     H189150   6.986   9.255   7.410
29636WAT     H289151   7.042   9.209   7.264
29637WAT      O89152   5.111   7.397   2.608
29637WAT     H189153   5.084   7.370   2.515
29637WAT     H289154   5.157   7.320   2.653
29638WAT      O89155   9.446   3.987   1.104
29638WAT     H189156   9.359   3.953   1.141
29638WAT     H289157   9.464   3.942   1.016
29639WAT      O89158   1.380   8.170   5.543
29639WAT     H189159   1.301   8.136   5.595
29639WAT     H289160   1.453   8.194   5.607
29640WAT      O89161   6.387   7.993   9.254
29640WAT     H189162   6.422   7.975   9.162
29640WAT     H289163   6.392   7.909   9.308
29641WAT      O89164   7.990   4.829   4.602
29641WAT     H189165   7.928   4.831   4.680
29641WAT     H289166   7.962   4.899   4.536
29642WAT      O89167   5.999   1.545   7.957
29642WAT     H189168   5.985   1.640   7.931
29642WAT     H289169   5.934   1.520   8.029
29643WAT      O89170   4.676   9.169   8.015
29643WAT     H189171   4.703   9.191   8.109
29643WAT     H289172   4.748   9.198   7.952
29644WAT      O89173   8.689   9.490   8.443
29644WAT     H189174   8.615   9.423   8.451
29644WAT     H289175   8.719   9.518   8.534
29645WAT      O89176   2.828   5.904   5.050
29645WAT     H189177   2.903   5.968   5.069
29645WAT     H289178   2.837   5.824   5.109
29646WAT      O89179   9.263   7.179   7.379
29646WAT     H189180   9.327   7.250   7.348
29646WAT     H289181   9.298   7.138   7.463
29647WAT      O89182   8.255   6.348   8.804
29647WAT     H189183   8.258   6.251   8.829
29647WAT     H289184   8.212   6.358   8.715
29648WAT      O89185   2.681   0.801   3.413
29648WAT     H189186   2.658   0.752   3.329
29648WAT     H289187   2.606   0.862   3.438
29649WAT      O89188   5.140   8.850   0.308
29649WAT     H189189   5.148   8.937   0.259
29649WAT     H289190   5.047   8.839   0.341
29650WAT      O89191   2.087   3.852   2.769
29650WAT     H189192   1.995   3.832   2.735
29650WAT     H289193   2.082   3.882   2.864
29651WAT      O89194   8.262   7.199   3.640
29651WAT     H189195   8.255   7.206   3.739
29651WAT     H289196   8.183   7.243   3.598
29652WAT      O89197   5.651   6.339   9.289
29652WAT     H189198   5.586   6.291   9.232
29652WAT     H289199   5.742   6.297   9.281
29653WAT      O89200   7.505   8.931   6.031
29653WAT     H189201   7.584   8.879   6.064
29653WAT     H289202   7.516   9.028   6.054
29654WAT      O89203   4.790   4.182   0.171
29654WAT     H189204   4.801   4.277   0.141
29654WAT     H289205   4.877   4.147   0.203
29655WAT      O89206   6.748   8.152   0.266
29655WAT     H189207   6.686   8.079   0.295
29655WAT     H289208   6.810   8.174   0.342
29656WAT      O89209   7.589   7.097   8.790
29656WAT     H189210   7.584   7.056   8.881
29656WAT     H289211   7.669   7.156   8.785
29657WAT      O89212   7.848   0.113   3.657
29657WAT     H189213   7.899   0.041   3.705
29657WAT     H289214   7.752   0.085   3.648
29658WAT      O89215   3.138   5.743   9.676
29658WAT     H189216   3.214   5.807   9.691
29658WAT     H289217   3.150   5.696   9.589
29659WAT      O89218   6.704   9.782   8.847
29659WAT     H189219   6.609   9.771   8.817
29659WAT     H289220   6.764   9.776   8.768
29660WAT      O89221   3.858   4.220   7.715
29660WAT     H189222   3.947   4.258   7.737
29660WAT     H289223   3.845   4.217   7.616
29661WAT      O89224   5.091   8.314   8.802
29661WAT     H189225   5.088   8.284   8.898
29661WAT     H289226   5.140   8.400   8.796
29662WAT      O89227   6.698   0.841   8.470
29662WAT     H189228   6.750   0.896   8.405
29662WAT     H289229   6.760   0.786   8.526
29663WAT      O89230   2.376   0.042   3.987
29663WAT     H189231   2.349  -0.005   4.071
29663WAT     H289232   2.309   0.024   3.915
29664WAT      O89233   7.777   8.655   8.687
29664WAT     H189234   7.846   8.642   8.616
29664WAT     H289235   7.778   8.577   8.749
29665WAT      O89236   3.252   3.398   1.758
29665WAT     H189237   3.306   3.457   1.818
29665WAT     H289238   3.171   3.366   1.807
29666WAT      O89239   0.050   8.509   8.540
29666WAT     H189240   0.146   8.506   8.510
29666WAT     H289241   0.046   8.514   8.640
29667WAT      O89242   0.155   6.676   8.053
29667WAT     H189243   0.158   6.635   8.145
29667WAT     H289244   0.224   6.748   8.047
29668WAT      O89245   9.635   9.127   1.656
29668WAT     H189246   9.635   9.187   1.736
29668WAT     H289247   9.650   9.182   1.574
29669WAT      O89248   5.956   8.617   5.307
29669WAT     H189249   5.956   8.518   5.295
29669WAT     H289250   5.967   8.662   5.218
29670WAT      O89251   0.643   5.177   8.457
29670WAT     H189252   0.704   5.170   8.535
29670WAT     H289253   0.682   5.127   8.379
29671WAT      O89254   8.226   6.044   8.335
29671WAT     H189255   8.157   6.047   8.263
29671WAT     H289256   8.305   6.099   8.308
29672WAT      O89257   7.032   7.530   5.271
29672WAT     H189258   7.069   7.577   5.190
29672WAT     H289259   7.038   7.592   5.350
29673WAT      O89260   4.161   8.769   3.189
29673WAT     H189261   4.076   8.728   3.154
29673WAT     H289262   4.239   8.724   3.146
29674WAT      O89263   0.430   8.736   6.575
29674WAT     H189264   0.413   8.681   6.494
29674WAT     H289265   0.372   8.704   6.650
29675WAT      O89266   5.283   1.627   1.710
29675WAT     H189267   5.208   1.674   1.663
29675WAT     H289268   5.273   1.640   1.809
29676WAT      O89269   9.178   9.634   9.520
29676WAT     H189270   9.085   9.671   9.521
29676WAT     H289271   9.213   9.630   9.614
29677WAT      O89272   2.507   8.913   6.050
29677WAT     H189273   2.415   8.886   6.079
29677WAT     H289274   2.509   8.925   5.951
29678WAT      O89275   9.189   6.439   3.388
29678WAT     H189276   9.202   6.342   3.368
29678WAT     H289277   9.234   6.493   3.317
29679WAT      O89278   5.006   2.681   8.389
29679WAT     H189279   5.054   2.720   8.310
29679WAT     H289280   5.063   2.693   8.471
29680WAT      O89281   8.668   0.419   7.984
29680WAT     H189282   8.739   0.483   7.953
29680WAT     H289283   8.590   0.472   8.020
29681WAT      O89284   4.496   3.775   4.679
29681WAT     H189285   4.403   3.808   4.664
29681WAT     H289286   4.525   3.800   4.771
29682WAT      O89287   9.877   1.732   9.628
29682WAT     H189288   9.952   1.778   9.675
29682WAT     H289289   9.843   1.791   9.554
29683WAT      O89290   8.416   6.712   0.417
29683WAT     H189291   8.385   6.796   0.462
29683WAT     H289292   8.495   6.674   0.466
29684WAT      O89293   6.235   7.304   1.204
29684WAT     H189294   6.138   7.292   1.226
29684WAT     H289295   6.266   7.392   1.239
29685WAT      O89296   9.849   7.208   1.676
29685WAT     H189297   9.797   7.243   1.597
29685WAT     H289298   9.919   7.145   1.644
29686WAT      O89299   4.525   3.017   7.112
29686WAT     H189300   4.563   3.082   7.178
29686WAT     H289301   4.600   2.969   7.066
29687WAT      O89302   4.008   7.860   3.056
29687WAT     H189303   4.078   7.865   2.985
29687WAT     H289304   3.936   7.796   3.028
29688WAT      O89305   1.132   6.806   8.034
29688WAT     H189306   1.090   6.732   8.087
29688WAT     H289307   1.081   6.819   7.949
29689WAT      O89308   3.470   7.576   7.752
29689WAT     H189309   3.468   7.671   7.721
29689WAT     H289310   3.532   7.523   7.694
29690WAT      O89311   1.665   6.707   1.146
29690WAT     H189312   1.762   6.707   1.120
29690WAT     H289313   1.614   6.769   1.086
29691WAT      O89314   7.469   1.228   0.552
29691WAT     H189315   7.564   1.250   0.574
29691WAT     H289316   7.446   1.264   0.462
29692WAT      O89317   8.215   5.351   1.349
29692WAT     H189318   8.246   5.300   1.269
29692WAT     H289319   8.282   5.342   1.423
29693WAT      O89320   1.664   9.019   8.950
29693WAT     H189321   1.571   9.011   8.912
29693WAT     H289322   1.710   9.098   8.908
29694WAT      O89323   2.224   4.770   9.361
29694WAT     H189324   2.300   4.709   9.342
29694WAT     H289325   2.254   4.865   9.356
29695WAT      O89326   2.141   3.397   9.804
29695WAT     H189327   2.204   3.473   9.794
29695WAT     H289328   2.192   3.311   9.811
29696WAT      O89329   4.161   2.800   7.095
29696WAT     H189330   4.218   2.769   7.172
29696WAT     H289331   4.134   2.721   7.040
29697WAT      O89332   0.725   3.810   0.319
29697WAT     H189333   0.651   3.785   0.381
29697WAT     H289334   0.691   3.817   0.225
29698WAT      O89335   5.077   5.311   3.478
29698WAT     H189336   5.005   5.246   3.500
29698WAT     H289337   5.150   5.264   3.429
29699WAT      O89338   4.081   2.721   2.088
29699WAT     H189339   4.050   2.676   2.172
29699WAT     H289340   4.137   2.659   2.035
29700WAT      O89341   4.526   7.053   6.699
29700WAT     H189342   4.463   7.045   6.621
29700WAT     H289343   4.547   6.962   6.734
29701WAT      O89344   7.138   1.685   0.932
29701WAT     H189345   7.155   1.784   0.938
29701WAT     H289346   7.067   1.668   0.863
29702WAT      O89347   1.782   4.672   5.616
29702WAT     H189348   1.740   4.743   5.559
29702WAT     H289349   1.882   4.674   5.604
29703WAT      O89350   0.491   0.441   8.256
29703WAT     H189351   0.502   0.464   8.353
29703WAT     H289352   0.506   0.523   8.201
29704WAT      O89353   8.354   6.960   0.549
29704WAT     H189354   8.319   7.043   0.507
29704WAT     H289355   8.454   6.962   0.548
29705WAT      O89356   5.786   8.225   9.709
29705WAT     H189357   5.722   8.244   9.634
29705WAT     H289358   5.880   8.230   9.675
29706WAT      O89359   6.824   8.175   2.679
29706WAT     H189360   6.835   8.178   2.779
29706WAT     H289361   6.798   8.082   2.652
29707WAT      O89362   4.693   3.321   8.272
29707WAT     H189363   4.652   3.402   8.312
29707WAT     H289364   4.773   3.294   8.326
29708WAT      O89365   8.293   2.260   1.210
29708WAT     H189366   8.236   2.339   1.231
29708WAT     H289367   8.314   2.210   1.294
29709WAT      O89368   8.991   2.485   1.848
29709WAT     H189369   9.023   2.424   1.776
29709WAT     H289370   8.983   2.434   1.934
29710WAT      O89371   0.687   4.865   0.541
29710WAT     H189372   0.629   4.920   0.481
29710WAT     H289373   0.631   4.821   0.611
29711WAT      O89374   3.991   7.881   0.709
29711WAT     H189375   3.955   7.799   0.665
29711WAT     H289376   4.013   7.949   0.639
29712WAT      O89377   2.860   4.117   7.105
29712WAT     H189378   2.841   4.105   7.203
29712WAT     H289379   2.854   4.214   7.082
29713WAT      O89380   3.763   8.412   2.344
29713WAT     H189381   3.683   8.464   2.314
29713WAT     H289382   3.734   8.341   2.409
29714WAT      O89383   7.720   3.948   3.061
29714WAT     H189384   7.671   3.935   2.975
29714WAT     H289385   7.665   3.912   3.137
29715WAT      O89386   0.738   5.028   5.913
29715WAT     H189387   0.664   5.088   5.945
29715WAT     H289388   0.702   4.938   5.892
29716WAT      O89389   4.957   3.328   4.289
29716WAT     H189390   4.990   3.237   4.311
29716WAT     H289391   4.996   3.394   4.354
29717WAT      O89392   1.836   5.552   7.126
29717WAT     H189393   1.789   5.476   7.081
29717WAT     H289394   1.930   5.525   7.147
29718WAT      O89395   7.212   5.109   3.639
29718WAT     H189396   7.117   5.128   3.615
29718WAT     H289397   7.270   5.186   3.612
29719WAT      O89398   7.854   2.196   7.717
29719WAT     H189399   7.759   2.163   7.712
29719WAT     H289400   7.862   2.281   7.666
29720WAT      O89401   0.791   5.182   8.690
29720WAT     H189402   0.856   5.214   8.759
29720WAT     H289403   0.813   5.087   8.665
29721WAT      O89404   9.759   9.348   7.254
29721WAT     H189405   9.804   9.425   7.211
29721WAT     H289406   9.699   9.303   7.188
29722WAT      O89407   6.777   8.593   2.620
29722WAT     H189408   6.695   8.618   2.671
29722WAT     H289409   6.852   8.574   2.684
29723WAT      O89410   6.021   3.346   3.450
29723WAT     H189411   6.114   3.347   3.414
29723WAT     H289412   5.966   3.281   3.398
29724WAT      O89413   6.311   0.129   7.119
29724WAT     H189414   6.262   0.216   7.119
29724WAT     H289415   6.285   0.075   7.199
29725WAT      O89416   5.948   3.801   3.940
29725WAT     H189417   5.874   3.774   4.003
29725WAT     H289418   6.032   3.814   3.992
29726WAT      O89419   4.578   3.517   8.063
29726WAT     H189420   4.480   3.535   8.059
29726WAT     H289421   4.604   3.496   8.157
29727WAT      O89422   7.244   7.314   8.903
29727WAT     H189423   7.281   7.228   8.870
29727WAT     H289424   7.250   7.383   8.831
29728WAT      O89425   9.874   7.289   7.136
29728WAT     H189426   9.907   7.247   7.221
29728WAT     H289427   9.807   7.229   7.093
29729WAT      O89428   4.196   0.965   1.790
29729WAT     H189429   4.133   0.966   1.713
29729WAT     H289430   4.146   0.942   1.874
29730WAT      O89431   2.877   2.832   0.835
29730WAT     H189432   2.848   2.818   0.741
29730WAT     H289433   2.819   2.901   0.878
29731WAT      O89434   3.351   8.177   8.266
29731WAT     H189435   3.410   8.224   8.331
29731WAT     H289436   3.297   8.244   8.216
29732WAT      O89437   8.568   9.057   1.427
29732WAT     H189438   8.580   8.965   1.464
29732WAT     H289439   8.563   9.052   1.328
29733WAT      O89440   7.664   7.743   7.331
29733WAT     H189441   7.641   7.795   7.413
29733WAT     H289442   7.763   7.741   7.320
29734WAT      O89443   2.115   7.113   3.953
29734WAT     H189444   2.023   7.104   3.991
29734WAT     H289445   2.169   7.173   4.012
29735WAT      O89446   0.029   6.280   2.252
29735WAT     H189447  -0.059   6.326   2.234
29735WAT     H289448   0.074   6.325   2.329
29736WAT      O89449   8.768   6.832   8.703
29736WAT     H189450   8.687   6.875   8.742
29736WAT     H289451   8.740   6.762   8.637
29737WAT      O89452   3.002   1.282   0.850
29737WAT     H189453   3.008   1.369   0.801
29737WAT     H289454   3.093   1.243   0.863
29738WAT      O89455   3.639   4.317   9.730
29738WAT     H189456   3.678   4.365   9.809
29738WAT     H289457   3.703   4.247   9.699
29739WAT      O89458   9.363   3.176   4.773
29739WAT     H189459   9.317   3.088   4.764
29739WAT     H289460   9.451   3.164   4.818
29740WAT      O89461   3.756   4.633   7.712
29740WAT     H189462   3.753   4.581   7.626
29740WAT     H289463   3.668   4.680   7.725
29741WAT      O89464   1.223   1.125   3.249
29741WAT     H189465   1.247   1.215   3.287
29741WAT     H289466   1.244   1.124   3.151
29742WAT      O89467   0.027   6.742   0.566
29742WAT     H189468   0.015   6.713   0.471
29742WAT     H289469  -0.043   6.698   0.623
29743WAT      O89470   8.749   3.663   2.151
29743WAT     H189471   8.795   3.685   2.237
29743WAT     H289472   8.784   3.577   2.115
29744WAT      O89473   4.583   5.954   7.534
29744WAT     H189474   4.602   5.867   7.580
29744WAT     H289475   4.493   5.988   7.562
29745WAT      O89476   4.280   7.560   5.241
29745WAT     H189477   4.287   7.550   5.141
29745WAT     H289478   4.183   7.562   5.267
29746WAT      O89479   1.674   0.832   9.726
29746WAT     H189480   1.718   0.789   9.648
29746WAT     H289481   1.601   0.773   9.760
29747WAT      O89482   7.547   7.330   5.513
29747WAT     H189483   7.511   7.265   5.579
29747WAT     H289484   7.581   7.282   5.432
29748WAT      O89485   0.459   4.422   1.031
29748WAT     H189486   0.395   4.436   1.106
29748WAT     H289487   0.542   4.379   1.066
29749WAT      O89488   4.563   8.680   1.598
29749WAT     H189489   4.576   8.582   1.612
29749WAT     H289490   4.531   8.722   1.683
29750WAT      O89491   6.161   1.465   4.979
29750WAT     H189492   6.242   1.519   5.003
29750WAT     H289493   6.111   1.442   5.063
29751WAT      O89494   0.278   9.164   3.329
29751WAT     H189495   0.204   9.105   3.364
29751WAT     H289496   0.274   9.253   3.375
29752WAT      O89497   3.844   1.867   9.022
29752WAT     H189498   3.924   1.923   8.998
29752WAT     H289499   3.784   1.919   9.083
29753WAT      O89500   0.829   8.916   1.990
29753WAT     H189501   0.897   8.940   1.921
29753WAT     H289502   0.746   8.883   1.945
29754WAT      O89503   9.120   1.489   3.177
29754WAT     H189504   9.208   1.509   3.133
29754WAT     H289505   9.075   1.415   3.128
29755WAT      O89506   1.298   0.029   7.453
29755WAT     H189507   1.217  -0.030   7.444
29755WAT     H289508   1.304   0.090   7.374
29756WAT      O89509   1.826   0.354   3.680
29756WAT     H189510   1.740   0.363   3.630
29756WAT     H289511   1.867   0.445   3.694
29757WAT      O89512   9.627   1.771   6.691
29757WAT     H189513   9.563   1.826   6.637
29757WAT     H289514   9.672   1.830   6.759
29758WAT      O89515   3.873   2.287   6.281
29758WAT     H189516   3.954   2.282   6.340
29758WAT     H289517   3.890   2.236   6.197
29759WAT      O89518   7.378   4.216   7.315
29759WAT     H189519   7.365   4.278   7.238
29759WAT     H289520   7.459   4.160   7.300
29760WAT      O89521   0.995   4.414   5.064
29760WAT     H189522   0.941   4.337   5.031
29760WAT     H289523   1.075   4.426   5.005
29761WAT      O89524   1.539   4.844   1.784
29761WAT     H189525   1.557   4.760   1.836
29761WAT     H289526   1.601   4.916   1.813
29762WAT      O89527   5.266   3.867   0.486
29762WAT     H189528   5.181   3.838   0.530
29762WAT     H289529   5.308   3.941   0.539
29763WAT      O89530   7.419   4.843   5.868
29763WAT     H189531   7.356   4.889   5.805
29763WAT     H289532   7.373   4.765   5.910
29764WAT      O89533   5.822   1.852   2.011
29764WAT     H189534   5.801   1.940   1.967
29764WAT     H289535   5.830   1.781   1.942
29765WAT      O89536   5.654   1.631   7.688
29765WAT     H189537   5.619   1.717   7.724
29765WAT     H289538   5.598   1.555   7.720
29766WAT      O89539   0.649   8.866   5.166
29766WAT     H189540   0.582   8.921   5.115
29766WAT     H289541   0.637   8.770   5.143
29767WAT      O89542   9.032   0.741   0.855
29767WAT     H189543   9.074   0.799   0.785
29767WAT     H289544   9.103   0.707   0.916
29768WAT      O89545   7.829   2.930   3.116
29768WAT     H189546   7.839   2.844   3.066
29768WAT     H289547   7.893   2.932   3.193
29769WAT      O89548   0.269   4.314   2.342
29769WAT     H189549   0.189   4.373   2.347
29769WAT     H289550   0.280   4.280   2.249
29770WAT      O89551   2.295   9.061   2.006
29770WAT     H189552   2.246   9.104   2.082
29770WAT     H289553   2.383   9.027   2.039
29771WAT      O89554   7.409   9.221   5.901
29771WAT     H189555   7.322   9.173   5.914
29771WAT     H289556   7.467   9.207   5.981
29772WAT      O89557   9.182   5.863   2.748
29772WAT     H189558   9.181   5.812   2.662
29772WAT     H289559   9.140   5.807   2.820
29773WAT      O89560   0.574   8.344   3.123
29773WAT     H189561   0.617   8.371   3.209
29773WAT     H289562   0.623   8.387   3.047
29774WAT      O89563   2.929   7.558   9.094
29774WAT     H189564   2.848   7.552   9.152
29774WAT     H289565   2.973   7.647   9.107
29775WAT      O89566   7.891   9.401   5.768
29775WAT     H189567   7.809   9.364   5.814
29775WAT     H289568   7.863   9.472   5.703
29776WAT      O89569   7.841   8.856   1.389
29776WAT     H189570   7.806   8.898   1.473
29776WAT     H289571   7.941   8.850   1.394
29777WAT      O89572   7.303   3.944   6.916
29777WAT     H189573   7.245   3.928   6.996
29777WAT     H289574   7.297   4.040   6.888
29778WAT      O89575   0.871   0.579   3.729
29778WAT     H189576   0.835   0.621   3.813
29778WAT     H289577   0.841   0.484   3.725
29779WAT      O89578   0.683   0.289   2.203
29779WAT     H189579   0.764   0.268   2.257
29779WAT     H289580   0.607   0.315   2.263
29780WAT      O89581   7.022   1.625   2.612
29780WAT     H189582   7.049   1.534   2.642
29780WAT     H289583   6.941   1.654   2.662
29781WAT      O89584   1.784   4.546   9.743
29781WAT     H189585   1.861   4.605   9.722
29781WAT     H289586   1.814   4.471   9.803
29782WAT      O89587   8.358   0.629   0.600
29782WAT     H189588   8.399   0.630   0.508
29782WAT     H289589   8.418   0.678   0.663
29783WAT      O89590   9.392   6.340   4.935
29783WAT     H189591   9.305   6.386   4.950
29783WAT     H289592   9.418   6.289   5.017
29784WAT      O89593   7.460   6.737   9.568
29784WAT     H189594   7.361   6.730   9.582
29784WAT     H289595   7.482   6.827   9.531
29785WAT      O89596   5.058   5.650   4.912
29785WAT     H189597   4.967   5.625   4.944
29785WAT     H289598   5.095   5.577   4.854
29786WAT      O89599   9.339   7.614   7.927
29786WAT     H189600   9.401   7.653   7.995
29786WAT     H289601   9.351   7.660   7.840
29787WAT      O89602   7.205   3.071   2.846
29787WAT     H189603   7.298   3.047   2.876
29787WAT     H289604   7.198   3.059   2.747
29788WAT      O89605   7.455   9.784   6.801
29788WAT     H189606   7.529   9.737   6.850
29788WAT     H289607   7.369   9.734   6.814
29789WAT      O89608   5.158   9.828   8.590
29789WAT     H189609   5.192   9.873   8.508
29789WAT     H289610   5.222   9.755   8.617
29790WAT      O89611   6.336   4.997   5.936
29790WAT     H189612   6.411   4.996   6.002
29790WAT     H289613   6.259   4.945   5.973
29791WAT      O89614   7.726   5.836   1.897
29791WAT     H189615   7.641   5.785   1.896
29791WAT     H289616   7.734   5.889   1.812
29792WAT      O89617   7.361   3.074   0.756
29792WAT     H189618   7.401   3.165   0.769
29792WAT     H289619   7.349   3.030   0.845
29793WAT      O89620   7.746   4.054   6.524
29793WAT     H189621   7.761   4.109   6.606
29793WAT     H289622   7.679   4.099   6.465
29794WAT      O89623   8.542   7.655   5.552
29794WAT     H189624   8.600   7.617   5.625
29794WAT     H289625   8.451   7.674   5.589
29795WAT      O89626   5.734   9.382   6.570
29795WAT     H189627   5.823   9.336   6.565
29795WAT     H289628   5.700   9.378   6.664
29796WAT      O89629   8.796   4.988   5.843
29796WAT     H189630   8.734   4.948   5.776
29796WAT     H289631   8.779   4.947   5.933
29797WAT      O89632   0.037   3.796   3.089
29797WAT     H189633   0.122   3.836   3.121
29797WAT     H289634  -0.029   3.868   3.069
29798WAT      O89635   2.151   1.515   9.028
29798WAT     H189636   2.236   1.527   9.078
29798WAT     H289637   2.132   1.597   8.974
29799WAT      O89638   8.182   3.741   2.124
29799WAT     H189639   8.277   3.709   2.125
29799WAT     H289640   8.162   3.784   2.036
29800WAT      O89641   0.077   6.206   8.856
29800WAT     H189642   0.054   6.280   8.918
29800WAT     H289643  -0.005   6.180   8.804
29801WAT      O89644   2.551   8.069   2.441
29801WAT     H189645   2.521   8.073   2.537
29801WAT     H289646   2.487   8.014   2.388
29802WAT      O89647   1.426   3.983   1.072
29802WAT     H189648   1.339   4.032   1.068
29802WAT     H289649   1.423   3.916   1.147
29803WAT      O89650   9.236   3.989   8.471
29803WAT     H189651   9.272   4.054   8.404
29803WAT     H289652   9.249   4.026   8.563
29804WAT      O89653   2.817   0.046   7.091
29804WAT     H189654   2.895   0.107   7.101
29804WAT     H289655   2.848  -0.049   7.090
29805WAT      O89656   4.419   7.107   8.524
29805WAT     H189657   4.485   7.034   8.506
29805WAT     H289658   4.468   7.190   8.552
29806WAT      O89659   4.360   4.300   9.417
29806WAT     H189660   4.458   4.322   9.424
29806WAT     H289661   4.316   4.322   9.504
29807WAT      O89662   9.384   2.755   7.484
29807WAT     H189663   9.335   2.740   7.570
29807WAT     H289664   9.342   2.698   7.413
29808WAT      O89665   2.278   1.592   8.085
29808WAT     H189666   2.283   1.571   7.987
29808WAT     H289667   2.309   1.685   8.101
29809WAT      O89668   1.096   2.501   1.399
29809WAT     H189669   1.161   2.479   1.471
29809WAT     H289670   1.043   2.420   1.375
29810WAT      O89671   4.578   4.268   5.367
29810WAT     H189672   4.527   4.195   5.322
29810WAT     H289673   4.515   4.326   5.419
29811WAT      O89674   2.028   5.095   6.696
29811WAT     H189675   1.931   5.088   6.721
29811WAT     H289676   2.083   5.042   6.761
29812WAT      O89677   7.610   8.536   9.726
29812WAT     H189678   7.609   8.568   9.821
29812WAT     H289679   7.521   8.494   9.705
29813WAT      O89680   7.721   6.874   1.717
29813WAT     H189681   7.712   6.814   1.638
29813WAT     H289682   7.640   6.865   1.775
29814WAT      O89683   3.083   5.692   1.109
29814WAT     H189684   3.117   5.672   1.201
29814WAT     H289685   3.072   5.606   1.059
29815WAT      O89686   9.515   7.120   1.830
29815WAT     H189687   9.494   7.059   1.755
29815WAT     H289688   9.570   7.072   1.899
29816WAT      O89689   8.366   9.345   0.050
29816WAT     H189690   8.349   9.435   0.089
29816WAT     H289691   8.457   9.313   0.079
29817WAT      O89692   1.891   7.480   2.196
29817WAT     H189693   1.820   7.433   2.248
29817WAT     H289694   1.961   7.414   2.168
29818WAT      O89695   1.059   1.036   2.805
29818WAT     H189696   1.081   0.946   2.766
29818WAT     H289697   1.144   1.081   2.835
29819WAT      O89698   8.986   7.591   3.550
29819WAT     H189699   8.915   7.560   3.613
29819WAT     H289700   9.044   7.659   3.596
29820WAT      O89701   7.260   8.923   6.525
29820WAT     H189702   7.333   8.894   6.586
29820WAT     H289703   7.171   8.897   6.564
29821WAT      O89704   5.325   5.004   1.475
29821WAT     H189705   5.402   5.060   1.443
29821WAT     H289706   5.256   4.999   1.403
29822WAT      O89707   9.786   1.779   2.374
29822WAT     H189708   9.805   1.870   2.409
29822WAT     H289709   9.697   1.779   2.327
29823WAT      O89710   4.214   1.106   4.237
29823WAT     H189711   4.287   1.175   4.236
29823WAT     H289712   4.125   1.152   4.235
29824WAT      O89713   8.880   1.380   6.993
29824WAT     H189714   8.858   1.288   6.961
29824WAT     H289715   8.844   1.447   6.928
29825WAT      O89716   0.363   9.327   6.063
29825WAT     H189717   0.371   9.388   5.985
29825WAT     H289718   0.267   9.299   6.074
29826WAT      O89719   9.363   3.392   7.710
29826WAT     H189720   9.413   3.350   7.634
29826WAT     H289721   9.412   3.474   7.740
29827WAT      O89722   4.368   1.175   5.366
29827WAT     H189723   4.270   1.162   5.375
29827WAT     H289724   4.400   1.133   5.280
29828WAT      O89725   0.626   4.538   7.984
29828WAT     H189726   0.671   4.449   7.976
29828WAT     H289727   0.677   4.606   7.931
29829WAT      O89728   5.684   2.807   4.844
29829WAT     H189729   5.602   2.800   4.787
29829WAT     H289730   5.674   2.750   4.925
29830WAT      O89731   6.170   8.302   2.190
29830WAT     H189732   6.146   8.206   2.179
29830WAT     H289733   6.237   8.329   2.122
29831WAT      O89734   1.571   2.774   4.319
29831WAT     H189735   1.670   2.787   4.313
29831WAT     H289736   1.525   2.844   4.265
29832WAT      O89737   2.471   5.162   5.782
29832WAT     H189738   2.394   5.219   5.809
29832WAT     H289739   2.470   5.149   5.683
29833WAT      O89740   9.212   2.294   9.621
29833WAT     H189741   9.298   2.298   9.570
29833WAT     H289742   9.188   2.198   9.639
29834WAT      O89743   9.815   6.533   1.622
29834WAT     H189744   9.721   6.540   1.656
29834WAT     H289745   9.870   6.480   1.686
29835WAT      O89746   1.768   6.623   8.468
29835WAT     H189747   1.732   6.555   8.532
29835WAT     H289748   1.709   6.704   8.468
29836WAT      O89749   7.492   1.794   0.730
29836WAT     H189750   7.551   1.862   0.773
29836WAT     H289751   7.436   1.749   0.800
29837WAT      O89752   5.730   5.339   5.498
29837WAT     H189753   5.783   5.285   5.564
29837WAT     H289754   5.782   5.421   5.474
29838WAT      O89755   6.571   3.830   9.183
29838WAT     H189756   6.533   3.921   9.199
29838WAT     H289757   6.571   3.809   9.086
29839WAT      O89758   2.104   8.782   0.572
29839WAT     H189759   2.087   8.684   0.572
29839WAT     H289760   2.179   8.803   0.509
29840WAT      O89761   6.003   9.816   1.692
29840WAT     H189762   5.977   9.739   1.634
29840WAT     H289763   6.088   9.795   1.739
29841WAT      O89764   7.120   6.256   9.733
29841WAT     H189765   7.193   6.208   9.685
29841WAT     H289766   7.124   6.236   9.830
29842WAT      O89767   9.077   1.800   5.882
29842WAT     H189768   9.120   1.734   5.943
29842WAT     H289769   8.978   1.794   5.892
29843WAT      O89770   0.061   8.824   8.920
29843WAT     H189771   0.074   8.805   9.017
29843WAT     H289772  -0.024   8.781   8.889
29844WAT      O89773   4.965   9.381   5.132
29844WAT     H189774   5.054   9.420   5.110
29844WAT     H289775   4.971   9.327   5.216
29845WAT      O89776   7.290   7.465   8.690
29845WAT     H189777   7.265   7.403   8.616
29845WAT     H289778   7.390   7.472   8.696
29846WAT      O89779   8.033   9.399   2.360
29846WAT     H189780   8.070   9.403   2.453
29846WAT     H289781   7.940   9.435   2.360
29847WAT      O89782   7.007   7.591   5.579
29847WAT     H189783   7.101   7.557   5.577
29847WAT     H289784   6.973   7.589   5.673
29848WAT      O89785   3.071   4.402   2.524
29848WAT     H189786   3.038   4.372   2.613
29848WAT     H289787   3.120   4.489   2.534
29849WAT      O89788   5.833   4.051   8.862
29849WAT     H189789   5.877   3.986   8.800
29849WAT     H289790   5.897   4.124   8.886
29850WAT      O89791   4.924   1.834   1.410
29850WAT     H189792   4.834   1.799   1.438
29850WAT     H289793   4.951   1.793   1.323
29851WAT      O89794   9.818   2.383   3.942
29851WAT     H189795   9.806   2.311   3.874
29851WAT     H289796   9.810   2.343   4.034
29852WAT      O89797   6.983   8.829   5.908
29852WAT     H189798   7.080   8.820   5.929
29852WAT     H289799   6.941   8.738   5.904
29853WAT      O89800   6.920   3.331   9.468
29853WAT     H189801   6.877   3.242   9.484
29853WAT     H289802   6.915   3.353   9.370
29854WAT      O89803   5.283   4.092   3.131
29854WAT     H189804   5.376   4.057   3.141
29854WAT     H289805   5.226   4.059   3.206
29855WAT      O89806   3.278   3.358   6.634
29855WAT     H189807   3.231   3.392   6.716
29855WAT     H289808   3.333   3.431   6.595
29856WAT      O89809   1.805   0.297   8.748
29856WAT     H189810   1.819   0.292   8.847
29856WAT     H289811   1.736   0.366   8.727
29857WAT      O89812   5.301   8.882   7.190
29857WAT     H189813   5.270   8.891   7.284
29857WAT     H289814   5.223   8.866   7.130
29858WAT      O89815   5.176   4.603   4.513
29858WAT     H189816   5.087   4.628   4.475
29858WAT     H289817   5.167   4.589   4.612
29859WAT      O89818   9.059   3.429   0.524
29859WAT     H189819   9.122   3.491   0.479
29859WAT     H289820   9.061   3.340   0.479
29860WAT      O89821   0.162   7.815   4.605
29860WAT     H189822   0.138   7.744   4.671
29860WAT     H289823   0.136   7.905   4.642
29861WAT      O89824   2.606   4.282   7.856
29861WAT     H189825   2.546   4.362   7.853
29861WAT     H289826   2.696   4.305   7.818
29862WAT      O89827   0.787   8.250   9.415
29862WAT     H189828   0.706   8.215   9.369
29862WAT     H289829   0.858   8.270   9.346
29863WAT      O89830   6.030   6.950   7.508
29863WAT     H189831   6.103   7.014   7.531
29863WAT     H289832   6.063   6.857   7.519
29864WAT      O89833   9.840   1.690   8.804
29864WAT     H189834   9.816   1.651   8.715
29864WAT     H289835   9.756   1.714   8.853
29865WAT      O89836   1.249   1.443   3.250
29865WAT     H189837   1.314   1.495   3.196
29865WAT     H289838   1.157   1.454   3.212
29866WAT      O89839   6.621   6.007   7.739
29866WAT     H189840   6.590   6.058   7.820
29866WAT     H289841   6.624   6.069   7.661
29867WAT      O89842   4.244   1.921   0.468
29867WAT     H189843   4.230   1.942   0.371
29867WAT     H289844   4.268   2.005   0.517
29868WAT      O89845   8.701   2.723   9.850
29868WAT     H189846   8.791   2.715   9.807
29868WAT     H289847   8.673   2.819   9.849
29869WAT      O89848   4.366   0.997   0.664
29869WAT     H189849   4.396   0.947   0.583
29869WAT     H289850   4.356   0.933   0.740
29870WAT      O89851   6.985   6.850   1.008
29870WAT     H189852   6.931   6.781   0.960
29870WAT     H289853   6.939   6.876   1.093
29871WAT      O89854   5.068   5.193   3.053
29871WAT     H189855   5.131   5.119   3.075
29871WAT     H289856   5.055   5.198   2.954
29872WAT      O89857   6.523   9.275   7.852
29872WAT     H189858   6.507   9.218   7.932
29872WAT     H289859   6.436   9.292   7.805
29873WAT      O89860   0.313   7.581   4.978
29873WAT     H189861   0.259   7.633   5.044
29873WAT     H289862   0.262   7.574   4.892
29874WAT      O89863   0.039   3.122   8.510
29874WAT     H189864   0.008   3.030   8.534
29874WAT     H289865   0.139   3.124   8.508
29875WAT      O89866   5.546   6.811   6.467
29875WAT     H189867   5.475   6.741   6.464
29875WAT     H289868   5.582   6.827   6.375
29876WAT      O89869   3.050   0.755   0.306
29876WAT     H189870   3.045   0.831   0.242
29876WAT     H289871   3.050   0.669   0.255
29877WAT      O89872   7.690   3.577   7.960
29877WAT     H189873   7.740   3.653   8.002
29877WAT     H289874   7.736   3.491   7.981
29878WAT      O89875   5.546   8.773   0.810
29878WAT     H189876   5.561   8.767   0.712
29878WAT     H289877   5.451   8.750   0.831
29879WAT      O89878   3.441   3.783   9.155
29879WAT     H189879   3.485   3.701   9.119
29879WAT     H289880   3.391   3.760   9.238
29880WAT      O89881   8.509   1.951   6.352
29880WAT     H189882   8.409   1.960   6.358
29880WAT     H289883   8.547   1.938   6.444
29881WAT      O89884   0.643   6.127   1.515
29881WAT     H189885   0.735   6.123   1.476
29881WAT     H289886   0.632   6.213   1.565
29882WAT      O89887   6.640   1.555   0.795
29882WAT     H189888   6.720   1.610   0.772
29882WAT     H289889   6.593   1.527   0.711
29883WAT      O89890   8.774   7.707   4.664
29883WAT     H189891   8.756   7.613   4.693
29883WAT     H289892   8.872   7.725   4.671
29884WAT      O89893   4.912   3.318   9.228
29884WAT     H189894   4.907   3.222   9.200
29884WAT     H289895   5.004   3.353   9.212
29885WAT      O89896   4.451   3.213   1.461
29885WAT     H189897   4.380   3.231   1.529
29885WAT     H289898   4.428   3.260   1.376
29886WAT      O89899   1.638   3.555   8.692
29886WAT     H189900   1.719   3.511   8.653
29886WAT     H289901   1.616   3.513   8.780
29887WAT      O89902   9.162   2.324   6.529
29887WAT     H189903   9.101   2.270   6.586
29887WAT     H289904   9.218   2.383   6.587
29888WAT      O89905   9.439   3.183   9.307
29888WAT     H189906   9.517   3.244   9.297
29888WAT     H289907   9.359   3.225   9.265
29889WAT      O89908   3.437   5.706   1.858
29889WAT     H189909   3.465   5.614   1.830
29889WAT     H289910   3.366   5.740   1.795
29890WAT      O89911   2.532   1.598   3.041
29890WAT     H189912   2.535   1.511   2.993
29890WAT     H289913   2.467   1.659   2.996
29891WAT      O89914   8.539   0.017   7.698
29891WAT     H189915   8.590   0.089   7.746
29891WAT     H289916   8.507  -0.050   7.764
29892WAT      O89917   1.709   1.170   9.043
29892WAT     H189918   1.631   1.197   9.099
29892WAT     H289919   1.780   1.131   9.101
29893WAT      O89920   1.064   2.576   5.115
29893WAT     H189921   1.078   2.607   5.021
29893WAT     H289922   1.068   2.655   5.177
29894WAT      O89923   3.639   4.039   4.435
29894WAT     H189924   3.673   4.034   4.529
29894WAT     H289925   3.683   4.114   4.387
29895WAT      O89926   0.533   9.776   8.197
29895WAT     H189927   0.548   9.870   8.165
29895WAT     H289928   0.578   9.712   8.135
29896WAT      O89929   8.527   2.864   2.758
29896WAT     H189930   8.616   2.830   2.728
29896WAT     H289931   8.540   2.944   2.816
29897WAT      O89932   0.601   4.851   7.151
29897WAT     H189933   0.596   4.752   7.139
29897WAT     H289934   0.576   4.896   7.065
29898WAT      O89935   2.306   0.784   5.506
29898WAT     H189936   2.294   0.685   5.512
29898WAT     H289937   2.381   0.812   5.566
29899WAT      O89938   5.124   2.088   3.892
29899WAT     H189939   5.145   2.174   3.939
29899WAT     H289940   5.097   2.108   3.798
29900WAT      O89941   7.325   5.252   8.542
29900WAT     H189942   7.248   5.203   8.584
29900WAT     H289943   7.395   5.186   8.514
29901WAT      O89944   2.737   8.403   3.910
29901WAT     H189945   2.835   8.391   3.923
29901WAT     H289946   2.687   8.332   3.960
29902WAT      O89947   7.072   1.220   9.571
29902WAT     H189948   7.092   1.299   9.629
29902WAT     H289949   7.013   1.248   9.496
29903WAT      O89950   3.792   4.117   5.930
29903WAT     H189951   3.824   4.120   5.835
29903WAT     H289952   3.867   4.142   5.991
29904WAT      O89953   4.599   8.742   3.332
29904WAT     H189954   4.565   8.704   3.418
29904WAT     H289955   4.591   8.842   3.334
29905WAT      O89956   5.676   6.284   7.314
29905WAT     H189957   5.770   6.292   7.349
29905WAT     H289958   5.653   6.188   7.302
29906WAT      O89959   4.254   4.467   4.204
29906WAT     H189960   4.234   4.509   4.293
29906WAT     H289961   4.176   4.479   4.143
29907WAT      O89962   3.811   1.802   3.823
29907WAT     H189963   3.726   1.850   3.801
29907WAT     H289964   3.889   1.864   3.814
29908WAT      O89965   9.271   1.233   5.926
29908WAT     H189966   9.224   1.169   5.987
29908WAT     H289967   9.369   1.229   5.944
29909WAT      O89968   8.811   2.996   8.066
29909WAT     H189969   8.791   2.944   8.149
29909WAT     H289970   8.751   3.076   8.062
29910WAT      O89971   8.017   1.038   8.455
29910WAT     H189972   8.101   1.092   8.464
29910WAT     H289973   7.939   1.099   8.445
29911WAT      O89974   3.685   6.472   8.980
29911WAT     H189975   3.635   6.502   8.898
29911WAT     H289976   3.693   6.372   8.978
29912WAT      O89977   5.950   0.187   0.955
29912WAT     H189978   6.025   0.251   0.939
29912WAT     H289979   5.863   0.237   0.961
29913WAT      O89980   0.805   1.524   2.880
29913WAT     H189981   0.860   1.442   2.897
29913WAT     H289982   0.821   1.590   2.954
29914WAT      O89983   4.744   2.995   7.944
29914WAT     H189984   4.811   3.050   7.895
29914WAT     H289985   4.791   2.929   8.002
29915WAT      O89986   0.522   5.186   9.594
29915WAT     H189987   0.593   5.222   9.654
29915WAT     H289988   0.487   5.260   9.535
29916WAT      O89989   8.993   0.862   0.314
29916WAT     H189990   8.895   0.858   0.295
29916WAT     H289991   9.039   0.786   0.268
29917WAT      O89992   0.789   7.540   8.502
29917WAT     H189993   0.725   7.464   8.489
29917WAT     H289994   0.881   7.511   8.479
29918WAT      O89995   7.125   7.092   5.506
29918WAT     H189996   7.135   7.125   5.600
29918WAT     H289997   7.044   7.035   5.498
29919WAT      O89998   6.114   1.015   6.083
29919WAT     H189999   6.095   0.968   6.170
29919WAT     H290000   6.173   0.957   6.027
29920WAT      O90001   0.844   7.072   4.290
29920WAT     H190002   0.924   7.088   4.347
29920WAT     H290003   0.857   7.117   4.201
29921WAT      O90004   3.546   2.644   6.261
29921WAT     H190005   3.626   2.688   6.303
29921WAT     H290006   3.576   2.566   6.206
29922WAT      O90007   3.527   3.734   6.019
29922WAT     H190008   3.438   3.715   6.061
29922WAT     H290009   3.549   3.661   5.954
29923WAT      O90010   4.537   6.168   8.260
29923WAT     H190011   4.471   6.230   8.303
29923WAT     H290012   4.549   6.087   8.316
29924WAT      O90013   1.016   4.465   1.425
29924WAT     H190014   0.962   4.545   1.401
29924WAT     H290015   0.982   4.427   1.511
29925WAT      O90016   7.236   5.930   7.202
29925WAT     H190017   7.262   5.834   7.199
29925WAT     H290018   7.232   5.967   7.109
29926WAT      O90019   5.662   0.026   6.215
29926WAT     H190020   5.666  -0.028   6.299
29926WAT     H290021   5.602  -0.020   6.149
29927WAT      O90022   9.237   6.679   7.201
29927WAT     H190023   9.220   6.644   7.294
29927WAT     H290024   9.317   6.738   7.202
29928WAT      O90025   0.518   2.324   7.662
29928WAT     H190026   0.581   2.247   7.672
29928WAT     H290027   0.428   2.298   7.695
29929WAT      O90028   7.044   0.865   3.546
29929WAT     H190029   7.039   0.961   3.517
29929WAT     H290030   7.100   0.858   3.629
29930WAT      O90031   5.818   6.274   2.825
29930WAT     H190032   5.751   6.338   2.862
29930WAT     H290033   5.788   6.180   2.843
29931WAT      O90034   7.947   5.161   8.814
29931WAT     H190035   7.898   5.188   8.897
29931WAT     H290036   7.929   5.227   8.741
29932WAT      O90037   3.259   3.837   3.386
29932WAT     H190038   3.312   3.755   3.363
29932WAT     H290039   3.168   3.831   3.344
29933WAT      O90040   8.292   0.457   9.020
29933WAT     H190041   8.300   0.464   9.119
29933WAT     H290042   8.283   0.361   8.994
29934WAT      O90043   7.589   9.287   6.763
29934WAT     H190044   7.497   9.320   6.785
29934WAT     H290045   7.634   9.257   6.847
29935WAT      O90046   4.882   6.149   4.549
29935WAT     H190047   4.904   6.058   4.585
29935WAT     H290048   4.852   6.208   4.624
29936WAT      O90049   8.451   3.401   5.741
29936WAT     H190050   8.387   3.423   5.667
29936WAT     H290051   8.524   3.342   5.706
29937WAT      O90052   1.372   4.317   3.646
29937WAT     H190053   1.361   4.397   3.706
29937WAT     H290054   1.464   4.316   3.609
29938WAT      O90055   8.932   7.390   4.147
29938WAT     H190056   8.903   7.318   4.211
29938WAT     H290057   8.936   7.353   4.055
29939WAT      O90058   5.559   1.017   0.292
29939WAT     H190059   5.598   0.977   0.210
29939WAT     H290060   5.536   1.112   0.275
29940WAT      O90061   1.261   6.470   6.793
29940WAT     H190062   1.247   6.551   6.849
29940WAT     H290063   1.243   6.492   6.697
29941WAT      O90064   4.717   9.761   7.816
29941WAT     H190065   4.689   9.732   7.907
29941WAT     H290066   4.766   9.687   7.771
29942WAT      O90067   2.813   5.677   6.581
29942WAT     H190068   2.723   5.635   6.567
29942WAT     H290069   2.823   5.701   6.678
29943WAT      O90070   6.203   5.849   3.271
29943WAT     H190071   6.108   5.846   3.302
29943WAT     H290072   6.208   5.823   3.175
29944WAT      O90073   5.041   3.567   5.962
29944WAT     H190074   4.970   3.591   6.027
29944WAT     H290075   5.117   3.631   5.968
29945WAT      O90076   3.135   8.191   9.522
29945WAT     H190077   3.058   8.137   9.555
29945WAT     H290078   3.131   8.283   9.562
29946WAT      O90079   1.162   1.970   5.640
29946WAT     H190080   1.105   2.017   5.573
29946WAT     H290081   1.165   1.873   5.619
29947WAT      O90082   5.174   3.772   2.686
29947WAT     H190083   5.138   3.729   2.603
29947WAT     H290084   5.108   3.838   2.721
29948WAT      O90085   0.953   7.671   4.224
29948WAT     H190086   0.944   7.770   4.222
29948WAT     H290087   0.862   7.628   4.227
29949WAT      O90088   2.832   5.908   1.711
29949WAT     H190089   2.877   5.855   1.783
29949WAT     H290090   2.837   6.005   1.733
29950WAT      O90091   0.626   2.245   0.816
29950WAT     H190092   0.600   2.155   0.850
29950WAT     H290093   0.599   2.254   0.720
29951WAT      O90094   1.416   6.991   8.929
29951WAT     H190095   1.417   7.074   8.873
29951WAT     H290096   1.495   6.992   8.991
29952WAT      O90097   3.003   1.620   7.018
29952WAT     H190098   2.957   1.698   6.975
29952WAT     H290099   2.953   1.536   6.997
29953WAT      O90100   7.310   0.673   3.046
29953WAT     H190101   7.365   0.612   2.989
29953WAT     H290102   7.324   0.768   3.017
29954WAT      O90103   8.460   9.391   6.464
29954WAT     H190104   8.454   9.405   6.365
29954WAT     H290105   8.554   9.367   6.489
29955WAT      O90106   3.675   9.356   6.580
29955WAT     H190107   3.771   9.329   6.588
29955WAT     H290108   3.670   9.453   6.556
29956WAT      O90109   5.679   2.375   2.831
29956WAT     H190110   5.655   2.312   2.905
29956WAT     H290111   5.622   2.457   2.837
29957WAT      O90112   3.689   2.480   8.438
29957WAT     H190113   3.727   2.549   8.377
29957WAT     H290114   3.753   2.463   8.513
29958WAT      O90115   9.017   0.522   7.310
29958WAT     H190116   8.927   0.515   7.267
29958WAT     H290117   9.082   0.463   7.263
29959WAT      O90118   9.101   0.649   5.610
29959WAT     H190119   9.171   0.652   5.539
29959WAT     H290120   9.118   0.721   5.677
29960WAT      O90121   0.784   9.488   5.852
29960WAT     H190122   0.816   9.395   5.831
29960WAT     H290123   0.859   9.540   5.895
29961WAT      O90124   6.306   4.993   7.908
29961WAT     H190125   6.215   5.034   7.908
29961WAT     H290126   6.321   4.945   7.995
29962WAT      O90127   5.790   2.041   6.165
29962WAT     H190128   5.785   2.118   6.102
29962WAT     H290129   5.697   2.011   6.190
29963WAT      O90130   3.296   8.459   6.198
29963WAT     H190131   3.217   8.452   6.259
29963WAT     H290132   3.380   8.438   6.248
29964WAT      O90133   8.984   6.246   4.009
29964WAT     H190134   8.920   6.256   3.933
29964WAT     H290135   9.076   6.227   3.972
29965WAT      O90136   8.608   2.283   8.070
29965WAT     H190137   8.546   2.227   8.125
29965WAT     H290138   8.668   2.336   8.130
29966WAT      O90139   5.932   5.805   9.446
29966WAT     H190140   5.886   5.888   9.414
29966WAT     H290141   5.979   5.824   9.531
29967WAT      O90142   5.556   9.088   6.492
29967WAT     H190143   5.530   9.185   6.486
29967WAT     H290144   5.474   9.031   6.484
29968WAT      O90145   7.282   3.738   0.804
29968WAT     H190146   7.211   3.806   0.787
29968WAT     H290147   7.291   3.678   0.724
29969WAT      O90148   6.188   0.630   1.966
29969WAT     H190149   6.176   0.684   2.049
29969WAT     H290150   6.282   0.638   1.933
29970WAT      O90151   0.035   0.175   9.617
29970WAT     H190152   0.107   0.243   9.603
29970WAT     H290153   0.073   0.093   9.659
29971WAT      O90154   4.255   2.205   4.159
29971WAT     H190155   4.260   2.229   4.062
29971WAT     H290156   4.344   2.169   4.189
29972WAT      O90157   4.278   9.591   4.497
29972WAT     H190158   4.312   9.657   4.565
29972WAT     H290159   4.348   9.522   4.480
29973WAT      O90160   1.997   0.237   5.978
29973WAT     H190161   2.050   0.199   5.901
29973WAT     H290162   2.039   0.207   6.064
29974WAT      O90163   2.742   8.513   8.261
29974WAT     H190164   2.822   8.503   8.321
29974WAT     H290165   2.662   8.473   8.306
29975WAT      O90166   8.349   1.589   8.275
29975WAT     H190167   8.394   1.657   8.218
29975WAT     H290168   8.271   1.550   8.225
29976WAT      O90169   5.162   0.375   1.475
29976WAT     H190170   5.172   0.472   1.494
29976WAT     H290171   5.244   0.340   1.429
29977WAT      O90172   8.390   2.983   5.220
29977WAT     H190173   8.394   3.026   5.130
29977WAT     H290174   8.457   2.909   5.224
29978WAT      O90175   4.460   0.889   1.724
29978WAT     H190176   4.368   0.925   1.734
29978WAT     H290177   4.471   0.808   1.782
29979WAT      O90178   8.866   7.201   4.327
29979WAT     H190179   8.869   7.102   4.310
29979WAT     H290180   8.774   7.227   4.353
29980WAT      O90181   5.324   4.961   7.818
29980WAT     H190182   5.307   4.911   7.733
29980WAT     H290183   5.322   4.898   7.895
29981WAT      O90184   7.035   4.079   0.079
29981WAT     H190185   7.086   4.157   0.042
29981WAT     H290186   7.078   3.994   0.049
29982WAT      O90187   4.630   4.139   9.206
29982WAT     H190188   4.611   4.227   9.163
29982WAT     H290189   4.587   4.066   9.153
29983WAT      O90190   8.155   7.401   2.371
29983WAT     H190191   8.175   7.357   2.284
29983WAT     H290192   8.104   7.338   2.430
29984WAT      O90193   3.480   0.418   1.860
29984WAT     H190194   3.426   0.334   1.868
29984WAT     H290195   3.486   0.463   1.949
29985WAT      O90196   6.817   2.677   7.471
29985WAT     H190197   6.766   2.597   7.500
29985WAT     H290198   6.754   2.746   7.435
29986WAT      O90199   9.108   1.704   1.082
29986WAT     H190200   9.132   1.762   1.003
29986WAT     H290201   9.073   1.762   1.156
29987WAT      O90202   1.592   7.857   4.193
29987WAT     H190203   1.681   7.814   4.179
29987WAT     H290204   1.560   7.839   4.287
29988WAT      O90205   3.482   4.664   8.483
29988WAT     H190206   3.577   4.692   8.472
29988WAT     H290207   3.479   4.566   8.503
29989WAT      O90208   1.574   2.926   0.303
29989WAT     H190209   1.568   2.929   0.203
29989WAT     H290210   1.669   2.939   0.331
29990WAT      O90211   8.171   1.883   2.747
29990WAT     H190212   8.075   1.880   2.774
29990WAT     H290213   8.178   1.873   2.648
29991WAT      O90214   8.199   8.720   3.525
29991WAT     H190215   8.271   8.740   3.592
29991WAT     H290216   8.227   8.641   3.470
29992WAT      O90217   8.768   8.931   6.122
29992WAT     H190218   8.690   8.965   6.070
29992WAT     H290219   8.851   8.939   6.067
29993WAT      O90220   2.852   5.494   8.304
29993WAT     H190221   2.889   5.403   8.322
29993WAT     H290222   2.885   5.558   8.374
29994WAT      O90223   0.254   4.794   9.112
29994WAT     H190224   0.154   4.783   9.107
29994WAT     H290225   0.293   4.783   9.021
29995WAT      O90226   8.898   6.153   3.278
29995WAT     H190227   8.827   6.087   3.255
29995WAT     H290228   8.917   6.212   3.200
29996WAT      O90229   7.275   7.454   1.093
29996WAT     H190230   7.239   7.522   1.156
29996WAT     H290231   7.205   7.431   1.025
29997WAT      O90232   9.398   2.110   0.066
29997WAT     H190233   9.425   2.099  -0.030
29997WAT     H290234   9.394   2.020   0.109
29998WAT      O90235   7.143   9.422   1.092
29998WAT     H190236   7.054   9.464   1.078
29998WAT     H290237   7.134   9.345   1.156
29999WAT      O90238   0.620   9.429   3.391
29999WAT     H190239   0.644   9.468   3.480
29999WAT     H290240   0.689   9.454   3.324
30000WAT      O90241   2.307   1.587   1.879
30000WAT     H190242   2.261   1.674   1.896
30000WAT     H290243   2.380   1.601   1.813
30001WAT      O90244   5.605   2.964   8.648
30001WAT     H190245   5.559   2.952   8.736
30001WAT     H290246   5.608   2.876   8.600
30002WAT      O90247   1.235   8.180   1.506
30002WAT     H190248   1.253   8.238   1.427
30002WAT     H290249   1.206   8.236   1.583
30003WAT      O90250   0.682   4.458   5.032
30003WAT     H190251   0.715   4.459   5.126
30003WAT     H290252   0.621   4.537   5.017
30004WAT      O90253   7.781   7.594   2.853
30004WAT     H190254   7.799   7.543   2.937
30004WAT     H290255   7.864   7.644   2.826
30005WAT      O90256   0.742   5.282   9.735
30005WAT     H190257   0.818   5.267   9.672
30005WAT     H290258   0.744   5.215   9.808
30006WAT      O90259   7.836   2.514   2.621
30006WAT     H190260   7.807   2.418   2.624
30006WAT     H290261   7.780   2.568   2.683
30007WAT      O90262   3.383   4.321   2.985
30007WAT     H190263   3.455   4.300   3.051
30007WAT     H290264   3.314   4.379   3.029
30008WAT      O90265   7.561   4.738   4.764
30008WAT     H190266   7.523   4.820   4.806
30008WAT     H290267   7.660   4.737   4.776
30009WAT      O90268   6.529   5.177   5.670
30009WAT     H190269   6.464   5.107   5.642
30009WAT     H290270   6.512   5.201   5.766
30010WAT      O90271   3.019   4.338   1.141
30010WAT     H190272   3.020   4.239   1.128
30010WAT     H290273   2.928   4.373   1.121
30011WAT      O90274   7.125   0.241   8.127
30011WAT     H190275   7.150   0.331   8.162
30011WAT     H290276   7.086   0.185   8.200
30012WAT      O90277   3.645   4.717   7.389
30012WAT     H190278   3.737   4.691   7.358
30012WAT     H290279   3.648   4.809   7.428
30013WAT      O90280   2.568   7.739   9.524
30013WAT     H190281   2.536   7.796   9.599
30013WAT     H290282   2.512   7.656   9.520
30014WAT      O90283   9.754   7.389   3.679
30014WAT     H190284   9.753   7.289   3.682
30014WAT     H290285   9.672   7.422   3.632
30015WAT      O90286   1.543   8.036   6.192
30015WAT     H190287   1.567   7.986   6.275
30015WAT     H290288   1.444   8.031   6.177
30016WAT      O90289   5.985   7.663   9.755
30016WAT     H190290   5.956   7.750   9.715
30016WAT     H290291   6.016   7.602   9.683
30017WAT      O90292   3.117   4.999   4.449
30017WAT     H190293   3.148   5.065   4.518
30017WAT     H290294   3.124   4.906   4.486
30018WAT      O90295   3.603   7.570   3.577
30018WAT     H190296   3.608   7.492   3.639
30018WAT     H290297   3.508   7.593   3.560
30019WAT      O90298   6.713   4.681   1.834
30019WAT     H190299   6.665   4.750   1.779
30019WAT     H290300   6.702   4.591   1.792
30020WAT      O90301   8.242   7.916   7.820
30020WAT     H190302   8.317   7.970   7.782
30020WAT     H290303   8.217   7.844   7.755
30021WAT      O90304   5.554   7.150   8.292
30021WAT     H190305   5.462   7.111   8.292
30021WAT     H290306   5.555   7.234   8.347
30022WAT      O90307   4.632   6.159   6.266
30022WAT     H190308   4.671   6.070   6.242
30022WAT     H290309   4.656   6.181   6.360
30023WAT      O90310   4.733   3.428   7.543
30023WAT     H190311   4.833   3.425   7.554
30023WAT     H290312   4.690   3.435   7.633
30024WAT      O90313   1.563   6.633   7.375
30024WAT     H190314   1.593   6.672   7.462
30024WAT     H290315   1.586   6.535   7.373
30025WAT      O90316   7.992   5.384   7.505
30025WAT     H190317   7.953   5.476   7.506
30025WAT     H290318   7.918   5.316   7.506
30026WAT      O90319   5.641   2.078   9.641
30026WAT     H190320   5.557   2.119   9.606
30026WAT     H290321   5.719   2.136   9.618
30027WAT      O90322   3.295   6.877   3.336
30027WAT     H190323   3.378   6.916   3.375
30027WAT     H290324   3.282   6.784   3.372
30028WAT      O90325   8.737   4.283   3.975
30028WAT     H190326   8.670   4.283   4.050
30028WAT     H290327   8.772   4.376   3.962
30029WAT      O90328   5.925   1.619   6.647
30029WAT     H190329   6.021   1.649   6.645
30029WAT     H290330   5.915   1.538   6.590
30030WAT      O90331   6.829   7.990   7.020
30030WAT     H190332   6.814   7.931   6.941
30030WAT     H290333   6.809   8.085   6.995
30031WAT      O90334   8.792   1.318   8.821
30031WAT     H190335   8.836   1.237   8.859
30031WAT     H290336   8.694   1.317   8.842
30032WAT      O90337   2.675   0.958   7.097
30032WAT     H190338   2.732   0.885   7.058
30032WAT     H290339   2.727   1.008   7.166
30033WAT      O90340   5.042   3.202   0.290
30033WAT     H190341   5.026   3.151   0.374
30033WAT     H290342   5.012   3.297   0.302
30034WAT      O90343   9.228   0.722   6.283
30034WAT     H190344   9.138   0.700   6.247
30034WAT     H290345   9.279   0.778   6.217
30035WAT      O90346   7.749   2.538   9.307
30035WAT     H190347   7.767   2.442   9.329
30035WAT     H290348   7.787   2.597   9.378
30036WAT      O90349   4.375   7.003   6.429
30036WAT     H190350   4.390   6.932   6.360
30036WAT     H290351   4.419   7.088   6.400
30037WAT      O90352   3.781   1.577   6.505
30037WAT     H190353   3.822   1.642   6.569
30037WAT     H290354   3.850   1.547   6.440
30038WAT      O90355   2.523   2.975   6.832
30038WAT     H190356   2.525   3.035   6.912
30038WAT     H290357   2.429   2.955   6.808
30039WAT      O90358   7.908   9.187   0.943
30039WAT     H190359   7.868   9.143   0.863
30039WAT     H290360   7.996   9.143   0.965
30040WAT      O90361   4.231   2.031   9.828
30040WAT     H190362   4.267   2.012   9.737
30040WAT     H290363   4.239   2.129   9.847
30041WAT      O90364   1.280   8.553   3.655
30041WAT     H190365   1.373   8.547   3.621
30041WAT     H290366   1.239   8.462   3.656
30042WAT      O90367   1.905   8.651   4.394
30042WAT     H190368   1.950   8.689   4.314
30042WAT     H290369   1.968   8.588   4.441
30043WAT      O90370   5.908   4.815   9.425
30043WAT     H190371   5.893   4.911   9.448
30043WAT     H290372   5.954   4.809   9.336
30044WAT      O90373   3.474   3.892   3.105
30044WAT     H190374   3.511   3.799   3.109
30044WAT     H290375   3.374   3.887   3.100
30045WAT      O90376   2.443   2.141   3.243
30045WAT     H190377   2.513   2.172   3.179
30045WAT     H290378   2.361   2.114   3.192
30046WAT      O90379   3.780   2.041   4.351
30046WAT     H190380   3.743   1.971   4.291
30046WAT     H290381   3.853   2.091   4.304
30047WAT      O90382   2.245   9.041   4.466
30047WAT     H190383   2.298   8.988   4.533
30047WAT     H290384   2.282   9.134   4.460
30048WAT      O90385   2.736   7.874   5.506
30048WAT     H190386   2.694   7.960   5.534
30048WAT     H290387   2.827   7.865   5.547
30049WAT      O90388   3.317   4.596   0.254
30049WAT     H190389   3.271   4.512   0.283
30049WAT     H290390   3.250   4.670   0.249
30050WAT      O90391   2.440   6.058   1.454
30050WAT     H190392   2.497   5.986   1.494
30050WAT     H290393   2.355   6.065   1.505
30051WAT      O90394   7.435   4.192   3.574
30051WAT     H190395   7.353   4.204   3.517
30051WAT     H290396   7.413   4.131   3.650
30052WAT      O90397   9.332   4.019   2.886
30052WAT     H190398   9.311   4.090   2.954
30052WAT     H290399   9.335   4.059   2.795
30053WAT      O90400   4.770   1.274   6.939
30053WAT     H190401   4.810   1.265   6.848
30053WAT     H290402   4.677   1.237   6.938
30054WAT      O90403   6.457   2.963   2.998
30054WAT     H190404   6.471   3.062   2.997
30054WAT     H290405   6.518   2.919   2.932
30055WAT      O90406   8.960   6.060   7.538
30055WAT     H190407   9.013   6.049   7.622
30055WAT     H290408   8.875   6.008   7.546
30056WAT      O90409   4.297   7.981   6.072
30056WAT     H190410   4.363   7.923   6.119
30056WAT     H290411   4.209   7.979   6.120
30057WAT      O90412   5.332   3.092   7.709
30057WAT     H190413   5.370   3.137   7.628
30057WAT     H290414   5.332   3.156   7.785
30058WAT      O90415   7.275   0.861   2.804
30058WAT     H190416   7.226   0.800   2.741
30058WAT     H290417   7.249   0.956   2.785
30059WAT      O90418   9.016   2.558   6.287
30059WAT     H190419   9.025   2.494   6.210
30059WAT     H290420   8.951   2.521   6.353
30060WAT      O90421   5.944   8.081   0.214
30060WAT     H190422   5.890   8.031   0.282
30060WAT     H290423   6.038   8.090   0.246
30061WAT      O90424   3.291   5.484   9.279
30061WAT     H190425   3.199   5.456   9.251
30061WAT     H290426   3.358   5.449   9.214
30062WAT      O90427   6.403   3.899   5.937
30062WAT     H190428   6.314   3.909   5.894
30062WAT     H290429   6.433   3.804   5.930
30063WAT      O90430   7.703   8.083   8.835
30063WAT     H190431   7.621   8.105   8.888
30063WAT     H290432   7.783   8.082   8.895
30064WAT      O90433   5.601   8.650   1.124
30064WAT     H190434   5.524   8.618   1.070
30064WAT     H290435   5.589   8.747   1.146
30065WAT      O90436   3.023   9.355   5.255
30065WAT     H190437   3.118   9.384   5.247
30065WAT     H290438   2.963   9.435   5.251
30066WAT      O90439   1.346   3.061   5.214
30066WAT     H190440   1.298   3.120   5.279
30066WAT     H290441   1.306   2.970   5.217
30067WAT      O90442   4.271   5.107   9.803
30067WAT     H190443   4.316   5.196   9.809
30067WAT     H290444   4.267   5.078   9.707
30068WAT      O90445   4.360   8.611   2.633
30068WAT     H190446   4.436   8.667   2.601
30068WAT     H290447   4.290   8.670   2.673
30069WAT      O90448   3.116   6.915   2.618
30069WAT     H190449   3.126   6.828   2.569
30069WAT     H290450   3.205   6.944   2.653
30070WAT      O90451   2.014   5.364   4.480
30070WAT     H190452   2.050   5.446   4.436
30070WAT     H290453   1.999   5.382   4.577
30071WAT      O90454   0.657   6.334   8.598
30071WAT     H190455   0.714   6.410   8.628
30071WAT     H290456   0.683   6.251   8.648
30072WAT      O90457   2.006   2.640   3.279
30072WAT     H190458   1.984   2.545   3.257
30072WAT     H290459   1.924   2.687   3.313
30073WAT      O90460   7.904   7.904   2.605
30073WAT     H190461   7.849   7.931   2.685
30073WAT     H290462   7.949   7.816   2.625
30074WAT      O90463   2.699   1.940   1.011
30074WAT     H190464   2.750   1.996   1.076
30074WAT     H290465   2.601   1.954   1.025
30075WAT      O90466   5.134   5.714   9.130
30075WAT     H190467   5.187   5.749   9.052
30075WAT     H290468   5.123   5.787   9.197
30076WAT      O90469   0.187   3.730   8.502
30076WAT     H190470   0.258   3.659   8.501
30076WAT     H290471   0.106   3.695   8.550
30077WAT      O90472   0.802   3.417   1.397
30077WAT     H190473   0.769   3.328   1.365
30077WAT     H290474   0.770   3.434   1.490
30078WAT      O90475   2.968   0.075   0.779
30078WAT     H190476   3.026   0.064   0.698
30078WAT     H290477   2.895   0.140   0.760
30079WAT      O90478   0.987   6.962   5.829
30079WAT     H190479   0.895   6.996   5.809
30079WAT     H290480   0.985   6.862   5.830
30080WAT      O90481   3.446   2.609   8.434
30080WAT     H190482   3.397   2.584   8.517
30080WAT     H290483   3.522   2.545   8.420
30081WAT      O90484   7.759   4.737   1.777
30081WAT     H190485   7.695   4.665   1.749
30081WAT     H290486   7.775   4.800   1.702
30082WAT      O90487   1.536   6.160   3.927
30082WAT     H190488   1.505   6.235   3.869
30082WAT     H290489   1.585   6.093   3.872
30083WAT      O90490   5.129   4.485   5.809
30083WAT     H190491   5.123   4.583   5.829
30083WAT     H290492   5.062   4.462   5.739
30084WAT      O90493   6.136   7.581   3.043
30084WAT     H190494   6.086   7.668   3.045
30084WAT     H290495   6.073   7.506   3.063
30085WAT      O90496   1.163   8.871   2.031
30085WAT     H190497   1.105   8.936   2.081
30085WAT     H290498   1.259   8.899   2.041
30086WAT      O90499   7.326   6.266   6.721
30086WAT     H190500   7.345   6.320   6.639
30086WAT     H290501   7.257   6.313   6.776
30087WAT      O90502   0.742   1.681   7.712
30087WAT     H190503   0.672   1.653   7.647
30087WAT     H290504   0.812   1.736   7.665
30088WAT      O90505   6.066   0.997   9.249
30088WAT     H190506   6.087   0.964   9.157
30088WAT     H290507   6.147   0.988   9.307
30089WAT      O90508   4.708   2.849   2.363
30089WAT     H190509   4.781   2.837   2.430
30089WAT     H290510   4.620   2.858   2.410
30090WAT      O90511   5.426   9.326   0.539
30090WAT     H190512   5.352   9.283   0.489
30090WAT     H290513   5.390   9.403   0.593
30091WAT      O90514   1.526   0.544   4.259
30091WAT     H190515   1.611   0.517   4.213
30091WAT     H290516   1.522   0.644   4.265
30092WAT      O90517   1.400   1.642   0.834
30092WAT     H190518   1.454   1.633   0.750
30092WAT     H290519   1.305   1.618   0.816
30093WAT      O90520   5.300   0.162   9.571
30093WAT     H190521   5.301   0.090   9.502
30093WAT     H290522   5.242   0.237   9.540
30094WAT      O90523   3.361   6.867   4.597
30094WAT     H190524   3.342   6.933   4.525
30094WAT     H290525   3.377   6.777   4.556
30095WAT      O90526   1.062   0.760   1.500
30095WAT     H190527   1.043   0.662   1.491
30095WAT     H290528   1.158   0.773   1.527
30096WAT      O90529   7.832   0.716   3.029
30096WAT     H190530   7.887   0.783   3.079
30096WAT     H290531   7.824   0.743   2.934
30097WAT      O90532   3.135   3.365   2.150
30097WAT     H190533   3.206   3.302   2.179
30097WAT     H290534   3.054   3.313   2.122
30098WAT      O90535   0.560   7.645   4.811
30098WAT     H190536   0.490   7.610   4.873
30098WAT     H290537   0.516   7.677   4.727
30099WAT      O90538   7.893   4.541   4.388
30099WAT     H190539   7.885   4.477   4.312
30099WAT     H290540   7.870   4.493   4.473
30100WAT      O90541   5.466   6.228   9.138
30100WAT     H190542   5.437   6.132   9.133
30100WAT     H290543   5.387   6.286   9.156
30101WAT      O90544   1.951   7.769   6.551
30101WAT     H190545   1.893   7.689   6.533
30101WAT     H290546   1.895   7.842   6.590
30102WAT      O90547   3.193   6.870   1.069
30102WAT     H190548   3.105   6.851   1.113
30102WAT     H290549   3.264   6.814   1.113
30103WAT      O90550   8.579   5.653   4.841
30103WAT     H190551   8.587   5.658   4.941
30103WAT     H290552   8.633   5.726   4.799
30104WAT      O90553   8.434   0.190   0.570
30104WAT     H190554   8.465   0.217   0.661
30104WAT     H290555   8.411   0.092   0.570
30105WAT      O90556   4.131   7.817   9.669
30105WAT     H190557   4.223   7.811   9.708
30105WAT     H290558   4.114   7.738   9.611
30106WAT      O90559   5.044   7.373   6.224
30106WAT     H190560   5.035   7.464   6.264
30106WAT     H290561   4.988   7.308   6.274
30107WAT      O90562   5.165   6.978   5.181
30107WAT     H190563   5.147   6.943   5.089
30107WAT     H290564   5.155   6.904   5.248
30108WAT      O90565   0.587   2.554   9.827
30108WAT     H190566   0.665   2.540   9.888
30108WAT     H290567   0.578   2.651   9.806
30109WAT      O90568   9.611   3.066   2.727
30109WAT     H190569   9.631   3.147   2.782
30109WAT     H290570   9.630   2.983   2.780
30110WAT      O90571   2.580   4.982   7.707
30110WAT     H190572   2.489   4.976   7.666
30110WAT     H290573   2.641   4.914   7.665
30111WAT      O90574   2.505   3.749   0.453
30111WAT     H190575   2.416   3.705   0.449
30111WAT     H290576   2.510   3.808   0.534
30112WAT      O90577   4.180   4.535   0.728
30112WAT     H190578   4.126   4.569   0.651
30112WAT     H290579   4.135   4.455   0.768
30113WAT      O90580   5.488   5.033   4.443
30113WAT     H190581   5.585   5.035   4.465
30113WAT     H290582   5.436   4.996   4.520
30114WAT      O90583   5.831   6.278   3.151
30114WAT     H190584   5.869   6.344   3.217
30114WAT     H290585   5.773   6.327   3.086
30115WAT      O90586   2.013   4.846   7.252
30115WAT     H190587   1.960   4.930   7.238
30115WAT     H290588   1.955   4.777   7.296
30116WAT      O90589   5.106   6.755   1.849
30116WAT     H190590   5.010   6.749   1.821
30116WAT     H290591   5.160   6.687   1.799
30117WAT      O90592   7.944   0.644   3.900
30117WAT     H190593   7.847   0.663   3.882
30117WAT     H290594   7.953   0.556   3.946
30118WAT      O90595   0.298   3.432   1.856
30118WAT     H190596   0.322   3.340   1.825
30118WAT     H290597   0.233   3.425   1.932
30119WAT      O90598   2.108   6.989   8.944
30119WAT     H190599   2.153   7.036   8.868
30119WAT     H290600   2.032   6.934   8.909
30120WAT      O90601   0.604   9.325   2.079
30120WAT     H190602   0.573   9.393   2.013
30120WAT     H290603   0.539   9.319   2.155
30121WAT      O90604   0.896   9.531   4.424
30121WAT     H190605   0.802   9.563   4.418
30121WAT     H290606   0.897   9.432   4.436
30122WAT      O90607   3.400   7.545   5.097
30122WAT     H190608   3.426   7.638   5.071
30122WAT     H290609   3.333   7.549   5.171
30123WAT      O90610   2.858   4.702   1.025
30123WAT     H190611   2.896   4.762   1.095
30123WAT     H290612   2.785   4.749   0.976
30124WAT      O90613   4.242   7.569   3.545
30124WAT     H190614   4.149   7.587   3.511
30124WAT     H290615   4.248   7.595   3.641
30125WAT      O90616   0.792   2.613   1.596
30125WAT     H190617   0.772   2.516   1.589
30125WAT     H290618   0.879   2.626   1.644
30126WAT      O90619   4.335   1.774   3.499
30126WAT     H190620   4.236   1.758   3.499
30126WAT     H290621   4.364   1.800   3.591
30127WAT      O90622   2.196   4.982   3.723
30127WAT     H190623   2.194   5.004   3.625
30127WAT     H290624   2.274   5.027   3.766
30128WAT      O90625   6.359   7.658   0.906
30128WAT     H190626   6.374   7.754   0.885
30128WAT     H290627   6.395   7.637   0.997
30129WAT      O90628   7.913   9.097   1.625
30129WAT     H190629   7.999   9.045   1.625
30129WAT     H290630   7.853   9.062   1.696
30130WAT      O90631   0.485   6.412   1.438
30130WAT     H190632   0.426   6.423   1.358
30130WAT     H290633   0.431   6.380   1.516
30131WAT      O90634   6.708   1.955   6.140
30131WAT     H190635   6.664   2.030   6.090
30131WAT     H290636   6.638   1.891   6.173
30132WAT      O90637   5.567   5.681   0.579
30132WAT     H190638   5.553   5.727   0.666
30132WAT     H290639   5.542   5.584   0.587
30133WAT      O90640   3.882   3.325   1.663
30133WAT     H190641   3.921   3.233   1.657
30133WAT     H290642   3.949   3.388   1.700
30134WAT      O90643   2.218   4.141   8.617
30134WAT     H190644   2.174   4.192   8.690
30134WAT     H290645   2.157   4.139   8.537
30135WAT      O90646   7.156   4.149   3.937
30135WAT     H190647   7.165   4.248   3.926
30135WAT     H290648   7.059   4.124   3.935
30136WAT      O90649   7.676   4.101   1.820
30136WAT     H190650   7.752   4.041   1.796
30136WAT     H290651   7.610   4.052   1.877
30137WAT      O90652   2.158   6.395   3.698
30137WAT     H190653   2.125   6.409   3.792
30137WAT     H290654   2.243   6.342   3.700
30138WAT      O90655   4.426   1.708   6.070
30138WAT     H190656   4.424   1.787   6.132
30138WAT     H290657   4.386   1.734   5.982
30139WAT      O90658   5.919   5.934   4.382
30139WAT     H190659   5.942   5.849   4.429
30139WAT     H290660   5.852   5.915   4.310
30140WAT      O90661   7.351   6.080   9.166
30140WAT     H190662   7.344   6.017   9.243
30140WAT     H290663   7.306   6.166   9.190
30141WAT      O90664   9.702   8.944   3.799
30141WAT     H190665   9.742   9.008   3.733
30141WAT     H290666   9.770   8.920   3.868
30142WAT      O90667   8.196   5.743   2.888
30142WAT     H190668   8.160   5.666   2.835
30142WAT     H290669   8.192   5.826   2.833
30143WAT      O90670   8.897   3.630   6.427
30143WAT     H190671   8.887   3.722   6.389
30143WAT     H290672   8.994   3.606   6.432
30144WAT      O90673   4.060   2.599   0.485
30144WAT     H190674   4.075   2.507   0.450
30144WAT     H290675   4.112   2.612   0.570
30145WAT      O90676   7.118   4.235   0.640
30145WAT     H190677   7.060   4.185   0.705
30145WAT     H290678   7.201   4.265   0.687
30146WAT      O90679   3.246   7.967   5.000
30146WAT     H190680   3.200   7.896   4.947
30146WAT     H290681   3.202   7.977   5.089
30147WAT      O90682   2.628   6.802   9.390
30147WAT     H190683   2.651   6.827   9.296
30147WAT     H290684   2.685   6.725   9.419
30148WAT      O90685   9.529   9.269   8.787
30148WAT     H190686   9.600   9.237   8.850
30148WAT     H290687   9.444   9.285   8.837
30149WAT      O90688   3.078   0.382   3.965
30149WAT     H190689   2.986   0.351   3.939
30149WAT     H290690   3.070   0.464   4.022
30150WAT      O90691   4.192   1.142   2.878
30150WAT     H190692   4.260   1.178   2.814
30150WAT     H290693   4.100   1.157   2.842
30151WAT      O90694   4.459   3.142   6.601
30151WAT     H190695   4.432   3.110   6.692
30151WAT     H290696   4.513   3.226   6.610
30152WAT      O90697   9.562   2.821   3.916
30152WAT     H190698   9.543   2.862   4.005
30152WAT     H290699   9.600   2.729   3.929
30153WAT      O90700   6.211   8.252   4.371
30153WAT     H190701   6.125   8.280   4.327
30153WAT     H290702   6.288   8.276   4.311
30154WAT      O90703   0.494   9.652   6.564
30154WAT     H190704   0.466   9.719   6.632
30154WAT     H290705   0.469   9.685   6.473
30155WAT      O90706   2.347   6.050   9.596
30155WAT     H190707   2.412   6.116   9.634
30155WAT     H290708   2.256   6.092   9.590
30156WAT      O90709   4.728   2.766   4.239
30156WAT     H190710   4.768   2.729   4.156
30156WAT     H290711   4.628   2.760   4.233
30157WAT      O90712   1.768   2.889   1.388
30157WAT     H190713   1.783   2.794   1.413
30157WAT     H290714   1.793   2.948   1.465
30158WAT      O90715   5.981   1.715   3.831
30158WAT     H190716   6.059   1.760   3.787
30158WAT     H290717   5.929   1.664   3.762
30159WAT      O90718   2.966   0.145   7.996
30159WAT     H190719   2.919   0.208   7.933
30159WAT     H290720   3.058   0.179   8.014
30160WAT      O90721   8.490   4.321   9.350
30160WAT     H190722   8.464   4.336   9.445
30160WAT     H290723   8.449   4.235   9.317
30161WAT      O90724   2.130   6.471   3.441
30161WAT     H190725   2.174   6.395   3.394
30161WAT     H290726   2.124   6.450   3.539
30162WAT      O90727   2.219   5.985   0.700
30162WAT     H190728   2.197   5.938   0.614
30162WAT     H290729   2.263   5.921   0.763
30163WAT      O90730   0.565   1.331   8.915
30163WAT     H190731   0.501   1.258   8.940
30163WAT     H290732   0.637   1.337   8.984
30164WAT      O90733   6.978   3.046   5.149
30164WAT     H190734   6.885   3.083   5.146
30164WAT     H290735   7.043   3.119   5.128
30165WAT      O90736   5.430   4.750   1.520
30165WAT     H190737   5.390   4.700   1.443
30165WAT     H290738   5.396   4.843   1.522
30166WAT      O90739   5.835   1.017   7.674
30166WAT     H190740   5.932   0.997   7.656
30166WAT     H290741   5.792   0.936   7.713
30167WAT      O90742   4.425   7.073   0.680
30167WAT     H190743   4.349   7.113   0.630
30167WAT     H290744   4.417   6.974   0.681
30168WAT      O90745   4.834   4.624   3.745
30168WAT     H190746   4.934   4.624   3.736
30168WAT     H290747   4.796   4.701   3.694
30169WAT      O90748   8.943   2.184   5.906
30169WAT     H190749   8.966   2.192   6.003
30169WAT     H290750   9.023   2.156   5.854
30170WAT      O90751   2.618   3.207   6.677
30170WAT     H190752   2.571   3.192   6.764
30170WAT     H290753   2.623   3.122   6.626
30171WAT      O90754   9.446   4.989   5.570
30171WAT     H190755   9.543   5.015   5.575
30171WAT     H290756   9.412   4.969   5.661
30172WAT      O90757   1.484   1.371   7.411
30172WAT     H190758   1.489   1.465   7.445
30172WAT     H290759   1.523   1.309   7.480
30173WAT      O90760   8.724   9.519   7.625
30173WAT     H190761   8.738   9.612   7.660
30173WAT     H290762   8.676   9.465   7.693
30174WAT      O90763   1.264   1.112   0.797
30174WAT     H190764   1.356   1.108   0.758
30174WAT     H290765   1.266   1.169   0.880
30175WAT      O90766   6.290   7.463   6.150
30175WAT     H190767   6.195   7.493   6.157
30175WAT     H290768   6.297   7.369   6.182
30176WAT      O90769   0.556   7.033   2.724
30176WAT     H190770   0.644   6.991   2.700
30176WAT     H290771   0.492   7.019   2.648
30177WAT      O90772   7.693   0.544   6.008
30177WAT     H190773   7.609   0.581   6.048
30177WAT     H290774   7.672   0.497   5.923
30178WAT      O90775   2.413   1.306   7.107
30178WAT     H190776   2.455   1.332   7.020
30178WAT     H290777   2.482   1.307   7.179
30179WAT      O90778   2.426   1.347   0.803
30179WAT     H190779   2.397   1.343   0.899
30179WAT     H290780   2.347   1.367   0.745
30180WAT      O90781   0.877   0.053   2.415
30180WAT     H190782   0.958   0.095   2.454
30180WAT     H290783   0.901   0.004   2.330
30181WAT      O90784   6.653   9.279   7.621
30181WAT     H190785   6.628   9.369   7.585
30181WAT     H290786   6.616   9.268   7.713
30182WAT      O90787   1.678   7.792   5.244
30182WAT     H190788   1.704   7.760   5.153
30182WAT     H290789   1.760   7.801   5.301
30183WAT      O90790   6.649   7.411   3.014
30183WAT     H190791   6.695   7.500   3.014
30183WAT     H290792   6.570   7.414   2.953
30184WAT      O90793   3.165   9.197   4.208
30184WAT     H190794   3.209   9.236   4.289
30184WAT     H290795   3.066   9.199   4.220
30185WAT      O90796   7.075   4.820   4.910
30185WAT     H190797   7.159   4.790   4.955
30185WAT     H290798   7.058   4.916   4.934
30186WAT      O90799   6.280   4.255   1.234
30186WAT     H190800   6.333   4.326   1.187
30186WAT     H290801   6.193   4.293   1.265
30187WAT      O90802   7.440   2.948   2.975
30187WAT     H190803   7.516   3.006   2.948
30187WAT     H290804   7.467   2.890   3.052
30188WAT      O90805   0.491   5.536   6.228
30188WAT     H190806   0.488   5.636   6.229
30188WAT     H290807   0.535   5.505   6.143
30189WAT      O90808   6.011   8.336   4.721
30189WAT     H190809   6.026   8.394   4.641
30189WAT     H290810   6.060   8.249   4.709
30190WAT      O90811   1.938   7.241   8.626
30190WAT     H190812   2.031   7.204   8.632
30190WAT     H290813   1.913   7.253   8.530
30191WAT      O90814   8.005   3.244   6.520
30191WAT     H190815   8.011   3.196   6.432
30191WAT     H290816   8.096   3.251   6.560
30192WAT      O90817   8.795   3.492   0.599
30192WAT     H190818   8.736   3.411   0.600
30192WAT     H290819   8.885   3.467   0.565
30193WAT      O90820   9.756   2.990   2.507
30193WAT     H190821   9.718   2.997   2.599
30193WAT     H290822   9.849   2.952   2.512
30194WAT      O90823   1.213   1.972   5.077
30194WAT     H190824   1.153   1.897   5.053
30194WAT     H290825   1.240   2.022   4.995
30195WAT      O90826   1.167   8.774   7.060
30195WAT     H190827   1.180   8.837   6.983
30195WAT     H290828   1.127   8.824   7.136
30196WAT      O90829   9.125   2.153   0.128
30196WAT     H190830   9.223   2.162   0.106
30196WAT     H290831   9.087   2.075   0.079
30197WAT      O90832   0.691   7.993   0.165
30197WAT     H190833   0.766   8.004   0.100
30197WAT     H290834   0.618   7.940   0.122
30198WAT      O90835   5.060   7.649   5.285
30198WAT     H190836   4.975   7.698   5.269
30198WAT     H290837   5.075   7.640   5.384
30199WAT      O90838   2.859   5.101   7.606
30199WAT     H190839   2.882   5.145   7.519
30199WAT     H290840   2.794   5.158   7.657
30200WAT      O90841   6.149   2.661   9.870
30200WAT     H190842   6.217   2.603   9.826
30200WAT     H290843   6.169   2.668   9.968
30201WAT      O90844   4.912   6.870   2.812
30201WAT     H190845   4.984   6.844   2.748
30201WAT     H290846   4.911   6.969   2.823
30202WAT      O90847   0.634   2.766   5.026
30202WAT     H190848   0.670   2.729   5.111
30202WAT     H290849   0.690   2.734   4.949
30203WAT      O90850   9.097   7.003   7.228
30203WAT     H190851   9.159   6.924   7.233
30203WAT     H290852   9.124   7.070   7.297
30204WAT      O90853   6.508   3.619   4.850
30204WAT     H190854   6.548   3.530   4.873
30204WAT     H290855   6.576   3.674   4.802
30205WAT      O90856   9.490   4.695   5.439
30205WAT     H190857   9.520   4.766   5.375
30205WAT     H290858   9.426   4.735   5.505
30206WAT      O90859   1.579   8.061   0.261
30206WAT     H190860   1.660   8.118   0.254
30206WAT     H290861   1.518   8.097   0.332
30207WAT      O90862   0.188   4.194   1.318
30207WAT     H190863   0.247   4.143   1.254
30207WAT     H290864   0.238   4.273   1.353
30208WAT      O90865   0.092   2.928   0.374
30208WAT     H190866   0.142   2.861   0.318
30208WAT     H290867  -0.006   2.908   0.369
30209WAT      O90868   5.221   9.453   8.100
30209WAT     H190869   5.172   9.503   8.028
30209WAT     H290870   5.308   9.421   8.065
30210WAT      O90871   1.741   7.852   5.649
30210WAT     H190872   1.778   7.882   5.562
30210WAT     H290873   1.785   7.901   5.724
30211WAT      O90874   7.605   4.550   1.044
30211WAT     H190875   7.575   4.644   1.030
30211WAT     H290876   7.705   4.545   1.035
30212WAT      O90877   6.308   2.931   9.439
30212WAT     H190878   6.214   2.918   9.472
30212WAT     H290879   6.306   2.952   9.342
30213WAT      O90880   8.935   7.306   3.893
30213WAT     H190881   9.025   7.299   3.851
30213WAT     H290882   8.867   7.325   3.822
30214WAT      O90883   2.949   2.495   3.374
30214WAT     H190884   2.929   2.588   3.405
30214WAT     H290885   3.040   2.492   3.334
30215WAT      O90886   8.796   2.646   7.992
30215WAT     H190887   8.699   2.668   7.995
30215WAT     H290888   8.818   2.600   7.906
30216WAT      O90889   1.526   0.191   3.882
30216WAT     H190890   1.539   0.273   3.826
30216WAT     H290891   1.527   0.217   3.979
30217WAT      O90892   7.342   0.687   0.327
30217WAT     H190893   7.253   0.659   0.364
30217WAT     H290894   7.348   0.658   0.232
30218WAT      O90895   6.665   6.541   2.526
30218WAT     H190896   6.623   6.455   2.499
30218WAT     H290897   6.745   6.523   2.584
30219WAT      O90898   3.326   7.355   4.075
30219WAT     H190899   3.236   7.350   4.032
30219WAT     H290900   3.392   7.391   4.010
30220WAT      O90901   3.795   5.624   5.454
30220WAT     H190902   3.708   5.601   5.499
30220WAT     H290903   3.871   5.586   5.507
30221WAT      O90904   5.429   1.266   9.306
30221WAT     H190905   5.373   1.331   9.356
30221WAT     H290906   5.414   1.174   9.342
30222WAT      O90907   2.965   7.985   2.942
30222WAT     H190908   2.916   8.072   2.954
30222WAT     H290909   3.041   7.998   2.879
30223WAT      O90910   7.870   0.410   5.344
30223WAT     H190911   7.914   0.330   5.302
30223WAT     H290912   7.771   0.397   5.347
30224WAT      O90913   6.831   2.310   6.053
30224WAT     H190914   6.876   2.243   5.993
30224WAT     H290915   6.898   2.376   6.085
30225WAT      O90916   6.303   4.262   3.442
30225WAT     H190917   6.282   4.240   3.537
30225WAT     H290918   6.318   4.178   3.391
30226WAT      O90919   2.469   2.553   5.188
30226WAT     H190920   2.537   2.559   5.260
30226WAT     H290921   2.396   2.620   5.205
30227WAT      O90922   7.876   0.489   7.052
30227WAT     H190923   7.899   0.583   7.029
30227WAT     H290924   7.960   0.437   7.069
30228WAT      O90925   3.207   0.076   3.867
30228WAT     H190926   3.243   0.072   3.774
30228WAT     H290927   3.253   0.148   3.918
30229WAT      O90928   3.513   9.659   0.966
30229WAT     H190929   3.425   9.665   1.012
30229WAT     H290930   3.506   9.594   0.890
30230WAT      O90931   1.579   9.342   9.392
30230WAT     H190932   1.486   9.315   9.369
30230WAT     H290933   1.644   9.287   9.340
30231WAT      O90934   7.440   9.539   1.523
30231WAT     H190935   7.355   9.592   1.528
30231WAT     H290936   7.486   9.556   1.436
30232WAT      O90937   5.079   5.777   7.991
30232WAT     H190938   4.990   5.770   8.036
30232WAT     H290939   5.073   5.842   7.915
30233WAT      O90940   1.261   4.798   2.002
30233WAT     H190941   1.169   4.836   2.013
30233WAT     H290942   1.257   4.717   1.944
30234WAT      O90943   3.298   4.750   8.828
30234WAT     H190944   3.215   4.734   8.773
30234WAT     H290945   3.284   4.828   8.889
30235WAT      O90946   7.009   1.203   6.259
30235WAT     H190947   6.956   1.175   6.180
30235WAT     H290948   7.107   1.196   6.238
30236WAT      O90949   7.544   2.049   0.960
30236WAT     H190950   7.474   2.096   0.907
30236WAT     H290951   7.546   2.087   1.053
30237WAT      O90952   7.345   4.017   9.248
30237WAT     H190953   7.417   4.044   9.184
30237WAT     H290954   7.379   4.024   9.342
30238WAT      O90955   0.369   5.698   0.985
30238WAT     H190956   0.440   5.754   0.942
30238WAT     H290957   0.410   5.639   1.054
30239WAT      O90958   1.229   2.524   3.216
30239WAT     H190959   1.285   2.442   3.205
30239WAT     H290960   1.260   2.593   3.151
30240WAT      O90961   6.948   0.109   6.289
30240WAT     H190962   6.973   0.012   6.290
30240WAT     H290963   7.031   0.165   6.293
30241WAT      O90964   7.656   9.464   3.448
30241WAT     H190965   7.583   9.461   3.515
30241WAT     H290966   7.734   9.516   3.486
30242WAT      O90967   6.327   3.378   7.634
30242WAT     H190968   6.274   3.401   7.715
30242WAT     H290969   6.338   3.459   7.577
30243WAT      O90970   4.920   6.175   5.996
30243WAT     H190971   4.873   6.194   5.910
30243WAT     H290972   5.017   6.164   5.979
30244WAT      O90973   3.172   4.887   0.634
30244WAT     H190974   3.240   4.902   0.562
30244WAT     H290975   3.219   4.864   0.720
30245WAT      O90976   9.798   7.115   0.312
30245WAT     H190977   9.858   7.054   0.364
30245WAT     H290978   9.720   7.142   0.369
30246WAT      O90979   1.548   1.952   4.560
30246WAT     H190980   1.604   1.883   4.605
30246WAT     H290981   1.497   2.003   4.629
30247WAT      O90982   2.117   4.849   2.077
30247WAT     H190983   2.202   4.795   2.079
30247WAT     H290984   2.070   4.839   2.165
30248WAT      O90985   2.477   7.264   4.471
30248WAT     H190986   2.483   7.169   4.503
30248WAT     H290987   2.559   7.314   4.499
30249WAT      O90988   1.763   9.774   0.937
30249WAT     H190989   1.673   9.814   0.920
30249WAT     H290990   1.831   9.847   0.948
30250WAT      O90991   0.881   9.438   6.417
30250WAT     H190992   0.946   9.472   6.349
30250WAT     H290993   0.880   9.338   6.415
30251WAT      O90994   0.939   4.731   8.148
30251WAT     H190995   0.917   4.814   8.198
30251WAT     H290996   1.038   4.714   8.155
30252WAT      O90997   6.219   9.514   9.707
30252WAT     H190998   6.291   9.581   9.727
30252WAT     H290999   6.144   9.560   9.660
30253WAT      O91000   5.334   8.938   6.433
30253WAT     H191001   5.349   8.874   6.358
30253WAT     H291002   5.274   9.012   6.402
30254WAT      O91003   8.315   1.152   9.694
30254WAT     H191004   8.297   1.090   9.617
30254WAT     H291005   8.266   1.121   9.775
30255WAT      O91006   8.732   9.696   6.324
30255WAT     H191007   8.633   9.704   6.332
30255WAT     H291008   8.768   9.773   6.272
30256WAT      O91009   2.108   0.105   2.867
30256WAT     H191010   2.042   0.164   2.913
30256WAT     H291011   2.060   0.044   2.804
30257WAT      O91012   3.167   8.351   3.319
30257WAT     H191013   3.096   8.334   3.387
30257WAT     H291014   3.243   8.287   3.334
30258WAT      O91015   6.217   4.080   7.322
30258WAT     H191016   6.312   4.104   7.303
30258WAT     H291017   6.178   4.146   7.386
30259WAT      O91018   1.228   6.364   2.189
30259WAT     H191019   1.318   6.407   2.198
30259WAT     H291020   1.233   6.289   2.123
30260WAT      O91021   8.795   2.249   1.318
30260WAT     H191022   8.781   2.347   1.304
30260WAT     H291023   8.805   2.204   1.230
30261WAT      O91024   9.140   3.232   6.682
30261WAT     H191025   9.227   3.204   6.724
30261WAT     H291026   9.078   3.264   6.753
30262WAT      O91027   1.943   6.992   4.297
30262WAT     H191028   1.884   7.020   4.373
30262WAT     H291029   1.925   7.050   4.217
30263WAT      O91030   2.689   4.430   7.447
30263WAT     H191031   2.616   4.478   7.494
30263WAT     H291032   2.768   4.420   7.507
30264WAT      O91033   6.814   0.609   8.846
30264WAT     H191034   6.764   0.528   8.877
30264WAT     H291035   6.788   0.687   8.903
30265WAT      O91036   0.236   9.466   9.203
30265WAT     H191037   0.310   9.401   9.187
30265WAT     H291038   0.148   9.418   9.201
30266WAT      O91039   5.829   1.197   4.732
30266WAT     H191040   5.921   1.211   4.770
30266WAT     H291041   5.827   1.229   4.637
30267WAT      O91042   1.569   9.140   0.321
30267WAT     H191043   1.604   9.233   0.329
30267WAT     H291044   1.582   9.093   0.408
30268WAT      O91045   9.320   5.757   4.564
30268WAT     H191046   9.343   5.684   4.628
30268WAT     H291047   9.390   5.828   4.568
30269WAT      O91048   6.416   5.994   3.607
30269WAT     H191049   6.508   6.000   3.570
30269WAT     H291050   6.366   5.920   3.561
30270WAT      O91051   5.909   9.662   8.316
30270WAT     H191052   5.987   9.641   8.258
30270WAT     H291053   5.845   9.585   8.315
30271WAT      O91054   3.133   0.290   0.377
30271WAT     H191055   3.073   0.212   0.360
30271WAT     H291056   3.227   0.267   0.350
30272WAT      O91057   4.134   3.501   5.234
30272WAT     H191058   4.209   3.437   5.247
30272WAT     H291059   4.158   3.589   5.274
30273WAT      O91060   2.471   4.040   1.112
30273WAT     H191061   2.447   3.997   1.198
30273WAT     H291062   2.562   4.080   1.118
30274WAT      O91063   4.451   8.177   4.808
30274WAT     H191064   4.512   8.150   4.882
30274WAT     H291065   4.358   8.146   4.830
30275WAT      O91066   8.232   3.641   6.467
30275WAT     H191067   8.139   3.660   6.435
30275WAT     H291068   8.229   3.570   6.537
30276WAT      O91069   0.774   0.603   5.622
30276WAT     H191070   0.864   0.632   5.590
30276WAT     H291071   0.784   0.553   5.708
30277WAT      O91072   2.261   1.035   1.437
30277WAT     H191073   2.227   1.024   1.530
30277WAT     H291074   2.335   0.969   1.421
30278WAT      O91075   7.602   1.862   2.870
30278WAT     H191076   7.508   1.827   2.871
30278WAT     H291077   7.635   1.870   2.963
30279WAT      O91078   8.352   6.996   3.194
30279WAT     H191079   8.255   7.019   3.186
30279WAT     H291080   8.362   6.896   3.198
30280WAT      O91081   7.475   3.366   0.437
30280WAT     H191082   7.469   3.452   0.387
30280WAT     H291083   7.562   3.321   0.415
30281WAT      O91084   5.136   1.977   4.841
30281WAT     H191085   5.158   2.005   4.935
30281WAT     H291086   5.085   2.051   4.797
30282WAT      O91087   5.142   7.164   3.188
30282WAT     H191088   5.134   7.068   3.163
30282WAT     H291089   5.131   7.174   3.287
30283WAT      O91090   6.763   3.768   3.461
30283WAT     H191091   6.801   3.678   3.480
30283WAT     H291092   6.755   3.781   3.362
30284WAT      O91093   4.331   4.484   1.214
30284WAT     H191094   4.231   4.476   1.207
30284WAT     H291095   4.370   4.495   1.123
30285WAT      O91096   8.355   9.808   6.926
30285WAT     H191097   8.303   9.728   6.896
30285WAT     H291098   8.399   9.788   7.014
30286WAT      O91099   0.609   3.403   7.082
30286WAT     H191100   0.516   3.411   7.119
30286WAT     H291101   0.604   3.382   6.984
30287WAT      O91102   9.367   1.144   5.080
30287WAT     H191103   9.430   1.072   5.050
30287WAT     H291104   9.413   1.203   5.147
30288WAT      O91105   5.958   0.313   4.054
30288WAT     H191106   5.943   0.223   4.015
30288WAT     H291107   5.915   0.317   4.145
30289WAT      O91108   3.361   7.613   4.335
30289WAT     H191109   3.453   7.621   4.371
30289WAT     H291110   3.351   7.525   4.288
30290WAT      O91111   9.386   1.271   0.236
30290WAT     H191112   9.403   1.245   0.141
30290WAT     H291113   9.315   1.341   0.240
30291WAT      O91114   0.725   4.159   9.260
30291WAT     H191115   0.719   4.251   9.299
30291WAT     H291116   0.803   4.154   9.198
30292WAT      O91117   1.961   7.993   1.526
30292WAT     H191118   1.880   8.041   1.495
30292WAT     H291119   1.963   7.992   1.626
30293WAT      O91120   6.200   7.600   2.368
30293WAT     H191121   6.179   7.574   2.463
30293WAT     H291122   6.119   7.585   2.311
30294WAT      O91123   8.765   0.975   6.673
30294WAT     H191124   8.671   0.946   6.692
30294WAT     H291125   8.769   1.075   6.673
30295WAT      O91126   6.962   1.501   4.219
30295WAT     H191127   7.049   1.517   4.264
30295WAT     H291128   6.924   1.588   4.188
30296WAT      O91129   2.273   2.249   5.000
30296WAT     H191130   2.287   2.243   5.099
30296WAT     H291131   2.178   2.276   4.981
30297WAT      O91132   1.485   3.965   7.340
30297WAT     H191133   1.579   3.933   7.347
30297WAT     H291134   1.446   3.976   7.431
30298WAT      O91135   2.478   1.648   1.663
30298WAT     H191136   2.517   1.594   1.588
30298WAT     H291137   2.539   1.725   1.683
30299WAT      O91138   1.800   0.338   1.435
30299WAT     H191139   1.897   0.355   1.454
30299WAT     H291140   1.764   0.410   1.376
30300WAT      O91141   5.078   4.316   9.267
30300WAT     H191142   5.174   4.294   9.282
30300WAT     H291143   5.070   4.401   9.214
30301WAT      O91144   9.215   9.037   7.520
30301WAT     H191145   9.275   9.106   7.478
30301WAT     H291146   9.268   8.980   7.582
30302WAT      O91147   0.047   9.529   7.128
30302WAT     H191148   0.091   9.439   7.118
30302WAT     H291149   0.071   9.586   7.050
30303WAT      O91150   5.677   9.417   7.495
30303WAT     H191151   5.762   9.382   7.534
30303WAT     H291152   5.635   9.483   7.558
30304WAT      O91153   6.389   5.428   5.638
30304WAT     H191154   6.426   5.336   5.648
30304WAT     H291155   6.460   5.495   5.662
30305WAT      O91156   4.282   5.640   8.988
30305WAT     H191157   4.360   5.666   9.044
30305WAT     H291158   4.267   5.541   8.997
30306WAT      O91159   0.444   8.170   5.065
30306WAT     H191160   0.401   8.153   4.976
30306WAT     H291161   0.504   8.250   5.058
30307WAT      O91162   9.623   7.037   5.619
30307WAT     H191163   9.641   7.056   5.522
30307WAT     H291164   9.705   6.996   5.660
30308WAT      O91165   2.323   6.064   7.672
30308WAT     H191166   2.309   6.118   7.589
30308WAT     H291167   2.407   6.011   7.664
30309WAT      O91168   1.512   8.895   8.179
30309WAT     H191169   1.492   8.970   8.116
30309WAT     H291170   1.584   8.837   8.141
30310WAT      O91171   5.006   6.385   1.866
30310WAT     H191172   5.033   6.363   1.959
30310WAT     H291173   4.975   6.302   1.819
30311WAT      O91174   6.065   2.517   0.894
30311WAT     H191175   6.084   2.464   0.811
30311WAT     H291176   6.119   2.601   0.892
30312WAT      O91177   7.358   7.759   7.409
30312WAT     H191178   7.433   7.801   7.461
30312WAT     H291179   7.290   7.829   7.387
30313WAT      O91180   6.435   0.877   3.649
30313WAT     H191181   6.427   0.910   3.743
30313WAT     H291182   6.393   0.943   3.586
30314WAT      O91183   8.210   5.165   3.709
30314WAT     H191184   8.211   5.185   3.611
30314WAT     H291185   8.254   5.077   3.726
30315WAT      O91186   5.033   1.090   3.067
30315WAT     H191187   5.016   1.189   3.065
30315WAT     H291188   5.032   1.058   3.161
30316WAT      O91189   1.406   8.934   7.400
30316WAT     H191190   1.460   9.018   7.413
30316WAT     H291191   1.383   8.895   7.489
30317WAT      O91192   5.095   3.457   1.547
30317WAT     H191193   5.157   3.427   1.475
30317WAT     H291194   5.002   3.466   1.510
30318WAT      O91195   2.462   8.124   6.396
30318WAT     H191196   2.395   8.086   6.333
30318WAT     H291197   2.548   8.074   6.387
30319WAT      O91198   5.920   0.244   4.933
30319WAT     H191199   5.909   0.284   4.842
30319WAT     H291200   5.984   0.167   4.928
30320WAT      O91201   5.478   6.772   8.303
30320WAT     H191202   5.535   6.747   8.225
30320WAT     H291203   5.398   6.712   8.306
30321WAT      O91204   6.725   3.136   9.851
30321WAT     H191205   6.749   3.233   9.845
30321WAT     H291206   6.655   3.115   9.783
30322WAT      O91207   1.680   2.606   1.029
30322WAT     H191208   1.630   2.690   1.051
30322WAT     H291209   1.770   2.608   1.073
30323WAT      O91210   1.877   4.103   2.293
30323WAT     H191211   1.973   4.081   2.309
30323WAT     H291212   1.869   4.165   2.215
30324WAT      O91213   2.899   8.144   9.312
30324WAT     H191214   2.909   8.059   9.364
30324WAT     H291215   2.971   8.208   9.338
30325WAT      O91216   5.157   8.045   7.086
30325WAT     H191217   5.174   7.949   7.110
30325WAT     H291218   5.174   8.058   6.988
30326WAT      O91219   4.793   5.401   2.463
30326WAT     H191220   4.849   5.454   2.527
30326WAT     H291221   4.853   5.352   2.400
30327WAT      O91222   1.273   2.516   7.892
30327WAT     H191223   1.316   2.578   7.958
30327WAT     H291224   1.259   2.563   7.805
30328WAT      O91225   7.153   8.024   2.708
30328WAT     H191226   7.241   8.065   2.688
30328WAT     H291227   7.090   8.094   2.743
30329WAT      O91228   7.917   7.683   4.106
30329WAT     H191229   7.837   7.647   4.057
30329WAT     H291230   7.890   7.761   4.161
30330WAT      O91231   7.063   0.607   3.484
30330WAT     H191232   7.097   0.601   3.390
30330WAT     H291233   7.052   0.703   3.510
30331WAT      O91234   1.748   3.755   1.140
30331WAT     H191235   1.680   3.684   1.159
30331WAT     H291236   1.717   3.812   1.064
30332WAT      O91237   9.406   1.408   4.568
30332WAT     H191238   9.343   1.462   4.625
30332WAT     H291239   9.478   1.369   4.626
30333WAT      O91240   7.791   8.965   4.193
30333WAT     H191241   7.818   8.914   4.112
30333WAT     H291242   7.694   8.950   4.212
30334WAT      O91243   2.937   0.897   3.385
30334WAT     H191244   2.992   0.817   3.359
30334WAT     H291245   2.847   0.867   3.416
30335WAT      O91246   4.572   1.692   5.594
30335WAT     H191247   4.612   1.739   5.672
30335WAT     H291248   4.587   1.747   5.511
30336WAT      O91249   5.830   1.628   1.371
30336WAT     H191250   5.788   1.539   1.391
30336WAT     H291251   5.922   1.613   1.335
30337WAT      O91252   7.883   3.728   3.118
30337WAT     H191253   7.854   3.817   3.082
30337WAT     H291254   7.953   3.689   3.058
30338WAT      O91255   6.361   0.208   1.067
30338WAT     H191256   6.445   0.261   1.077
30338WAT     H291257   6.289   0.247   1.125
30339WAT      O91258   6.104   1.034   7.545
30339WAT     H191259   6.159   0.984   7.478
30339WAT     H291260   6.114   0.991   7.635
30340WAT      O91261   0.987   1.942   8.278
30340WAT     H191262   0.936   1.934   8.192
30340WAT     H291263   1.034   1.856   8.297
30341WAT      O91264   9.738   7.972   1.263
30341WAT     H191265   9.817   8.009   1.213
30341WAT     H291266   9.719   8.029   1.343
30342WAT      O91267   9.843   2.345   8.054
30342WAT     H191268   9.854   2.418   8.122
30342WAT     H291269   9.833   2.386   7.964
30343WAT      O91270   3.275   8.814   0.873
30343WAT     H191271   3.241   8.832   0.780
30343WAT     H291272   3.338   8.887   0.900
30344WAT      O91273   4.142   1.983   7.282
30344WAT     H191274   4.078   2.056   7.308
30344WAT     H291275   4.152   1.983   7.182
30345WAT      O91276   2.597   3.593   8.973
30345WAT     H191277   2.640   3.677   8.940
30345WAT     H291278   2.588   3.528   8.898
30346WAT      O91279   4.807   5.552   4.953
30346WAT     H191280   4.754   5.635   4.970
30346WAT     H291281   4.780   5.481   5.018
30347WAT      O91282   5.147   4.316   0.557
30347WAT     H191283   5.238   4.324   0.598
30347WAT     H291284   5.119   4.406   0.521
30348WAT      O91285   8.244   6.517   3.463
30348WAT     H191286   8.328   6.571   3.453
30348WAT     H291287   8.261   6.423   3.433
30349WAT      O91288   9.107   8.495   5.229
30349WAT     H191289   9.030   8.557   5.219
30349WAT     H291290   9.136   8.492   5.325
30350WAT      O91291   4.456   7.038   2.028
30350WAT     H191292   4.492   7.121   1.985
30350WAT     H291293   4.380   7.002   1.973
30351WAT      O91294   9.651   0.701   6.822
30351WAT     H191295   9.705   0.654   6.752
30351WAT     H291296   9.708   0.771   6.866
30352WAT      O91297   6.789   5.585   2.882
30352WAT     H191298   6.746   5.524   2.815
30352WAT     H291299   6.824   5.531   2.958
30353WAT      O91300   4.455   6.627   6.076
30353WAT     H191301   4.509   6.638   5.993
30353WAT     H291302   4.426   6.532   6.084
30354WAT      O91303   8.442   2.664   3.799
30354WAT     H191304   8.393   2.751   3.801
30354WAT     H291305   8.471   2.644   3.706
30355WAT      O91306   1.568   1.193   5.038
30355WAT     H191307   1.593   1.289   5.024
30355WAT     H291308   1.639   1.135   4.998
30356WAT      O91309   3.328   1.693   0.380
30356WAT     H191310   3.317   1.792   0.374
30356WAT     H291311   3.319   1.653   0.289
30357WAT      O91312   1.873   8.694   6.789
30357WAT     H191313   1.801   8.694   6.719
30357WAT     H291314   1.919   8.782   6.789
30358WAT      O91315   8.998   9.310   6.332
30358WAT     H191316   8.976   9.279   6.240
30358WAT     H291317   8.998   9.410   6.335
30359WAT      O91318   1.768   9.410   6.166
30359WAT     H191319   1.809   9.423   6.076
30359WAT     H291320   1.775   9.313   6.192
30360WAT      O91321   9.710   2.719   4.599
30360WAT     H191322   9.621   2.764   4.593
30360WAT     H291323   9.702   2.626   4.562
30361WAT      O91324   0.658   0.769   6.130
30361WAT     H191325   0.581   0.741   6.073
30361WAT     H291326   0.624   0.800   6.219
30362WAT      O91327   0.115   0.884   8.336
30362WAT     H191328   0.097   0.919   8.428
30362WAT     H291329   0.182   0.942   8.291
30363WAT      O91330   5.256   0.666   0.667
30363WAT     H191331   5.168   0.672   0.715
30363WAT     H291332   5.320   0.731   0.707
30364WAT      O91333   4.308   3.138   8.123
30364WAT     H191334   4.405   3.115   8.113
30364WAT     H291335   4.273   3.173   8.037
30365WAT      O91336   6.519   4.486   1.519
30365WAT     H191337   6.602   4.500   1.572
30365WAT     H291338   6.479   4.398   1.542
30366WAT      O91339   4.132   8.489   6.186
30366WAT     H191340   4.189   8.571   6.196
30366WAT     H291341   4.063   8.488   6.258
30367WAT      O91342   8.962   2.708   3.054
30367WAT     H191343   8.994   2.786   3.109
30367WAT     H291344   8.951   2.737   2.959
30368WAT      O91345   8.492   6.690   1.585
30368WAT     H191346   8.519   6.780   1.620
30368WAT     H291347   8.508   6.621   1.655
30369WAT      O91348   4.675   0.737   0.199
30369WAT     H191349   4.769   0.707   0.182
30369WAT     H291350   4.676   0.819   0.257
30370WAT      O91351   2.842   8.874   1.022
30370WAT     H191352   2.851   8.924   0.936
30370WAT     H291353   2.772   8.803   1.011
30371WAT      O91354   8.315   9.398   9.284
30371WAT     H191355   8.366   9.432   9.363
30371WAT     H291356   8.228   9.361   9.314
30372WAT      O91357   6.845   8.384   5.449
30372WAT     H191358   6.811   8.290   5.443
30372WAT     H291359   6.945   8.383   5.458
30373WAT      O91360   0.083   4.535   2.363
30373WAT     H191361   0.076   4.549   2.462
30373WAT     H291362  -0.009   4.533   2.324
30374WAT      O91363   4.588   0.455   7.295
30374WAT     H191364   4.607   0.359   7.273
30374WAT     H291365   4.493   0.465   7.322
30375WAT      O91366   1.615   1.724   4.220
30375WAT     H191367   1.518   1.710   4.240
30375WAT     H291368   1.669   1.712   4.303
30376WAT      O91369   2.711   6.698   0.537
30376WAT     H191370   2.771   6.743   0.604
30376WAT     H291371   2.656   6.766   0.490
30377WAT      O91372   7.088   6.948   7.642
30377WAT     H191373   6.995   6.986   7.648
30377WAT     H291374   7.141   7.001   7.576
30378WAT      O91375   6.049   2.346   3.138
30378WAT     H191376   5.985   2.283   3.181
30378WAT     H291377   6.143   2.319   3.159
30379WAT      O91378   3.133   0.322   3.692
30379WAT     H191379   3.118   0.339   3.789
30379WAT     H291380   3.121   0.407   3.641
30380WAT      O91381   6.685   2.627   2.893
30380WAT     H191382   6.693   2.692   2.969
30380WAT     H291383   6.727   2.666   2.811
30381WAT      O91384   9.466   8.912   2.601
30381WAT     H191385   9.509   8.991   2.643
30381WAT     H291386   9.460   8.838   2.668
30382WAT      O91387   4.513   4.804   8.945
30382WAT     H191388   4.431   4.770   8.990
30382WAT     H291389   4.531   4.748   8.864
30383WAT      O91390   9.136   2.312   6.137
30383WAT     H191391   9.211   2.247   6.144
30383WAT     H291392   9.053   2.271   6.175
30384WAT      O91393   2.603   3.393   2.949
30384WAT     H191394   2.605   3.493   2.954
30384WAT     H291395   2.539   3.357   3.017
30385WAT      O91396   7.137   8.533   0.051
30385WAT     H191397   7.093   8.504   0.136
30385WAT     H291398   7.071   8.527  -0.024
30386WAT      O91399   0.936   4.485   7.715
30386WAT     H191400   0.867   4.432   7.764
30386WAT     H291401   1.024   4.475   7.762
30387WAT      O91402   5.579   8.354   0.788
30387WAT     H191403   5.653   8.401   0.836
30387WAT     H291404   5.591   8.255   0.798
30388WAT      O91405   6.719   2.674   3.846
30388WAT     H191406   6.652   2.747   3.835
30388WAT     H291407   6.706   2.606   3.774
30389WAT      O91408   9.666   5.912   5.260
30389WAT     H191409   9.632   5.947   5.347
30389WAT     H291410   9.740   5.972   5.228
30390WAT      O91411   4.218   8.439   6.802
30390WAT     H191412   4.314   8.416   6.813
30390WAT     H291413   4.210   8.532   6.767
30391WAT      O91414   3.635   3.597   8.534
30391WAT     H191415   3.668   3.567   8.445
30391WAT     H291416   3.579   3.679   8.523
30392WAT      O91417   7.105   0.603   3.220
30392WAT     H191418   7.040   0.569   3.153
30392WAT     H291419   7.179   0.652   3.173
30393WAT      O91420   8.788   6.824   2.351
30393WAT     H191421   8.740   6.870   2.426
30393WAT     H291422   8.734   6.745   2.321
30394WAT      O91423   6.037   9.479   8.139
30394WAT     H191424   6.042   9.528   8.051
30394WAT     H291425   6.094   9.398   8.135
30395WAT      O91426   4.598   3.028   5.513
30395WAT     H191427   4.544   3.028   5.598
30395WAT     H291428   4.635   3.120   5.498
30396WAT      O91429   9.530   2.128   1.854
30396WAT     H191430   9.553   2.210   1.801
30396WAT     H291431   9.528   2.152   1.952
30397WAT      O91432   9.190   3.650   3.763
30397WAT     H191433   9.257   3.668   3.690
30397WAT     H291434   9.233   3.666   3.852
30398WAT      O91435   3.193   7.482   2.538
30398WAT     H191436   3.129   7.414   2.574
30398WAT     H291437   3.161   7.515   2.450
30399WAT      O91438   3.121   7.115   1.386
30399WAT     H191439   3.065   7.034   1.406
30399WAT     H291440   3.134   7.169   1.469
30400WAT      O91441   1.993   4.772   9.790
30400WAT     H191442   1.939   4.818   9.861
30400WAT     H291443   1.960   4.799   9.700
30401WAT      O91444   1.606   7.467   9.759
30401WAT     H191445   1.681   7.410   9.792
30401WAT     H291446   1.555   7.503   9.837
30402WAT      O91447   6.102   9.421   6.568
30402WAT     H191448   6.032   9.350   6.556
30402WAT     H291449   6.191   9.386   6.539
30403WAT      O91450   2.035   1.354   8.398
30403WAT     H191451   1.942   1.374   8.429
30403WAT     H291452   2.097   1.355   8.476
30404WAT      O91453   4.776   0.459   4.436
30404WAT     H191454   4.711   0.518   4.485
30404WAT     H291455   4.810   0.507   4.355
30405WAT      O91456   9.150   9.022   1.697
30405WAT     H191457   9.145   8.956   1.772
30405WAT     H291458   9.230   9.081   1.711
30406WAT      O91459   5.458   6.945   6.020
30406WAT     H191460   5.522   6.943   6.097
30406WAT     H291461   5.484   7.017   5.956
30407WAT      O91462   8.152   4.448   9.350
30407WAT     H191463   8.053   4.464   9.343
30407WAT     H291464   8.178   4.371   9.293
30408WAT      O91465   9.741   4.777   1.220
30408WAT     H191466   9.762   4.828   1.303
30408WAT     H291467   9.774   4.683   1.229
30409WAT      O91468   1.143   4.890   1.331
30409WAT     H191469   1.081   4.968   1.324
30409WAT     H291470   1.114   4.833   1.408
30410WAT      O91471   6.629   7.552   2.443
30410WAT     H191472   6.638   7.476   2.507
30410WAT     H291473   6.571   7.525   2.366
30411WAT      O91474   8.742   1.995   5.617
30411WAT     H191475   8.761   1.915   5.561
30411WAT     H291476   8.687   1.967   5.696
30412WAT      O91477   0.477   8.492   1.236
30412WAT     H191478   0.528   8.428   1.294
30412WAT     H291479   0.457   8.575   1.288
30413WAT      O91480   3.193   4.364   6.200
30413WAT     H191481   3.120   4.399   6.142
30413WAT     H291482   3.221   4.435   6.265
30414WAT      O91483   1.574   1.554   2.374
30414WAT     H191484   1.620   1.624   2.320
30414WAT     H291485   1.579   1.466   2.327
30415WAT      O91486   0.655   4.436   9.021
30415WAT     H191487   0.744   4.399   9.047
30415WAT     H291488   0.638   4.417   8.924
30416WAT      O91489   1.710   0.388   9.297
30416WAT     H191490   1.761   0.441   9.365
30416WAT     H291491   1.669   0.308   9.341
30417WAT      O91492   7.837   4.806   7.185
30417WAT     H191493   7.887   4.734   7.138
30417WAT     H291494   7.773   4.766   7.250
30418WAT      O91495   5.999   1.340   1.919
30418WAT     H191496   6.016   1.432   1.883
30418WAT     H291497   6.030   1.272   1.851
30419WAT      O91498   0.799   3.298   3.199
30419WAT     H191499   0.885   3.248   3.210
30419WAT     H291500   0.727   3.234   3.172
30420WAT      O91501   0.079   1.481   6.646
30420WAT     H191502  -0.021   1.475   6.640
30420WAT     H291503   0.114   1.529   6.566
30421WAT      O91504   5.400   6.110   0.858
30421WAT     H191505   5.333   6.048   0.817
30421WAT     H291506   5.480   6.118   0.798
30422WAT      O91507   8.445   6.360   8.040
30422WAT     H191508   8.464   6.316   7.953
30422WAT     H291509   8.528   6.403   8.076
30423WAT      O91510   2.678   0.592   1.276
30423WAT     H191511   2.666   0.518   1.342
30423WAT     H291512   2.707   0.675   1.324
30424WAT      O91513   9.281   6.172   9.073
30424WAT     H191514   9.285   6.129   8.983
30424WAT     H291515   9.258   6.103   9.142
30425WAT      O91516   5.763   8.451   3.397
30425WAT     H191517   5.709   8.521   3.443
30425WAT     H291518   5.835   8.418   3.458
30426WAT      O91519   3.659   7.361   4.894
30426WAT     H191520   3.712   7.409   4.964
30426WAT     H291521   3.628   7.426   4.825
30427WAT      O91522   0.003   6.450   4.025
30427WAT     H191523  -0.008   6.538   4.073
30427WAT     H291524   0.099   6.437   4.000
30428WAT      O91525   4.256   5.106   1.477
30428WAT     H191526   4.243   5.191   1.528
30428WAT     H291527   4.281   5.126   1.382
30429WAT      O91528   1.549   1.186   5.869
30429WAT     H191529   1.524   1.115   5.803
30429WAT     H291530   1.598   1.259   5.822
30430WAT      O91531   0.984   4.681   8.815
30430WAT     H191532   1.019   4.740   8.742
30430WAT     H291533   0.990   4.730   8.902
30431WAT      O91534   0.935   5.904   4.963
30431WAT     H191535   0.907   5.843   4.888
30431WAT     H291536   0.921   5.999   4.935
30432WAT      O91537   7.437   6.095   1.134
30432WAT     H191538   7.532   6.073   1.109
30432WAT     H291539   7.378   6.019   1.109
30433WAT      O91540   5.001   9.413   5.593
30433WAT     H191541   4.962   9.396   5.684
30433WAT     H291542   5.097   9.439   5.602
30434WAT      O91543   8.489   8.330   1.667
30434WAT     H191544   8.554   8.315   1.741
30434WAT     H291545   8.403   8.283   1.688
30435WAT      O91546   5.017   3.836   0.608
30435WAT     H191547   5.029   3.930   0.638
30435WAT     H291548   4.966   3.834   0.522
30436WAT      O91549   7.507   0.281   3.940
30436WAT     H191550   7.537   0.314   3.850
30436WAT     H291551   7.583   0.288   4.005
30437WAT      O91552   5.294   2.903   6.830
30437WAT     H191553   5.328   2.816   6.795
30437WAT     H291554   5.195   2.899   6.840
30438WAT      O91555   9.188   5.220   5.725
30438WAT     H191556   9.259   5.215   5.655
30438WAT     H291557   9.141   5.132   5.731
30439WAT      O91558   6.601   4.371   9.129
30439WAT     H191559   6.577   4.467   9.142
30439WAT     H291560   6.659   4.341   9.205
30440WAT      O91561   0.811   2.167   9.427
30440WAT     H191562   0.871   2.201   9.499
30440WAT     H291563   0.779   2.243   9.371
30441WAT      O91564   6.857   3.303   9.200
30441WAT     H191565   6.831   3.295   9.104
30441WAT     H291566   6.850   3.213   9.244
30442WAT      O91567   8.958   6.721   2.088
30442WAT     H191568   9.005   6.765   2.012
30442WAT     H291569   8.981   6.769   2.173
30443WAT      O91570   8.093   6.168   1.104
30443WAT     H191571   8.166   6.182   1.037
30443WAT     H291572   8.030   6.098   1.071
30444WAT      O91573   3.529   6.208   9.203
30444WAT     H191574   3.469   6.284   9.176
30444WAT     H291575   3.598   6.193   9.132
30445WAT      O91576   3.423   9.368   4.811
30445WAT     H191577   3.327   9.340   4.810
30445WAT     H291578   3.443   9.423   4.730
30446WAT      O91579   0.312   5.008   2.561
30446WAT     H191580   0.326   5.095   2.608
30446WAT     H291581   0.217   4.979   2.571
30447WAT      O91582   4.888   7.211   6.370
30447WAT     H191583   4.936   7.125   6.387
30447WAT     H291584   4.801   7.192   6.323
30448WAT      O91585   2.859   4.324   2.384
30448WAT     H191586   2.937   4.355   2.438
30448WAT     H291587   2.853   4.379   2.301
30449WAT      O91588   1.000   4.109   0.432
30449WAT     H191589   0.901   4.124   0.431
30449WAT     H291590   1.021   4.034   0.494
30450WAT      O91591   7.886   3.111   5.450
30450WAT     H191592   7.818   3.084   5.518
30450WAT     H291593   7.960   3.162   5.495
30451WAT      O91594   9.025   4.467   0.848
30451WAT     H191595   8.945   4.431   0.799
30451WAT     H291596   9.108   4.447   0.796
30452WAT      O91597   3.964   2.511   5.294
30452WAT     H191598   3.907   2.531   5.214
30452WAT     H291599   3.982   2.413   5.298
30453WAT      O91600   7.127   0.455   1.028
30453WAT     H191601   7.189   0.527   0.996
30453WAT     H291602   7.032   0.485   1.016
30454WAT      O91603   9.521   5.080   3.092
30454WAT     H191604   9.468   5.040   3.018
30454WAT     H291605   9.583   5.011   3.130
30455WAT      O91606   2.316   1.314   7.495
30455WAT     H191607   2.331   1.221   7.463
30455WAT     H291608   2.403   1.354   7.525
30456WAT      O91609   3.626   3.269   7.450
30456WAT     H191610   3.548   3.331   7.445
30456WAT     H291611   3.601   3.180   7.411
30457WAT      O91612   3.726   5.430   5.885
30457WAT     H191613   3.740   5.517   5.838
30457WAT     H291614   3.658   5.442   5.958
30458WAT      O91615   4.909   8.466   4.169
30458WAT     H191616   4.950   8.478   4.260
30458WAT     H291617   4.817   8.427   4.179
30459WAT      O91618   9.104   4.225   9.427
30459WAT     H191619   9.091   4.299   9.361
30459WAT     H291620   9.054   4.144   9.397
30460WAT      O91621   7.146   3.555   6.162
30460WAT     H191622   7.194   3.507   6.235
30460WAT     H291623   7.049   3.533   6.166
30461WAT      O91624   5.135   1.652   9.503
30461WAT     H191625   5.136   1.571   9.561
30461WAT     H291626   5.131   1.625   9.407
30462WAT      O91627   5.162   1.552   7.187
30462WAT     H191628   5.195   1.464   7.220
30462WAT     H291629   5.077   1.539   7.136
30463WAT      O91630   9.099   6.407   6.055
30463WAT     H191631   9.073   6.330   5.997
30463WAT     H291632   9.026   6.424   6.122
30464WAT      O91633   8.414   0.005   7.451
30464WAT     H191634   8.447  -0.020   7.542
30464WAT     H291635   8.330   0.057   7.459
30465WAT      O91636   1.296   6.123   0.023
30465WAT     H191637   1.332   6.170   0.104
30465WAT     H291638   1.278   6.190  -0.049
30466WAT      O91639   2.559   7.321   0.499
30466WAT     H191640   2.611   7.299   0.582
30466WAT     H291641   2.570   7.419   0.478
30467WAT      O91642   0.829   5.150   4.001
30467WAT     H191643   0.908   5.089   4.005
30467WAT     H291644   0.805   5.179   4.094
30468WAT      O91645   3.166   6.163   5.932
30468WAT     H191646   3.073   6.151   5.899
30468WAT     H291647   3.227   6.180   5.854
30469WAT      O91648   5.509   2.999   7.101
30469WAT     H191649   5.428   3.039   7.056
30469WAT     H291650   5.589   3.056   7.081
30470WAT      O91651   0.197   1.135   3.431
30470WAT     H191652   0.107   1.095   3.447
30470WAT     H291653   0.257   1.112   3.508
30471WAT      O91654   5.779   2.583   3.722
30471WAT     H191655   5.742   2.652   3.660
30471WAT     H291656   5.869   2.612   3.753
30472WAT      O91657   9.200   2.241   2.087
30472WAT     H191658   9.275   2.175   2.093
30472WAT     H291659   9.118   2.195   2.054
30473WAT      O91660   9.303   0.133   6.192
30473WAT     H191661   9.295   0.212   6.252
30473WAT     H291662   9.353   0.159   6.110
30474WAT      O91663   3.036   2.146   2.339
30474WAT     H191664   3.073   2.118   2.428
30474WAT     H291665   2.968   2.218   2.353
30475WAT      O91666   4.379   0.210   3.494
30475WAT     H191667   4.464   0.156   3.496
30475WAT     H291668   4.390   0.287   3.430
30476WAT      O91669   3.824   4.484   4.878
30476WAT     H191670   3.825   4.501   4.976
30476WAT     H291671   3.804   4.387   4.861
30477WAT      O91672   7.069   4.264   1.620
30477WAT     H191673   7.138   4.194   1.636
30477WAT     H291674   7.112   4.346   1.582
30478WAT      O91675   7.186   2.393   0.050
30478WAT     H191676   7.280   2.379   0.018
30478WAT     H291677   7.172   2.346   0.137
30479WAT      O91678   4.268   5.506   2.021
30479WAT     H191679   4.348   5.553   1.985
30479WAT     H291680   4.213   5.570   2.075
30480WAT      O91681   4.998   5.831   1.888
30480WAT     H191682   4.964   5.737   1.880
30480WAT     H291683   4.992   5.876   1.799
30481WAT      O91684   4.846   2.429   4.051
30481WAT     H191685   4.915   2.385   3.993
30481WAT     H291686   4.755   2.397   4.023
30482WAT      O91687   5.314   7.810   7.407
30482WAT     H191688   5.347   7.890   7.457
30482WAT     H291689   5.389   7.745   7.394
30483WAT      O91690   1.493   2.045   2.319
30483WAT     H191691   1.453   2.023   2.230
30483WAT     H291692   1.510   2.144   2.324
30484WAT      O91693   6.702   4.835   6.694
30484WAT     H191694   6.625   4.772   6.699
30484WAT     H291695   6.668   4.929   6.681
30485WAT      O91696   2.981   9.502   9.665
30485WAT     H191697   3.008   9.598   9.677
30485WAT     H291698   2.883   9.497   9.645
30486WAT      O91699   7.752   8.462   5.271
30486WAT     H191700   7.755   8.541   5.210
30486WAT     H291701   7.820   8.473   5.343
30487WAT      O91702   9.703   9.686   6.599
30487WAT     H191703   9.726   9.634   6.681
30487WAT     H291704   9.642   9.632   6.541
30488WAT      O91705   7.942   5.386   4.773
30488WAT     H191706   8.007   5.352   4.842
30488WAT     H291707   7.991   5.408   4.689
30489WAT      O91708   7.277   4.772   8.292
30489WAT     H191709   7.208   4.700   8.300
30489WAT     H291710   7.275   4.829   8.374
30490WAT      O91711   5.481   6.481   2.032
30490WAT     H191712   5.517   6.567   1.994
30490WAT     H291713   5.419   6.439   1.966
30491WAT      O91714   9.822   3.584   0.509
30491WAT     H191715   9.873   3.648   0.566
30491WAT     H291716   9.727   3.615   0.501
30492WAT      O91717   3.743   8.302   5.103
30492WAT     H191718   3.655   8.341   5.132
30492WAT     H291719   3.728   8.209   5.069
30493WAT      O91720   1.600   8.955   0.137
30493WAT     H191721   1.579   9.006   0.053
30493WAT     H291722   1.585   9.013   0.217
30494WAT      O91723   3.382   4.829   3.303
30494WAT     H191724   3.442   4.750   3.292
30494WAT     H291725   3.424   4.893   3.367
30495WAT      O91726   5.002   4.112   0.622
30495WAT     H191727   4.920   4.160   0.654
30495WAT     H291728   5.077   4.177   0.612
30496WAT      O91729   0.677   5.551   3.382
30496WAT     H191730   0.671   5.485   3.457
30496WAT     H291731   0.770   5.553   3.346
30497WAT      O91732   5.911   7.103   3.976
30497WAT     H191733   6.003   7.100   4.013
30497WAT     H291734   5.866   7.188   4.005
30498WAT      O91735   6.218   1.223   4.152
30498WAT     H191736   6.251   1.146   4.207
30498WAT     H291737   6.150   1.275   4.205
30499WAT      O91738   7.808   8.211   7.482
30499WAT     H191739   7.812   8.165   7.394
30499WAT     H291740   7.786   8.145   7.554
30500WAT      O91741   8.848   4.566   4.635
30500WAT     H191742   8.918   4.589   4.702
30500WAT     H291743   8.773   4.518   4.679
30501WAT      O91744   7.330   3.359   4.147
30501WAT     H191745   7.321   3.459   4.145
30501WAT     H291746   7.314   3.326   4.240
30502WAT      O91747   4.713   0.340   3.742
30502WAT     H191748   4.686   0.420   3.795
30502WAT     H291749   4.768   0.369   3.663
30503WAT      O91750   9.158   3.858   8.257
30503WAT     H191751   9.186   3.910   8.338
30503WAT     H291752   9.227   3.789   8.236
30504WAT      O91753   4.923   4.726   7.723
30504WAT     H191754   5.003   4.747   7.666
30504WAT     H291755   4.929   4.778   7.808
30505WAT      O91756   0.499   8.228   1.138
30505WAT     H191757   0.455   8.317   1.147
30505WAT     H291758   0.461   8.166   1.207
30506WAT      O91759   7.909   9.596   2.891
30506WAT     H191760   7.951   9.557   2.972
30506WAT     H291761   7.824   9.547   2.871
30507WAT      O91762   9.549   9.581   8.716
30507WAT     H191763   9.525   9.678   8.724
30507WAT     H291764   9.502   9.541   8.637
30508WAT      O91765   4.507   0.334   0.949
30508WAT     H191766   4.606   0.320   0.941
30508WAT     H291767   4.488   0.431   0.960
30509WAT      O91768   2.765   2.591   7.735
30509WAT     H191769   2.746   2.592   7.833
30509WAT     H291770   2.842   2.652   7.715
30510WAT      O91771   7.657   7.735   9.890
30510WAT     H191772   7.585   7.793   9.851
30510WAT     H291773   7.746   7.767   9.858
30511WAT      O91774   0.476   1.276   5.858
30511WAT     H191775   0.497   1.371   5.878
30511WAT     H291776   0.438   1.232   5.940
30512WAT      O91777   6.947   9.318   0.227
30512WAT     H191778   6.871   9.331   0.164
30512WAT     H291779   6.937   9.381   0.304
30513WAT      O91780   0.129   0.760   5.929
30513WAT     H191781   0.154   0.801   6.017
30513WAT     H291782   0.082   0.673   5.945
30514WAT      O91783   6.632   0.620   1.130
30514WAT     H191784   6.630   0.711   1.173
30514WAT     H291785   6.584   0.625   1.042
30515WAT      O91786   2.962   3.712   4.330
30515WAT     H191787   2.982   3.737   4.425
30515WAT     H291788   2.866   3.732   4.311
30516WAT      O91789   7.474   2.584   9.256
30516WAT     H191790   7.441   2.490   9.242
30516WAT     H291791   7.572   2.583   9.276
30517WAT      O91792   8.692   7.097   6.358
30517WAT     H191793   8.695   7.145   6.270
30517WAT     H291794   8.627   7.142   6.418
30518WAT      O91795   3.500   7.526   3.929
30518WAT     H191796   3.513   7.474   3.844
30518WAT     H291797   3.416   7.581   3.922
30519WAT      O91798   5.993   4.198   2.587
30519WAT     H191799   6.064   4.237   2.645
30519WAT     H291800   6.003   4.098   2.584
30520WAT      O91801   5.842   5.220   1.244
30520WAT     H191802   5.934   5.245   1.212
30520WAT     H291803   5.798   5.161   1.177
30521WAT      O91804   3.042   4.068   4.393
30521WAT     H191805   3.131   4.102   4.422
30521WAT     H291806   3.020   3.985   4.445
30522WAT      O91807   7.583   1.028   7.608
30522WAT     H191808   7.559   0.986   7.521
30522WAT     H291809   7.679   1.007   7.629
30523WAT      O91810   5.164   9.464   7.053
30523WAT     H191811   5.178   9.384   7.112
30523WAT     H291812   5.091   9.521   7.091
30524WAT      O91813   4.264   3.223   3.022
30524WAT     H191814   4.216   3.207   3.108
30524WAT     H291815   4.352   3.176   3.024
30525WAT      O91816   4.358   0.923   9.883
30525WAT     H191817   4.457   0.906   9.883
30525WAT     H291818   4.325   0.930   9.789
30526WAT      O91819   6.366   6.942   3.484
30526WAT     H191820   6.368   7.042   3.483
30526WAT     H291821   6.272   6.911   3.497
30527WAT      O91822   1.843   9.150   0.933
30527WAT     H191823   1.746   9.141   0.909
30527WAT     H291824   1.892   9.194   0.857
30528WAT      O91825   3.035   2.954   7.951
30528WAT     H191826   3.045   2.986   7.857
30528WAT     H291827   3.065   3.025   8.015
30529WAT      O91828   4.544   1.435   1.364
30529WAT     H191829   4.478   1.378   1.315
30529WAT     H291830   4.592   1.493   1.299
30530WAT      O91831   5.270   7.527   7.972
30530WAT     H191832   5.292   7.591   8.046
30530WAT     H291833   5.202   7.568   7.912
30531WAT      O91834   3.185   5.570   1.334
30531WAT     H191835   3.276   5.550   1.297
30531WAT     H291836   3.157   5.495   1.394
30532WAT      O91837   2.393   4.866   1.807
30532WAT     H191838   2.491   4.846   1.806
30532WAT     H291839   2.377   4.951   1.857
30533WAT      O91840   6.664   6.459   9.674
30533WAT     H191841   6.667   6.402   9.591
30533WAT     H291842   6.635   6.403   9.751
30534WAT      O91843   3.439   5.854   8.058
30534WAT     H191844   3.528   5.810   8.042
30534WAT     H291845   3.417   5.914   7.981
30535WAT      O91846   7.369   0.318   1.900
30535WAT     H191847   7.393   0.347   1.992
30535WAT     H291848   7.276   0.347   1.878
30536WAT      O91849   0.734   0.348   1.080
30536WAT     H191850   0.743   0.283   1.004
30536WAT     H291851   0.824   0.372   1.114
30537WAT      O91852   2.835   7.807   2.056
30537WAT     H191853   2.825   7.847   1.965
30537WAT     H291854   2.745   7.785   2.093
30538WAT      O91855   4.328   6.039   7.579
30538WAT     H191856   4.231   6.043   7.553
30538WAT     H291857   4.353   6.124   7.625
30539WAT      O91858   5.902   2.133   3.285
30539WAT     H191859   5.877   2.208   3.346
30539WAT     H291860   5.988   2.092   3.315
30540WAT      O91861   1.025   4.004   3.082
30540WAT     H191862   1.037   3.970   3.175
30540WAT     H291863   0.928   3.995   3.055
30541WAT      O91864   0.763   7.740   1.908
30541WAT     H191865   0.755   7.677   1.986
30541WAT     H291866   0.671   7.770   1.882
30542WAT      O91867   0.061   9.729   0.079
30542WAT     H191868   0.136   9.664   0.092
30542WAT     H291869  -0.024   9.690   0.114
30543WAT      O91870   5.082   4.207   2.964
30543WAT     H191871   5.142   4.154   3.024
30543WAT     H291872   5.045   4.147   2.893
30544WAT      O91873   4.024   0.945   1.599
30544WAT     H191874   4.024   0.941   1.499
30544WAT     H291875   3.956   0.880   1.634
30545WAT      O91876   5.327   2.908   5.914
30545WAT     H191877   5.392   2.832   5.916
30545WAT     H291878   5.340   2.962   5.831
30546WAT      O91879   0.934   0.996   7.330
30546WAT     H191880   0.993   0.915   7.330
30546WAT     H291881   0.948   1.048   7.246
30547WAT      O91882   3.801   6.622   3.175
30547WAT     H191883   3.747   6.704   3.158
30547WAT     H291884   3.889   6.647   3.215
30548WAT      O91885   9.307   7.003   9.162
30548WAT     H191886   9.368   6.996   9.241
30548WAT     H291887   9.263   7.092   9.160
30549WAT      O91888   5.031   5.252   1.487
30549WAT     H191889   5.035   5.350   1.501
30549WAT     H291890   5.117   5.220   1.448
30550WAT      O91891   5.166   7.803   7.146
30550WAT     H191892   5.220   7.794   7.230
30550WAT     H291893   5.079   7.755   7.157
30551WAT      O91894   8.265   8.370   1.047
30551WAT     H191895   8.331   8.373   1.122
30551WAT     H291896   8.219   8.459   1.040
30552WAT      O91897   7.505   7.132   6.147
30552WAT     H191898   7.531   7.048   6.196
30552WAT     H291899   7.480   7.203   6.213
30553WAT      O91900   6.722   3.991   7.548
30553WAT     H191901   6.798   3.987   7.484
30553WAT     H291902   6.756   3.986   7.642
30554WAT      O91903   7.273   9.037   3.499
30554WAT     H191904   7.357   8.987   3.520
30554WAT     H291905   7.260   9.040   3.400
30555WAT      O91906   7.896   9.759   4.888
30555WAT     H191907   7.881   9.666   4.923
30555WAT     H291908   7.990   9.786   4.905
30556WAT      O91909   9.456   7.978   3.887
30556WAT     H191910   9.404   8.048   3.936
30556WAT     H291911   9.523   7.937   3.949
30557WAT      O91912   9.348   5.956   1.598
30557WAT     H191913   9.311   6.003   1.517
30557WAT     H291914   9.440   5.992   1.617
30558WAT      O91915   2.693   1.308   8.758
30558WAT     H191916   2.694   1.310   8.858
30558WAT     H291917   2.609   1.264   8.727
30559WAT      O91918   1.775   4.267   7.280
30559WAT     H191919   1.676   4.262   7.289
30559WAT     H291920   1.799   4.339   7.216
30560WAT      O91921   0.295   2.336   0.303
30560WAT     H191922   0.296   2.259   0.367
30560WAT     H291923   0.389   2.368   0.289
30561WAT      O91924   4.054   5.304   7.855
30561WAT     H191925   4.056   5.255   7.942
30561WAT     H291926   4.035   5.240   7.781
30562WAT      O91927   0.356   4.472   8.469
30562WAT     H191928   0.341   4.503   8.563
30562WAT     H291929   0.453   4.481   8.445
30563WAT      O91930   4.275   7.895   3.863
30563WAT     H191931   4.194   7.909   3.808
30563WAT     H291932   4.314   7.804   3.844
30564WAT      O91933   7.366   5.729   5.740
30564WAT     H191934   7.346   5.676   5.658
30564WAT     H291935   7.464   5.726   5.759
30565WAT      O91936   3.615   5.529   0.359
30565WAT     H191937   3.585   5.621   0.336
30565WAT     H291938   3.566   5.463   0.302
30566WAT      O91939   9.008   1.943   3.396
30566WAT     H191940   8.966   1.995   3.470
30566WAT     H291941   8.939   1.920   3.328
30567WAT      O91942   2.648   5.661   7.611
30567WAT     H191943   2.723   5.597   7.629
30567WAT     H291944   2.683   5.740   7.561
30568WAT      O91945   6.261   2.050   0.552
30568WAT     H191946   6.317   2.128   0.523
30568WAT     H291947   6.320   1.974   0.578
30569WAT      O91948   9.672   6.876   1.196
30569WAT     H191949   9.767   6.895   1.218
30569WAT     H291950   9.632   6.818   1.266
30570WAT      O91951   0.414   0.805   9.279
30570WAT     H191952   0.337   0.775   9.335
30570WAT     H291953   0.392   0.789   9.182
30571WAT      O91954   9.766   9.227   3.367
30571WAT     H191955   9.808   9.161   3.306
30571WAT     H291956   9.813   9.315   3.358
30572WAT      O91957   0.092   8.694   0.701
30572WAT     H191958   0.057   8.732   0.787
30572WAT     H291959   0.186   8.726   0.687
30573WAT      O91960   4.634   7.287   7.477
30573WAT     H191961   4.606   7.261   7.384
30573WAT     H291962   4.583   7.368   7.505
30574WAT      O91963   8.082   7.277   3.231
30574WAT     H191964   8.069   7.183   3.197
30574WAT     H291965   8.028   7.290   3.314
30575WAT      O91966   1.271   9.324   6.324
30575WAT     H191967   1.250   9.249   6.262
30575WAT     H291968   1.237   9.410   6.284
30576WAT      O91969   1.883   0.322   0.949
30576WAT     H191970   1.961   0.268   0.982
30576WAT     H291971   1.897   0.418   0.975
30577WAT      O91972   0.641   2.716   3.634
30577WAT     H191973   0.735   2.684   3.644
30577WAT     H291974   0.580   2.638   3.620
30578WAT      O91975   6.484   4.102   6.517
30578WAT     H191976   6.567   4.061   6.555
30578WAT     H291977   6.491   4.105   6.417
30579WAT      O91978   0.283   1.132   0.363
30579WAT     H191979   0.232   1.202   0.413
30579WAT     H291980   0.326   1.069   0.428
30580WAT      O91981   3.527   3.375   5.448
30580WAT     H191982   3.481   3.286   5.440
30580WAT     H291983   3.461   3.448   5.431
30581WAT      O91984   4.744   6.937   5.212
30581WAT     H191985   4.738   6.864   5.143
30581WAT     H291986   4.798   7.013   5.176
30582WAT      O91987   7.550   1.073   3.018
30582WAT     H191988   7.505   1.063   3.107
30582WAT     H291989   7.629   1.134   3.027
30583WAT      O91990   2.298   1.869   5.705
30583WAT     H191991   2.292   1.962   5.740
30583WAT     H291992   2.217   1.849   5.649
30584WAT      O91993   5.196   7.697   9.224
30584WAT     H191994   5.163   7.603   9.217
30584WAT     H291995   5.157   7.740   9.305
30585WAT      O91996   5.981   9.614   7.719
30585WAT     H191997   5.951   9.662   7.636
30585WAT     H291998   5.931   9.528   7.728
30586WAT      O91999   5.293   3.736   7.505
30586WAT     H192000   5.239   3.765   7.583
30586WAT     H292001   5.238   3.675   7.447
30587WAT      O92002   4.059   3.294   4.493
30587WAT     H192003   4.114   3.214   4.467
30587WAT     H292004   4.091   3.374   4.441
30588WAT      O92005   5.303   9.701   0.197
30588WAT     H192006   5.242   9.763   0.246
30588WAT     H292007   5.357   9.753   0.131
30589WAT      O92008   1.991   0.515   4.850
30589WAT     H192009   1.924   0.495   4.778
30589WAT     H292010   1.965   0.466   4.934
30590WAT      O92011   1.222   6.180   6.468
30590WAT     H192012   1.285   6.173   6.546
30590WAT     H292013   1.155   6.252   6.486
30591WAT      O92014   2.677   8.105   0.968
30591WAT     H192015   2.601   8.136   1.026
30591WAT     H292016   2.661   8.135   0.874
30592WAT      O92017   4.721   1.194   3.516
30592WAT     H192018   4.773   1.274   3.546
30592WAT     H292019   4.668   1.217   3.435
30593WAT      O92020   5.672   2.313   8.820
30593WAT     H192021   5.771   2.314   8.810
30593WAT     H292022   5.640   2.219   8.829
30594WAT      O92023   4.880   5.674   9.774
30594WAT     H192024   4.857   5.729   9.854
30594WAT     H292025   4.795   5.641   9.732
30595WAT      O92026   0.966   2.531   3.300
30595WAT     H192027   1.061   2.549   3.274
30595WAT     H292028   0.962   2.447   3.355
30596WAT      O92029   9.824   7.468   5.285
30596WAT     H192030   9.919   7.495   5.271
30596WAT     H292031   9.796   7.494   5.378
30597WAT      O92032   7.201   1.193   3.052
30597WAT     H192033   7.261   1.168   2.976
30597WAT     H292034   7.249   1.180   3.139
30598WAT      O92035   9.708   7.677   1.454
30598WAT     H192036   9.781   7.677   1.386
30598WAT     H292037   9.634   7.739   1.425
30599WAT      O92038   7.006   9.544   0.707
30599WAT     H192039   6.908   9.561   0.694
30599WAT     H292040   7.036   9.586   0.793
30600WAT      O92041   4.077   7.850   0.965
30600WAT     H192042   4.045   7.868   0.872
30600WAT     H292043   4.076   7.752   0.982
30601WAT      O92044   0.764   7.632   5.989
30601WAT     H192045   0.804   7.541   5.996
30601WAT     H292046   0.678   7.627   5.937
30602WAT      O92047   2.833   4.535   2.880
30602WAT     H192048   2.784   4.570   2.800
30602WAT     H292049   2.901   4.468   2.850
30603WAT      O92050   9.423   3.127   3.532
30603WAT     H192051   9.460   3.047   3.578
30603WAT     H292052   9.419   3.203   3.597
30604WAT      O92053   5.786   3.599   6.805
30604WAT     H192054   5.871   3.612   6.754
30604WAT     H292055   5.792   3.645   6.893
30605WAT      O92056   0.137   3.494   1.546
30605WAT     H192057   0.147   3.412   1.601
30605WAT     H292058   0.161   3.474   1.451
30606WAT      O92059   5.091   1.601   3.214
30606WAT     H192060   5.008   1.655   3.199
30606WAT     H292061   5.143   1.596   3.129
30607WAT      O92062   0.407   3.470   0.818
30607WAT     H192063   0.505   3.450   0.813
30607WAT     H292064   0.393   3.557   0.866
30608WAT      O92065   6.843   5.816   0.027
30608WAT     H192066   6.938   5.810   0.057
30608WAT     H292067   6.834   5.774  -0.063
30609WAT      O92068   2.164   5.860   6.747
30609WAT     H192069   2.109   5.827   6.824
30609WAT     H292070   2.253   5.816   6.749
30610WAT      O92071   2.970   4.513   9.267
30610WAT     H192072   2.967   4.468   9.357
30610WAT     H292073   2.890   4.486   9.214
30611WAT      O92074   3.912   2.814   0.869
30611WAT     H192075   3.905   2.827   0.967
30611WAT     H292076   3.858   2.885   0.822
30612WAT      O92077   1.882   4.999   0.067
30612WAT     H192078   1.799   5.044   0.101
30612WAT     H292079   1.957   5.064   0.065
30613WAT      O92080   2.657   4.940   5.859
30613WAT     H192081   2.635   4.855   5.812
30613WAT     H292082   2.581   4.967   5.918
30614WAT      O92083   0.436   3.402   4.814
30614WAT     H192084   0.495   3.481   4.830
30614WAT     H292085   0.405   3.402   4.719
30615WAT      O92086   0.264   4.487   8.972
30615WAT     H192087   0.326   4.564   8.988
30615WAT     H292088   0.298   4.406   9.020
30616WAT      O92089   0.977   6.010   3.814
30616WAT     H192090   0.886   6.047   3.796
30616WAT     H292091   1.030   6.009   3.729
30617WAT      O92092   7.511   0.512   6.278
30617WAT     H192093   7.544   0.422   6.250
30617WAT     H292094   7.588   0.576   6.285
30618WAT      O92095   2.739   5.207   2.788
30618WAT     H192096   2.693   5.224   2.875
30618WAT     H292097   2.738   5.291   2.733
30619WAT      O92098   3.961   1.091   8.447
30619WAT     H192099   3.957   1.097   8.347
30619WAT     H292100   3.912   1.168   8.487
30620WAT      O92101   4.917   4.418   3.003
30620WAT     H192102   4.978   4.342   2.982
30620WAT     H292103   4.971   4.501   3.016
30621WAT      O92104   6.882   7.262   2.949
30621WAT     H192105   6.909   7.271   2.853
30621WAT     H292106   6.796   7.310   2.964
30622WAT      O92107   0.665   1.546   6.622
30622WAT     H192108   0.565   1.545   6.628
30622WAT     H292109   0.696   1.641   6.610
30623WAT      O92110   0.412   3.159   2.919
30623WAT     H192111   0.361   3.074   2.906
30623WAT     H292112   0.348   3.236   2.926
30624WAT      O92113   8.157   3.230   5.433
30624WAT     H192114   8.251   3.196   5.442
30624WAT     H292115   8.142   3.261   5.339
30625WAT      O92116   4.843   1.681   1.922
30625WAT     H192117   4.771   1.688   1.990
30625WAT     H292118   4.812   1.625   1.846
30626WAT      O92119   0.411   4.442   0.033
30626WAT     H192120   0.452   4.416   0.120
30626WAT     H292121   0.414   4.365  -0.031
30627WAT      O92122   2.528   1.197   5.695
30627WAT     H192123   2.478   1.169   5.613
30627WAT     H292124   2.498   1.141   5.773
30628WAT      O92125   5.560   8.909   1.203
30628WAT     H192126   5.580   8.981   1.137
30628WAT     H292127   5.599   8.933   1.292
30629WAT      O92128   6.982   5.229   3.534
30629WAT     H192129   6.906   5.290   3.556
30629WAT     H292130   6.995   5.226   3.435
30630WAT      O92131   6.909   3.209   1.152
30630WAT     H192132   6.838   3.165   1.098
30630WAT     H292133   6.988   3.148   1.160
30631WAT      O92134   2.942   2.703   8.044
30631WAT     H192135   2.977   2.774   7.983
30631WAT     H292136   2.994   2.704   8.129
30632WAT      O92137   1.387   2.296   5.181
30632WAT     H192138   1.450   2.222   5.157
30632WAT     H292139   1.313   2.300   5.114
30633WAT      O92140   5.931   2.190   2.326
30633WAT     H192141   5.972   2.113   2.375
30633WAT     H292142   5.906   2.261   2.391
30634WAT      O92143   5.746   7.957   9.778
30634WAT     H192144   5.769   8.054   9.774
30634WAT     H292145   5.698   7.938   9.864
30635WAT      O92146   8.426   1.024   8.267
30635WAT     H192147   8.443   0.926   8.270
30635WAT     H292148   8.334   1.041   8.232
30636WAT      O92149   6.437   9.035   2.081
30636WAT     H192150   6.537   9.042   2.073
30636WAT     H292151   6.414   8.946   2.122
30637WAT      O92152   7.163   5.911   8.570
30637WAT     H192153   7.144   5.922   8.667
30637WAT     H292154   7.126   5.989   8.519
30638WAT      O92155   6.431   6.619   2.666
30638WAT     H192156   6.357   6.635   2.601
30638WAT     H292157   6.516   6.600   2.615
30639WAT      O92158   5.898   2.589   4.921
30639WAT     H192159   5.854   2.657   4.863
30639WAT     H292160   5.989   2.568   4.884
30640WAT      O92161   3.380   1.971   5.944
30640WAT     H192162   3.305   2.025   5.981
30640WAT     H292163   3.425   2.022   5.870
30641WAT      O92164   8.797   4.920   2.864
30641WAT     H192165   8.793   4.840   2.804
30641WAT     H292166   8.808   5.002   2.808
30642WAT      O92167   7.473   1.556   7.436
30642WAT     H192168   7.562   1.535   7.476
30642WAT     H292169   7.401   1.510   7.489
30643WAT      O92170   7.575   1.455   8.937
30643WAT     H192171   7.527   1.540   8.957
30643WAT     H292172   7.578   1.442   8.837
30644WAT      O92173   4.960   0.984   6.689
30644WAT     H192174   4.864   0.959   6.679
30644WAT     H292175   4.966   1.074   6.732
30645WAT      O92176   1.267   0.696   5.430
30645WAT     H192177   1.229   0.619   5.481
30645WAT     H292178   1.313   0.662   5.348
30646WAT      O92179   6.446   8.918   1.818
30646WAT     H192180   6.524   8.857   1.807
30646WAT     H292181   6.462   8.979   1.896
30647WAT      O92182   9.811   8.841   8.082
30647WAT     H192183   9.809   8.797   7.992
30647WAT     H292184   9.724   8.824   8.129
30648WAT      O92185   0.821   1.862   4.459
30648WAT     H192186   0.814   1.949   4.410
30648WAT     H292187   0.858   1.878   4.550
30649WAT      O92188   4.658   2.122   3.552
30649WAT     H192189   4.639   2.206   3.501
30649WAT     H292190   4.718   2.064   3.498
30650WAT      O92191   5.505   6.725   5.798
30650WAT     H192192   5.485   6.627   5.802
30650WAT     H292193   5.422   6.777   5.817
30651WAT      O92194   9.470   6.608   3.870
30651WAT     H192195   9.410   6.675   3.914
30651WAT     H292196   9.510   6.648   3.787
30652WAT      O92197   2.551   5.376   9.809
30652WAT     H192198   2.634   5.381   9.754
30652WAT     H292199   2.501   5.292   9.787
30653WAT      O92200   1.255   0.544   2.359
30653WAT     H192201   1.337   0.570   2.307
30653WAT     H292202   1.203   0.476   2.307
30654WAT      O92203   2.273   5.744   7.027
30654WAT     H192204   2.314   5.834   7.017
30654WAT     H292205   2.174   5.753   7.041
30655WAT      O92206   0.376   4.510   4.137
30655WAT     H192207   0.288   4.551   4.161
30655WAT     H292208   0.362   4.446   4.061
30656WAT      O92209   1.729   3.179   2.364
30656WAT     H192210   1.773   3.091   2.343
30656WAT     H292211   1.655   3.164   2.430
30657WAT      O92212   5.307   5.932   4.468
30657WAT     H192213   5.296   5.937   4.567
30657WAT     H292214   5.226   5.888   4.428
30658WAT      O92215   1.592   0.919   0.900
30658WAT     H192216   1.681   0.961   0.920
30658WAT     H292217   1.539   0.911   0.985
30659WAT      O92218   5.460   2.273   1.564
30659WAT     H192219   5.510   2.211   1.503
30659WAT     H292220   5.456   2.233   1.656
30660WAT      O92221   6.599   4.599   8.763
30660WAT     H192222   6.573   4.541   8.685
30660WAT     H292223   6.516   4.626   8.813
30661WAT      O92224   3.114   0.590   0.867
30661WAT     H192225   3.116   0.511   0.807
30661WAT     H292226   3.040   0.579   0.934
30662WAT      O92227   8.362   4.132   2.844
30662WAT     H192228   8.416   4.212   2.820
30662WAT     H292229   8.274   4.161   2.882
30663WAT      O92230   6.482   1.118   9.412
30663WAT     H192231   6.473   1.195   9.349
30663WAT     H292232   6.569   1.072   9.396
30664WAT      O92233   3.724   3.822   5.768
30664WAT     H192234   3.671   3.784   5.692
30664WAT     H292235   3.671   3.813   5.853
30665WAT      O92236   9.121   4.037   8.022
30665WAT     H192237   9.142   3.984   8.105
30665WAT     H292238   9.042   4.096   8.040
30666WAT      O92239   7.838   5.636   2.365
30666WAT     H192240   7.872   5.553   2.320
30666WAT     H292241   7.908   5.673   2.426
30667WAT      O92242   1.088   9.397   3.826
30667WAT     H192243   1.116   9.493   3.822
30667WAT     H292244   0.992   9.392   3.852
30668WAT      O92245   7.386   8.322   0.495
30668WAT     H192246   7.332   8.325   0.579
30668WAT     H292247   7.329   8.288   0.420
30669WAT      O92248   8.957   1.365   3.535
30669WAT     H192249   8.952   1.461   3.564
30669WAT     H292250   9.004   1.312   3.605
30670WAT      O92251   0.563   9.541   4.118
30670WAT     H192252   0.504   9.491   4.054
30670WAT     H292253   0.649   9.565   4.073
30671WAT      O92254   8.309   2.094   7.168
30671WAT     H192255   8.235   2.158   7.149
30671WAT     H292256   8.361   2.077   7.085
30672WAT      O92257   7.934   4.405   7.532
30672WAT     H192258   7.972   4.497   7.546
30672WAT     H292259   7.934   4.355   7.618
30673WAT      O92260   8.774   6.104   8.617
30673WAT     H192261   8.808   6.143   8.531
30673WAT     H292262   8.778   6.004   8.611
30674WAT      O92263   8.072   2.674   8.146
30674WAT     H192264   8.118   2.586   8.159
30674WAT     H292265   8.031   2.704   8.232
30675WAT      O92266   7.713   1.948   3.825
30675WAT     H192267   7.656   2.028   3.809
30675WAT     H292268   7.768   1.961   3.908
30676WAT      O92269   4.703   4.078   8.054
30676WAT     H192270   4.789   4.037   8.025
30676WAT     H292271   4.627   4.034   8.006
30677WAT      O92272   0.200   6.547   1.848
30677WAT     H192273   0.110   6.529   1.888
30677WAT     H292274   0.270   6.533   1.918
30678WAT      O92275   4.688   0.191   7.693
30678WAT     H192276   4.738   0.195   7.607
30678WAT     H292277   4.709   0.105   7.740
30679WAT      O92278   8.877   4.106   0.292
30679WAT     H192279   8.947   4.058   0.345
30679WAT     H292280   8.902   4.202   0.282
30680WAT      O92281   3.160   9.547   4.883
30680WAT     H192282   3.139   9.456   4.848
30680WAT     H292283   3.080   9.606   4.875
30681WAT      O92284   3.815   8.019   0.157
30681WAT     H192285   3.758   8.027   0.238
30681WAT     H292286   3.833   8.110   0.120
30682WAT      O92287   6.256   7.948   3.218
30682WAT     H192288   6.303   7.862   3.199
30682WAT     H292289   6.190   7.933   3.292
30683WAT      O92290   1.722   4.783   8.160
30683WAT     H192291   1.764   4.870   8.184
30683WAT     H292292   1.623   4.794   8.152
30684WAT      O92293   6.444   8.118   2.135
30684WAT     H192294   6.349   8.091   2.147
30684WAT     H292295   6.503   8.059   2.191
30685WAT      O92296   4.075   4.727   0.052
30685WAT     H192297   4.028   4.651   0.095
30685WAT     H292298   4.163   4.696   0.015
30686WAT      O92299   6.183   3.191   0.110
30686WAT     H192300   6.185   3.259   0.036
30686WAT     H292301   6.189   3.100   0.071
30687WAT      O92302   5.862   9.549   8.604
30687WAT     H192303   5.777   9.547   8.551
30687WAT     H292304   5.849   9.606   8.686
30688WAT      O92305   7.848   5.897   7.289
30688WAT     H192306   7.825   5.882   7.385
30688WAT     H292307   7.875   5.811   7.247
30689WAT      O92308   6.067   7.676   0.789
30689WAT     H192309   6.024   7.588   0.768
30689WAT     H292310   6.164   7.662   0.808
30690WAT      O92311   6.386   2.225   7.322
30690WAT     H192312   6.481   2.256   7.316
30690WAT     H292313   6.335   2.259   7.242
30691WAT      O92314   9.859   8.757   1.317
30691WAT     H192315   9.943   8.708   1.339
30691WAT     H292316   9.832   8.736   1.223
30692WAT      O92317   3.376   6.520   0.237
30692WAT     H192318   3.435   6.534   0.316
30692WAT     H292319   3.296   6.466   0.264
30693WAT      O92320   5.041   0.317   4.812
30693WAT     H192321   5.046   0.299   4.910
30693WAT     H292322   4.982   0.249   4.769
30694WAT      O92323   2.632   4.442   0.739
30694WAT     H192324   2.610   4.455   0.643
30694WAT     H292325   2.732   4.442   0.750
30695WAT      O92326   0.092   9.327   4.801
30695WAT     H192327   0.053   9.348   4.891
30695WAT     H292328   0.147   9.404   4.769
30696WAT      O92329   0.440   6.151   6.465
30696WAT     H192330   0.444   6.101   6.551
30696WAT     H292331   0.380   6.231   6.475
30697WAT      O92332   5.766   4.323   0.229
30697WAT     H192333   5.718   4.336   0.316
30697WAT     H292334   5.771   4.225   0.208
30698WAT      O92335   6.167   5.245   6.988
30698WAT     H192336   6.123   5.250   6.898
30698WAT     H292337   6.151   5.154   7.028
30699WAT      O92338   8.445   2.426   1.832
30699WAT     H192339   8.414   2.504   1.887
30699WAT     H292340   8.396   2.344   1.860
30700WAT      O92341   3.970   1.293   3.305
30700WAT     H192342   3.898   1.276   3.373
30700WAT     H292343   3.940   1.364   3.242
30701WAT      O92344   0.479   5.477   5.837
30701WAT     H192345   0.435   5.392   5.863
30701WAT     H292346   0.479   5.486   5.737
30702WAT      O92347   3.022   7.378   5.164
30702WAT     H192348   3.078   7.404   5.243
30702WAT     H292349   2.926   7.376   5.191
30703WAT      O92350   7.260   8.265   2.567
30703WAT     H192351   7.185   8.320   2.527
30703WAT     H292352   7.296   8.204   2.497
30704WAT      O92353   2.204   5.325   8.223
30704WAT     H192354   2.194   5.423   8.208
30704WAT     H292355   2.296   5.306   8.258
30705WAT      O92356   0.205   8.074   3.036
30705WAT     H192357   0.188   7.999   3.099
30705WAT     H292358   0.205   8.039   2.942
30706WAT      O92359   5.304   2.643   7.607
30706WAT     H192360   5.320   2.571   7.674
30706WAT     H292361   5.291   2.731   7.654
30707WAT      O92362   8.865   3.647   9.731
30707WAT     H192363   8.965   3.642   9.730
30707WAT     H292364   8.833   3.661   9.824
30708WAT      O92365   8.664   1.598   7.636
30708WAT     H192366   8.671   1.502   7.662
30708WAT     H292367   8.592   1.642   7.691
30709WAT      O92368   6.762   2.228   4.920
30709WAT     H192369   6.722   2.302   4.974
30709WAT     H292370   6.831   2.265   4.858
30710WAT      O92371   8.554   5.143   3.723
30710WAT     H192372   8.492   5.065   3.711
30710WAT     H292373   8.510   5.226   3.689
30711WAT      O92374   7.661   1.278   1.263
30711WAT     H192375   7.704   1.213   1.200
30711WAT     H292376   7.685   1.371   1.237
30712WAT      O92377   8.737   0.891   5.745
30712WAT     H192378   8.640   0.915   5.742
30712WAT     H292379   8.749   0.800   5.706
30713WAT      O92380   2.969   1.555   0.719
30713WAT     H192381   2.962   1.596   0.811
30713WAT     H292382   2.898   1.593   0.660
30714WAT      O92383   9.541   3.154   6.348
30714WAT     H192384   9.474   3.113   6.287
30714WAT     H292385   9.499   3.175   6.436
30715WAT      O92386   9.798   7.820   5.633
30715WAT     H192387   9.743   7.768   5.698
30715WAT     H292388   9.876   7.861   5.680
30716WAT      O92389   6.114   1.540   1.343
30716WAT     H192390   6.085   1.481   1.268
30716WAT     H292391   6.203   1.511   1.376
30717WAT      O92392   4.988   1.568   7.433
30717WAT     H192393   5.072   1.589   7.382
30717WAT     H292394   4.951   1.480   7.403
30718WAT      O92395   6.420   7.493   2.263
30718WAT     H192396   6.345   7.543   2.307
30718WAT     H292397   6.388   7.453   2.177
30719WAT      O92398   5.632   8.103   4.481
30719WAT     H192399   5.715   8.103   4.537
30719WAT     H292400   5.552   8.091   4.540
30720WAT      O92401   1.932   0.165   9.366
30720WAT     H192402   1.862   0.111   9.320
30720WAT     H292403   1.953   0.124   9.455
30721WAT      O92404   6.563   0.573   5.871
30721WAT     H192405   6.578   0.476   5.893
30721WAT     H292406   6.618   0.598   5.792
30722WAT      O92407   4.289   8.193   1.048
30722WAT     H192408   4.237   8.239   0.977
30722WAT     H292409   4.240   8.110   1.077
30723WAT      O92410   2.993   6.073   9.811
30723WAT     H192411   2.977   6.067   9.713
30723WAT     H292412   3.049   5.994   9.840
30724WAT      O92413   5.069   0.794   3.398
30724WAT     H192414   4.997   0.854   3.434
30724WAT     H292415   5.143   0.850   3.360
30725WAT      O92416   6.841   1.692   7.596
30725WAT     H192417   6.794   1.615   7.553
30725WAT     H292418   6.807   1.703   7.690
30726WAT      O92419   8.167   0.804   8.049
30726WAT     H192420   8.222   0.885   8.030
30726WAT     H292421   8.120   0.775   7.966
30727WAT      O92422   8.693   0.596   4.364
30727WAT     H192423   8.776   0.579   4.418
30727WAT     H292424   8.615   0.550   4.407
30728WAT      O92425   0.524   3.344   8.744
30728WAT     H192426   0.571   3.321   8.829
30728WAT     H292427   0.584   3.324   8.666
30729WAT      O92428   1.366   2.288   3.853
30729WAT     H192429   1.273   2.305   3.821
30729WAT     H292430   1.378   2.326   3.944
30730WAT      O92431   8.264   5.888   3.529
30730WAT     H192432   8.312   5.820   3.474
30730WAT     H292433   8.197   5.841   3.588
30731WAT      O92434   6.285   3.803   1.319
30731WAT     H192435   6.285   3.707   1.345
30731WAT     H292436   6.281   3.811   1.219
30732WAT      O92437   0.934   7.700   7.514
30732WAT     H192438   0.842   7.732   7.538
30732WAT     H292439   0.932   7.601   7.504
30733WAT      O92440   5.416   4.724   9.703
30733WAT     H192441   5.439   4.756   9.610
30733WAT     H292442   5.436   4.796   9.769
30734WAT      O92443   2.542   7.174   2.796
30734WAT     H192444   2.511   7.175   2.891
30734WAT     H292445   2.480   7.228   2.739
30735WAT      O92446   8.132   4.228   2.980
30735WAT     H192447   8.127   4.324   3.006
30735WAT     H292448   8.048   4.202   2.932
30736WAT      O92449   8.236   0.038   5.426
30736WAT     H192450   8.331   0.025   5.397
30736WAT     H292451   8.232   0.114   5.491
30737WAT      O92452   3.767   7.692   3.749
30737WAT     H192453   3.737   7.780   3.785
30737WAT     H292454   3.693   7.651   3.695
30738WAT      O92455   9.156   4.090   0.956
30738WAT     H192456   9.227   4.155   0.984
30738WAT     H292457   9.186   3.997   0.976
30739WAT      O92458   3.872   1.629   8.309
30739WAT     H192459   3.951   1.571   8.289
30739WAT     H292460   3.814   1.636   8.228
30740WAT      O92461   1.507   9.752   5.493
30740WAT     H192462   1.503   9.807   5.576
30740WAT     H292463   1.600   9.716   5.481
30741WAT      O92464   2.642   4.228   6.150
30741WAT     H192465   2.666   4.322   6.126
30741WAT     H292466   2.549   4.226   6.188
30742WAT      O92467   7.401   4.072   9.524
30742WAT     H192468   7.323   4.055   9.584
30742WAT     H292469   7.486   4.052   9.573
30743WAT      O92470   5.203   5.422   1.299
30743WAT     H192471   5.281   5.360   1.290
30743WAT     H292472   5.194   5.450   1.395
30744WAT      O92473   6.551   4.498   2.661
30744WAT     H192474   6.484   4.442   2.612
30744WAT     H292475   6.643   4.466   2.639
30745WAT      O92476   6.578   5.448   6.510
30745WAT     H192477   6.574   5.443   6.610
30745WAT     H292478   6.530   5.369   6.471
30746WAT      O92479   0.119   0.836   7.550
30746WAT     H192480   0.047   0.905   7.550
30746WAT     H292481   0.169   0.839   7.636
30747WAT      O92482   9.813   6.881   5.772
30747WAT     H192483   9.808   6.857   5.869
30747WAT     H292484   9.776   6.806   5.717
30748WAT      O92485   5.798   0.902   4.619
30748WAT     H192486   5.776   0.901   4.522
30748WAT     H292487   5.769   0.989   4.659
30749WAT      O92488   4.629   4.370   9.050
30749WAT     H192489   4.685   4.410   8.977
30749WAT     H292490   4.601   4.442   9.113
30750WAT      O92491   2.845   6.952   2.125
30750WAT     H192492   2.814   6.859   2.142
30750WAT     H292493   2.873   6.962   2.030
30751WAT      O92494   3.923   0.653   6.247
30751WAT     H192495   3.869   0.736   6.260
30751WAT     H292496   3.916   0.595   6.328
30752WAT      O92497   0.770   9.782   0.019
30752WAT     H192498   0.833   9.817   0.088
30752WAT     H292499   0.805   9.696  -0.017
30753WAT      O92500   5.385   9.746   3.265
30753WAT     H192501   5.365   9.654   3.230
30753WAT     H292502   5.316   9.810   3.232
30754WAT      O92503   7.906   9.626   6.426
30754WAT     H192504   7.919   9.724   6.437
30754WAT     H292505   7.826   9.597   6.478
30755WAT      O92506   1.304   2.455   7.301
30755WAT     H192507   1.347   2.526   7.356
30755WAT     H292508   1.205   2.456   7.317
30756WAT      O92509   5.993   5.635   2.810
30756WAT     H192510   5.917   5.570   2.810
30756WAT     H292511   5.965   5.719   2.857
30757WAT      O92512   9.272   9.256   5.889
30757WAT     H192513   9.357   9.219   5.926
30757WAT     H292514   9.195   9.215   5.938
30758WAT      O92515   1.228   3.125   7.386
30758WAT     H192516   1.240   3.148   7.290
30758WAT     H292517   1.208   3.208   7.438
30759WAT      O92518   7.697   6.610   5.467
30759WAT     H192519   7.631   6.542   5.436
30759WAT     H292520   7.683   6.695   5.416
30760WAT      O92521   5.543   1.287   0.232
30760WAT     H192522   5.599   1.310   0.152
30760WAT     H292523   5.446   1.285   0.205
30761WAT      O92524   2.268   3.724   0.781
30761WAT     H192525   2.345   3.661   0.775
30761WAT     H292526   2.239   3.733   0.876
30762WAT      O92527   5.836   2.596   1.063
30762WAT     H192528   5.753   2.649   1.051
30762WAT     H292529   5.894   2.605   0.982
30763WAT      O92530   6.301   0.258   2.324
30763WAT     H192531   6.312   0.322   2.400
30763WAT     H292532   6.357   0.288   2.247
30764WAT      O92533   5.007   0.889   1.158
30764WAT     H192534   5.106   0.892   1.171
30764WAT     H292535   4.965   0.966   1.208
30765WAT      O92536   8.223   7.648   3.641
30765WAT     H192537   8.178   7.628   3.553
30765WAT     H292538   8.154   7.657   3.712
30766WAT      O92539   0.590   3.113   9.766
30766WAT     H192540   0.565   3.208   9.750
30766WAT     H292541   0.508   3.058   9.780
30767WAT      O92542   9.353   5.241   5.484
30767WAT     H192543   9.299   5.240   5.400
30767WAT     H292544   9.382   5.148   5.506
30768WAT      O92545   1.702   2.817   7.010
30768WAT     H192546   1.697   2.800   6.912
30768WAT     H292547   1.672   2.736   7.060
30769WAT      O92548   0.966   4.405   4.734
30769WAT     H192549   0.995   4.497   4.760
30769WAT     H292550   0.949   4.351   4.817
30770WAT      O92551   8.428   6.243   8.508
30770WAT     H192552   8.450   6.198   8.595
30770WAT     H292553   8.331   6.265   8.505
30771WAT      O92554   4.087   6.229   5.015
30771WAT     H192555   4.143   6.169   4.958
30771WAT     H292556   4.137   6.253   5.098
30772WAT      O92557   7.391   3.910   5.585
30772WAT     H192558   7.338   3.875   5.662
30772WAT     H292559   7.340   3.895   5.500
30773WAT      O92560   0.542   3.656   4.871
30773WAT     H192561   0.635   3.663   4.907
30773WAT     H292562   0.504   3.747   4.859
30774WAT      O92563   0.705   4.063   2.553
30774WAT     H192564   0.774   4.107   2.611
30774WAT     H292565   0.717   3.964   2.558
30775WAT      O92566   6.186   6.032   9.215
30775WAT     H192567   6.124   6.071   9.148
30775WAT     H292568   6.160   5.937   9.233
30776WAT      O92569   6.772   5.395   3.591
30776WAT     H192570   6.692   5.436   3.636
30776WAT     H292571   6.842   5.465   3.579
30777WAT      O92572   3.435   4.890   5.006
30777WAT     H192573   3.408   4.986   5.017
30777WAT     H292574   3.514   4.871   5.064
30778WAT      O92575   6.417   5.908   2.113
30778WAT     H192576   6.453   5.997   2.141
30778WAT     H292577   6.321   5.916   2.090
30779WAT      O92578   2.723   3.020   1.976
30779WAT     H192579   2.701   2.929   1.941
30779WAT     H292580   2.653   3.085   1.945
30780WAT      O92581   0.502   9.336   5.696
30780WAT     H192582   0.412   9.363   5.731
30780WAT     H292583   0.571   9.355   5.766
30781WAT      O92584   0.131   9.105   9.446
30781WAT     H192585   0.034   9.132   9.442
30781WAT     H292586   0.153   9.077   9.539
30782WAT      O92587   9.422   5.846   9.870
30782WAT     H192588   9.462   5.838   9.779
30782WAT     H292589   9.438   5.762   9.921
30783WAT      O92590   6.665   9.359   1.703
30783WAT     H192591   6.697   9.346   1.797
30783WAT     H292592   6.678   9.454   1.676
30784WAT      O92593   4.365   9.818   9.111
30784WAT     H192594   4.452   9.785   9.149
30784WAT     H292595   4.336   9.900   9.161
30785WAT      O92596   7.662   7.271   6.552
30785WAT     H192597   7.752   7.298   6.519
30785WAT     H292598   7.657   7.172   6.561
30786WAT      O92599   6.518   3.341   1.523
30786WAT     H192600   6.585   3.403   1.483
30786WAT     H292601   6.562   3.286   1.593
30787WAT      O92602   0.186   6.324   6.574
30787WAT     H192603   0.195   6.253   6.644
30787WAT     H292604   0.213   6.412   6.612
30788WAT      O92605   1.677   7.666   9.578
30788WAT     H192606   1.656   7.592   9.642
30788WAT     H292607   1.665   7.633   9.484
30789WAT      O92608   0.011   0.852   6.889
30789WAT     H192609   0.062   0.902   6.960
30789WAT     H292610   0.072   0.831   6.813
30790WAT      O92611   3.115   9.573   6.659
30790WAT     H192612   3.146   9.547   6.568
30790WAT     H292613   3.015   9.575   6.660
30791WAT      O92614   8.927   4.705   3.472
30791WAT     H192615   8.945   4.642   3.396
30791WAT     H292616   8.842   4.754   3.455
30792WAT      O92617   0.497   7.980   2.561
30792WAT     H192618   0.410   7.932   2.575
30792WAT     H292619   0.554   7.969   2.643
30793WAT      O92620   7.376   4.632   7.455
30793WAT     H192621   7.314   4.661   7.528
30793WAT     H292622   7.356   4.683   7.372
30794WAT      O92623   1.532   2.016   1.947
30794WAT     H192624   1.616   2.070   1.941
30794WAT     H292625   1.492   2.007   1.857
30795WAT      O92626   8.223   9.440   0.703
30795WAT     H192627   8.129   9.466   0.723
30795WAT     H292628   8.273   9.429   0.789
30796WAT      O92629   6.335   6.366   6.611
30796WAT     H192630   6.322   6.403   6.703
30796WAT     H292631   6.378   6.276   6.616
30797WAT      O92632   2.255   7.651   1.454
30797WAT     H192633   2.284   7.703   1.534
30797WAT     H292634   2.228   7.559   1.481
30798WAT      O92635   4.983   7.684   0.205
30798WAT     H192636   5.029   7.629   0.135
30798WAT     H292637   5.004   7.646   0.296
30799WAT      O92638   6.191   9.787   4.452
30799WAT     H192639   6.127   9.751   4.384
30799WAT     H292640   6.149   9.864   4.500
30800WAT      O92641   3.105   4.570   7.895
30800WAT     H192642   3.025   4.627   7.874
30800WAT     H292643   3.172   4.579   7.822
30801WAT      O92644   5.365   0.011   6.876
30801WAT     H192645   5.433  -0.022   6.811
30801WAT     H292646   5.311   0.084   6.833
30802WAT      O92647   3.407   1.885   1.085
30802WAT     H192648   3.452   1.953   1.144
30802WAT     H292649   3.459   1.799   1.089
30803WAT      O92650   1.768   1.825   8.442
30803WAT     H192651   1.826   1.772   8.505
30803WAT     H292652   1.815   1.835   8.355
30804WAT      O92653   4.684   4.978   2.088
30804WAT     H192654   4.705   4.964   1.991
30804WAT     H292655   4.617   5.052   2.096
30805WAT      O92656   1.498   5.668   7.271
30805WAT     H192657   1.470   5.634   7.361
30805WAT     H292658   1.596   5.692   7.274
30806WAT      O92659   0.639   5.378   0.331
30806WAT     H192660   0.659   5.475   0.321
30806WAT     H292661   0.681   5.327   0.256
30807WAT      O92662   0.636   3.674   4.590
30807WAT     H192663   0.633   3.728   4.506
30807WAT     H292664   0.601   3.728   4.666
30808WAT      O92665   6.933   9.732   3.006
30808WAT     H192666   6.904   9.675   3.082
30808WAT     H292667   6.886   9.705   2.923
30809WAT      O92668   5.754   7.529   0.380
30809WAT     H192669   5.678   7.590   0.358
30809WAT     H292670   5.836   7.559   0.331
30810WAT      O92671   1.360   5.316   9.344
30810WAT     H192672   1.361   5.283   9.438
30810WAT     H292673   1.454   5.321   9.310
30811WAT      O92674   5.368   5.631   2.136
30811WAT     H192675   5.280   5.678   2.130
30811WAT     H292676   5.401   5.610   2.044
30812WAT      O92677   1.317   0.865   0.113
30812WAT     H192678   1.280   0.840   0.024
30812WAT     H292679   1.377   0.944   0.103
30813WAT      O92680   4.872   0.321   5.481
30813WAT     H192681   4.856   0.366   5.569
30813WAT     H292682   4.841   0.226   5.487
30814WAT      O92683   4.869   0.270   1.165
30814WAT     H192684   4.968   0.262   1.148
30814WAT     H292685   4.825   0.182   1.145
30815WAT      O92686   5.719   6.209   5.128
30815WAT     H192687   5.634   6.210   5.074
30815WAT     H292688   5.797   6.224   5.068
30816WAT      O92689   8.580   9.409   7.828
30816WAT     H192690   8.614   9.344   7.896
30816WAT     H292691   8.542   9.489   7.875
30817WAT      O92692   4.084   1.651   6.717
30817WAT     H192693   4.074   1.686   6.624
30817WAT     H292694   3.996   1.655   6.764
30818WAT      O92695   3.486   3.044   4.059
30818WAT     H192696   3.510   3.092   4.143
30818WAT     H292697   3.563   3.048   3.995
30819WAT      O92698   7.161   1.411   5.471
30819WAT     H192699   7.178   1.312   5.473
30819WAT     H292700   7.244   1.459   5.498
30820WAT      O92701   1.650   6.286   6.548
30820WAT     H192702   1.562   6.300   6.593
30820WAT     H292703   1.638   6.222   6.472
30821WAT      O92704   0.307   5.272   5.892
30821WAT     H192705   0.232   5.330   5.925
30821WAT     H292706   0.272   5.181   5.872
30822WAT      O92707   7.605   0.490   4.313
30822WAT     H192708   7.634   0.400   4.344
30822WAT     H292709   7.650   0.561   4.367
30823WAT      O92710   3.360   2.646   6.675
30823WAT     H192711   3.355   2.573   6.606
30823WAT     H292712   3.436   2.629   6.737
30824WAT      O92713   9.131   7.612   2.007
30824WAT     H192714   9.076   7.541   2.051
30824WAT     H292715   9.152   7.585   1.913
30825WAT      O92716   8.180   1.489   4.062
30825WAT     H192717   8.157   1.573   4.013
30825WAT     H292718   8.278   1.488   4.082
30826WAT      O92719   1.552   7.360   6.422
30826WAT     H192720   1.513   7.290   6.481
30826WAT     H292721   1.612   7.318   6.355
30827WAT      O92722   2.914   7.875   4.989
30827WAT     H192723   2.871   7.875   5.079
30827WAT     H292724   2.857   7.826   4.924
30828WAT      O92725   8.046   1.944   2.100
30828WAT     H192726   8.112   2.020   2.107
30828WAT     H292727   8.005   1.927   2.190
30829WAT      O92728   8.010   6.485   0.815
30829WAT     H192729   7.941   6.474   0.886
30829WAT     H292730   8.072   6.406   0.816
30830WAT      O92731   9.649   0.223   9.232
30830WAT     H192732   9.705   0.156   9.183
30830WAT     H292733   9.555   0.191   9.236
30831WAT      O92734   8.631   9.743   9.891
30831WAT     H192735   8.536   9.740   9.861
30831WAT     H292736   8.669   9.833   9.870
30832WAT      O92737   6.578   6.163   7.944
30832WAT     H192738   6.677   6.173   7.941
30832WAT     H292739   6.551   6.118   8.028
30833WAT      O92740   6.165   1.857   6.257
30833WAT     H192741   6.087   1.884   6.313
30833WAT     H292742   6.231   1.932   6.253
30834WAT      O92743   6.243   0.478   0.446
30834WAT     H192744   6.279   0.565   0.411
30834WAT     H292745   6.182   0.496   0.524
30835WAT      O92746   3.272   4.674   6.001
30835WAT     H192747   3.366   4.663   5.969
30835WAT     H292748   3.221   4.730   5.936
30836WAT      O92749   5.121   8.853   5.303
30836WAT     H192750   5.153   8.863   5.397
30836WAT     H292751   5.123   8.757   5.277
30837WAT      O92752   4.169   2.327   0.666
30837WAT     H192753   4.208   2.419   0.659
30837WAT     H292754   4.076   2.327   0.628
30838WAT      O92755   1.147   3.927   7.072
30838WAT     H192756   1.145   3.862   6.996
30838WAT     H292757   1.071   3.991   7.064
30839WAT      O92758   3.426   3.201   1.034
30839WAT     H192759   3.431   3.136   1.111
30839WAT     H292760   3.333   3.200   0.997
30840WAT      O92761   5.904   7.453   1.043
30840WAT     H192762   5.819   7.404   1.061
30840WAT     H292763   5.953   7.409   0.968
30841WAT      O92764   3.511   6.071   6.445
30841WAT     H192765   3.473   6.029   6.362
30841WAT     H292766   3.448   6.141   6.478
30842WAT      O92767   0.217   7.428   9.169
30842WAT     H192768   0.235   7.345   9.220
30842WAT     H292769   0.303   7.467   9.135
30843WAT      O92770   7.735   6.914   3.032
30843WAT     H192771   7.730   6.873   3.123
30843WAT     H292772   7.649   6.959   3.010
30844WAT      O92773   5.646   7.955   3.791
30844WAT     H192774   5.550   7.932   3.774
30844WAT     H292775   5.705   7.883   3.753
30845WAT      O92776   6.447   5.621   7.790
30845WAT     H192777   6.507   5.670   7.727
30845WAT     H292778   6.436   5.673   7.874
30846WAT      O92779   4.604   9.237   0.707
30846WAT     H192780   4.526   9.290   0.675
30846WAT     H292781   4.665   9.219   0.630
30847WAT      O92782   2.396   4.628   7.098
30847WAT     H192783   2.403   4.620   6.998
30847WAT     H292784   2.473   4.681   7.133
30848WAT      O92785   3.818   2.790   4.084
30848WAT     H192786   3.752   2.717   4.103
30848WAT     H292787   3.788   2.874   4.129
30849WAT      O92788   6.367   7.133   0.599
30849WAT     H192789   6.309   7.135   0.517
30849WAT     H292790   6.449   7.187   0.584
30850WAT      O92791   7.908   8.398   1.261
30850WAT     H192792   7.874   8.485   1.297
30850WAT     H292793   7.846   8.325   1.287
30851WAT      O92794   6.311   8.495   8.165
30851WAT     H192795   6.406   8.477   8.191
30851WAT     H292796   6.273   8.565   8.225
30852WAT      O92797   9.890   5.724   2.294
30852WAT     H192798   9.813   5.726   2.230
30852WAT     H292799   9.922   5.630   2.304
30853WAT      O92800   5.758   1.924   5.076
30853WAT     H192801   5.849   1.929   5.037
30853WAT     H292802   5.737   2.010   5.124
30854WAT      O92803   6.801   5.607   6.115
30854WAT     H192804   6.880   5.642   6.065
30854WAT     H292805   6.819   5.513   6.144
30855WAT      O92806   0.659   8.286   6.142
30855WAT     H192807   0.712   8.227   6.081
30855WAT     H292808   0.667   8.251   6.236
30856WAT      O92809   4.575   1.118   5.526
30856WAT     H192810   4.624   1.196   5.564
30856WAT     H292811   4.486   1.148   5.490
30857WAT      O92812   0.412   0.802   2.900
30857WAT     H192813   0.432   0.815   2.803
30857WAT     H292814   0.462   0.724   2.935
30858WAT      O92815   1.821   0.904   3.557
30858WAT     H192816   1.739   0.956   3.582
30858WAT     H292817   1.800   0.843   3.481
30859WAT      O92818   9.384   9.314   6.883
30859WAT     H192819   9.343   9.268   6.961
30859WAT     H292820   9.474   9.275   6.864
30860WAT      O92821   8.550   7.644   5.029
30860WAT     H192822   8.532   7.555   5.070
30860WAT     H292823   8.515   7.645   4.935
30861WAT      O92824   3.971   1.973   4.656
30861WAT     H192825   3.981   1.874   4.667
30861WAT     H292826   3.874   1.997   4.652
30862WAT      O92827   4.496   3.763   6.998
30862WAT     H192828   4.405   3.771   6.956
30862WAT     H292829   4.492   3.697   7.073
30863WAT      O92830   1.057   4.377   6.088
30863WAT     H192831   0.998   4.309   6.131
30863WAT     H292832   1.088   4.442   6.158
30864WAT      O92833   5.931   5.009   1.038
30864WAT     H192834   5.846   5.052   1.009
30864WAT     H292835   5.913   4.955   1.121
30865WAT      O92836   3.348   5.112   2.196
30865WAT     H192837   3.382   5.206   2.188
30865WAT     H292838   3.319   5.095   2.290
30866WAT      O92839   7.807   8.502   2.294
30866WAT     H192840   7.828   8.532   2.387
30866WAT     H292841   7.725   8.549   2.261
30867WAT      O92842   3.935   5.555   7.859
30867WAT     H192843   3.879   5.573   7.778
30867WAT     H292844   3.975   5.464   7.852
30868WAT      O92845   0.846   5.041   4.994
30868WAT     H192846   0.788   4.961   5.006
30868WAT     H292847   0.942   5.013   4.992
30869WAT      O92848   3.229   3.640   3.906
30869WAT     H192849   3.187   3.728   3.928
30869WAT     H292850   3.235   3.629   3.807
30870WAT      O92851   9.553   5.533   7.918
30870WAT     H192852   9.491   5.594   7.868
30870WAT     H292853   9.626   5.503   7.857
30871WAT      O92854   1.785   1.797   4.657
30871WAT     H192855   1.775   1.841   4.746
30871WAT     H292856   1.881   1.772   4.644
30872WAT      O92857   6.119   5.847   9.664
30872WAT     H192858   6.179   5.793   9.722
30872WAT     H292859   6.123   5.943   9.691
30873WAT      O92860   5.176   4.686   8.780
30873WAT     H192861   5.232   4.647   8.853
30873WAT     H292862   5.130   4.769   8.814
30874WAT      O92863   0.933   4.694   3.245
30874WAT     H192864   0.939   4.656   3.153
30874WAT     H292865   0.868   4.771   3.246
30875WAT      O92866   0.689   8.393   7.788
30875WAT     H192867   0.741   8.319   7.745
30875WAT     H292868   0.628   8.435   7.721
30876WAT      O92869   5.395   2.843   6.552
30876WAT     H192870   5.469   2.910   6.549
30876WAT     H292871   5.329   2.863   6.479
30877WAT      O92872   4.997   7.346   2.375
30877WAT     H192873   4.898   7.351   2.381
30877WAT     H292874   5.028   7.392   2.291
30878WAT      O92875   7.357   7.923   8.676
30878WAT     H192876   7.343   8.014   8.638
30878WAT     H292877   7.269   7.883   8.700
30879WAT      O92878   3.518   9.467   5.116
30879WAT     H192879   3.584   9.502   5.183
30879WAT     H292880   3.547   9.377   5.085
30880WAT      O92881   3.069   0.611   6.012
30880WAT     H192882   3.111   0.675   6.076
30880WAT     H292883   2.997   0.560   6.058
30881WAT      O92884   8.584   7.254   9.715
30881WAT     H192885   8.618   7.298   9.798
30881WAT     H292886   8.637   7.285   9.636
30882WAT      O92887   8.049   3.303   9.297
30882WAT     H192888   8.100   3.388   9.311
30882WAT     H292889   7.951   3.324   9.290
30883WAT      O92890   7.720   6.554   8.058
30883WAT     H192891   7.732   6.456   8.072
30883WAT     H292892   7.626   6.581   8.081
30884WAT      O92893   8.005   6.501   5.921
30884WAT     H192894   8.038   6.457   6.004
30884WAT     H292895   7.917   6.546   5.940
30885WAT      O92896   3.285   4.104   5.555
30885WAT     H192897   3.228   4.045   5.611
30885WAT     H292898   3.229   4.151   5.487
30886WAT      O92899   6.450   6.534   4.220
30886WAT     H192900   6.376   6.584   4.176
30886WAT     H292901   6.449   6.438   4.190
30887WAT      O92902   5.006   6.435   4.714
30887WAT     H192903   4.959   6.419   4.800
30887WAT     H292904   5.103   6.452   4.731
30888WAT      O92905   5.130   0.123   4.488
30888WAT     H192906   5.112   0.150   4.393
30888WAT     H292907   5.045   0.129   4.540
30889WAT      O92908   4.470   5.125   4.260
30889WAT     H192909   4.481   5.224   4.250
30889WAT     H292910   4.468   5.082   4.170
30890WAT      O92911   0.419   0.966   1.763
30890WAT     H192912   0.340   0.990   1.706
30890WAT     H292913   0.408   0.873   1.797
30891WAT      O92914   4.832   0.174   4.726
30891WAT     H192915   4.775   0.249   4.760
30891WAT     H292916   4.847   0.185   4.628
30892WAT      O92917   3.368   2.702   7.888
30892WAT     H192918   3.298   2.764   7.853
30892WAT     H292919   3.345   2.608   7.864
30893WAT      O92920   8.060   5.673   5.586
30893WAT     H192921   8.073   5.580   5.554
30893WAT     H292922   8.098   5.682   5.678
30894WAT      O92923   2.247   8.641   8.983
30894WAT     H192924   2.259   8.738   8.964
30894WAT     H292925   2.179   8.630   9.056
30895WAT      O92926   6.499   1.274   5.836
30895WAT     H192927   6.576   1.209   5.836
30895WAT     H292928   6.473   1.293   5.741
30896WAT      O92929   3.386   5.197   1.829
30896WAT     H192930   3.486   5.202   1.824
30896WAT     H292931   3.358   5.102   1.843
30897WAT      O92932   4.156   3.459   4.758
30897WAT     H192933   4.103   3.385   4.716
30897WAT     H292934   4.242   3.422   4.794
30898WAT      O92935   4.766   7.044   6.577
30898WAT     H192936   4.683   7.045   6.633
30898WAT     H292937   4.770   6.959   6.524
30899WAT      O92938   0.572   9.161   3.803
30899WAT     H192939   0.648   9.190   3.745
30899WAT     H292940   0.606   9.103   3.877
30900WAT      O92941   5.526   4.853   1.200
30900WAT     H192942   5.497   4.877   1.107
30900WAT     H292943   5.457   4.795   1.243
30901WAT      O92944   5.771   7.838   7.141
30901WAT     H192945   5.717   7.884   7.211
30901WAT     H292946   5.726   7.752   7.116
30902WAT      O92947   6.270   0.882   2.491
30902WAT     H192948   6.241   0.960   2.436
30902WAT     H292949   6.363   0.856   2.466
30903WAT      O92950   9.796   8.483   5.331
30903WAT     H192951   9.696   8.475   5.332
30903WAT     H292952   9.836   8.414   5.392
30904WAT      O92953   3.342   7.455   3.717
30904WAT     H192954   3.333   7.359   3.690
30904WAT     H292955   3.333   7.514   3.636
30905WAT      O92956   5.948   3.142   1.783
30905WAT     H192957   5.863   3.180   1.819
30905WAT     H292958   6.004   3.110   1.859
30906WAT      O92959   7.933   7.112   5.325
30906WAT     H192960   8.008   7.173   5.297
30906WAT     H292961   7.917   7.123   5.423
30907WAT      O92962   2.813   8.966   5.765
30907WAT     H192963   2.828   8.976   5.863
30907WAT     H292964   2.785   8.873   5.744
30908WAT      O92965   9.369   0.765   3.226
30908WAT     H192966   9.366   0.803   3.319
30908WAT     H292967   9.390   0.838   3.161
30909WAT      O92968   9.102   9.692   1.160
30909WAT     H192969   9.200   9.674   1.173
30909WAT     H292970   9.071   9.758   1.228
30910WAT      O92971   2.078   7.830   1.025
30910WAT     H192972   2.031   7.843   1.112
30910WAT     H292973   2.088   7.732   1.007
30911WAT      O92974   1.533   7.419   7.484
30911WAT     H192975   1.588   7.384   7.560
30911WAT     H292976   1.459   7.476   7.520
30912WAT      O92977   8.854   4.897   3.128
30912WAT     H192978   8.833   4.905   3.030
30912WAT     H292979   8.919   4.968   3.154
30913WAT      O92980   2.638   4.843   0.929
30913WAT     H192981   2.631   4.912   1.001
30913WAT     H292982   2.568   4.863   0.859
30914WAT      O92983   6.289   0.093   2.529
30914WAT     H192984   6.240   0.007   2.514
30914WAT     H292985   6.299   0.141   2.442
30915WAT      O92986   8.099   8.523   2.441
30915WAT     H192987   8.079   8.540   2.538
30915WAT     H292988   8.132   8.429   2.430
30916WAT      O92989   0.881   9.738   9.047
30916WAT     H192990   0.943   9.665   9.076
30916WAT     H292991   0.895   9.758   8.950
30917WAT      O92992   8.251   7.104   7.232
30917WAT     H192993   8.201   7.029   7.275
30917WAT     H292994   8.322   7.067   7.172
30918WAT      O92995   3.111   8.024   4.591
30918WAT     H192996   3.208   8.004   4.578
30918WAT     H292997   3.091   8.029   4.689
30919WAT      O92998   8.514   3.721   9.085
30919WAT     H192999   8.417   3.697   9.087
30919WAT     H293000   8.567   3.641   9.058
30920WAT      O93001   2.955   3.200   9.568
30920WAT     H193002   3.019   3.276   9.565
30920WAT     H293003   2.999   3.120   9.608
30921WAT      O93004   5.467   3.872   2.650
30921WAT     H193005   5.478   3.915   2.739
30921WAT     H293006   5.389   3.809   2.651
30922WAT      O93007   7.939   8.996   9.380
30922WAT     H193008   7.922   8.914   9.435
30922WAT     H293009   7.958   9.073   9.440
30923WAT      O93010   8.098   7.622   2.833
30923WAT     H193011   8.110   7.542   2.892
30923WAT     H293012   8.187   7.664   2.814
30924WAT      O93013   3.592   4.331   3.180
30924WAT     H193014   3.574   4.250   3.235
30924WAT     H293015   3.687   4.331   3.150
30925WAT      O93016   6.177   9.529   0.623
30925WAT     H193017   6.191   9.443   0.573
30925WAT     H293018   6.092   9.524   0.675
30926WAT      O93019   7.896   0.071   3.150
30926WAT     H193020   7.840   0.105   3.074
30926WAT     H293021   7.863   0.110   3.236
30927WAT      O93022   5.989   8.462   0.489
30927WAT     H193023   5.950   8.503   0.406
30927WAT     H293024   5.932   8.386   0.518
30928WAT      O93025   1.331   6.854   4.133
30928WAT     H193026   1.262   6.807   4.188
30928WAT     H293027   1.418   6.806   4.140
30929WAT      O93028   1.996   1.017   7.450
30929WAT     H193029   2.065   1.005   7.521
30929WAT     H293030   2.041   1.041   7.364
30930WAT      O93031   8.799   9.824   7.234
30930WAT     H193032   8.737   9.761   7.187
30930WAT     H293033   8.803   9.800   7.331
30931WAT      O93034   9.562   2.479   1.343
30931WAT     H193035   9.604   2.407   1.287
30931WAT     H293036   9.477   2.509   1.300
30932WAT      O93037   8.210   0.453   2.067
30932WAT     H193038   8.124   0.504   2.068
30932WAT     H293039   8.192   0.356   2.086
30933WAT      O93040   0.928   3.205   7.409
30933WAT     H193041   0.943   3.162   7.498
30933WAT     H293042   0.922   3.134   7.338
30934WAT      O93043   8.100   6.856   0.056
30934WAT     H193044   8.091   6.813   0.146
30934WAT     H293045   8.127   6.952   0.069
30935WAT      O93046   4.483   4.555   3.640
30935WAT     H193047   4.506   4.578   3.734
30935WAT     H293048   4.480   4.455   3.630
30936WAT      O93049   3.980   2.297   4.605
30936WAT     H193050   3.952   2.201   4.611
30936WAT     H293051   3.950   2.334   4.517
30937WAT      O93052   3.165   0.309   4.905
30937WAT     H193053   3.166   0.323   4.806
30937WAT     H293054   3.239   0.361   4.948
30938WAT      O93055   9.527   3.657   8.580
30938WAT     H193056   9.496   3.570   8.619
30938WAT     H293057   9.622   3.673   8.605
30939WAT      O93058   0.901   5.306   3.779
30939WAT     H193059   0.881   5.248   3.859
30939WAT     H293060   0.903   5.402   3.808
30940WAT      O93061   5.130   6.211   7.806
30940WAT     H193062   5.082   6.218   7.719
30940WAT     H293063   5.066   6.228   7.881
30941WAT      O93064   7.048   5.204   9.760
30941WAT     H193065   7.087   5.168   9.845
30941WAT     H293066   6.967   5.150   9.736
30942WAT      O93067   6.345   1.743   5.575
30942WAT     H193068   6.341   1.690   5.490
30942WAT     H293069   6.352   1.680   5.653
30943WAT      O93070   5.728   9.280   8.429
30943WAT     H193071   5.816   9.317   8.400
30943WAT     H293072   5.693   9.218   8.359
30944WAT      O93073   5.707   2.649   0.728
30944WAT     H193074   5.632   2.612   0.673
30944WAT     H293075   5.672   2.678   0.817
30945WAT      O93076   5.377   6.250   2.940
30945WAT     H193077   5.324   6.304   3.006
30945WAT     H293078   5.452   6.204   2.986
30946WAT      O93079   2.821   3.713   3.723
30946WAT     H193080   2.898   3.697   3.662
30946WAT     H293081   2.854   3.720   3.817
30947WAT      O93082   4.340   3.672   4.325
30947WAT     H193083   4.417   3.737   4.323
30947WAT     H293084   4.325   3.641   4.419
30948WAT      O93085   9.435   6.137   9.603
30948WAT     H193086   9.461   6.060   9.546
30948WAT     H293087   9.516   6.179   9.643
30949WAT      O93088   6.923   6.412   2.257
30949WAT     H193089   6.950   6.489   2.316
30949WAT     H293090   6.907   6.445   2.164
30950WAT      O93091   2.068   5.837   2.075
30950WAT     H193092   2.022   5.878   1.996
30950WAT     H293093   2.050   5.891   2.157
30951WAT      O93094   2.770   4.435   9.089
30951WAT     H193095   2.771   4.382   9.005
30951WAT     H293096   2.790   4.531   9.069
30952WAT      O93097   1.001   0.339   9.020
30952WAT     H193098   0.909   0.301   9.029
30952WAT     H293099   1.065   0.286   9.077
30953WAT      O93100   2.510   0.179   4.191
30953WAT     H193101   2.597   0.206   4.152
30953WAT     H293102   2.448   0.149   4.118
30954WAT      O93103   9.867   0.076   5.966
30954WAT     H193104   9.957   0.113   5.991
30954WAT     H293105   9.876  -0.023   5.949
30955WAT      O93106   3.403   7.525   7.993
30955WAT     H193107   3.440   7.553   7.904
30955WAT     H293108   3.304   7.534   7.993
30956WAT      O93109   6.281   6.164   3.268
30956WAT     H193110   6.231   6.189   3.351
30956WAT     H293111   6.241   6.082   3.228
30957WAT      O93112   1.552   0.709   3.635
30957WAT     H193113   1.577   0.657   3.554
30957WAT     H293114   1.548   0.648   3.715
30958WAT      O93115   2.718   2.461   8.564
30958WAT     H193116   2.650   2.398   8.528
30958WAT     H293117   2.735   2.534   8.497
30959WAT      O93118   7.187   2.513   2.959
30959WAT     H193119   7.120   2.576   2.922
30959WAT     H293120   7.279   2.539   2.928
30960WAT      O93121   3.122   4.757   7.468
30960WAT     H193122   3.139   4.658   7.475
30960WAT     H293123   3.208   4.806   7.482
30961WAT      O93124   0.619   9.619   2.258
30961WAT     H193125   0.622   9.537   2.314
30961WAT     H293126   0.619   9.593   2.161
30962WAT      O93127   6.951   0.881   0.308
30962WAT     H193128   7.028   0.929   0.265
30962WAT     H293129   6.917   0.811   0.246
30963WAT      O93130   9.149   2.623   4.744
30963WAT     H193131   9.194   2.600   4.657
30963WAT     H293132   9.060   2.665   4.726
30964WAT      O93133   0.576   6.376   3.332
30964WAT     H193134   0.482   6.371   3.299
30964WAT     H293135   0.597   6.470   3.359
30965WAT      O93136   0.579   2.987   7.992
30965WAT     H193137   0.517   2.910   7.984
30965WAT     H293138   0.617   3.010   7.902
30966WAT      O93139   7.091   6.706   8.290
30966WAT     H193140   7.066   6.803   8.288
30966WAT     H293141   7.189   6.697   8.270
30967WAT      O93142   9.055   5.555   5.686
30967WAT     H193143   9.148   5.540   5.721
30967WAT     H293144   9.034   5.485   5.618
30968WAT      O93145   8.250   2.985   6.969
30968WAT     H193146   8.323   3.049   6.995
30968WAT     H293147   8.256   2.903   7.026
30969WAT      O93148   3.333   9.130   5.072
30969WAT     H193149   3.280   9.159   4.992
30969WAT     H293150   3.431   9.134   5.050
30970WAT      O93151   8.572   1.669   6.295
30970WAT     H193152   8.570   1.618   6.209
30970WAT     H293153   8.570   1.767   6.276
30971WAT      O93154   0.839   9.383   6.819
30971WAT     H193155   0.853   9.297   6.770
30971WAT     H293156   0.833   9.458   6.753
30972WAT      O93157   3.948   4.893   1.870
30972WAT     H193158   3.955   4.810   1.814
30972WAT     H293159   4.040   4.929   1.886
30973WAT      O93160   4.242   2.289   4.754
30973WAT     H193161   4.183   2.305   4.674
30973WAT     H293162   4.234   2.367   4.816
30974WAT      O93163   2.007   4.788   3.357
30974WAT     H193164   2.074   4.714   3.352
30974WAT     H293165   1.975   4.799   3.451
30975WAT      O93166   8.057   3.261   9.004
30975WAT     H193167   8.129   3.326   9.029
30975WAT     H293168   7.979   3.272   9.066
30976WAT      O93169   9.682   8.200   4.205
30976WAT     H193170   9.599   8.186   4.258
30976WAT     H293171   9.747   8.254   4.258
30977WAT      O93172   7.195   9.358   8.275
30977WAT     H193173   7.203   9.304   8.191
30977WAT     H293174   7.104   9.346   8.313
30978WAT      O93175   7.708   7.674   3.588
30978WAT     H193176   7.714   7.770   3.561
30978WAT     H293177   7.628   7.660   3.646
30979WAT      O93178   8.874   0.595   7.925
30979WAT     H193179   8.893   0.623   7.831
30979WAT     H293180   8.901   0.668   7.988
30980WAT      O93181   2.995   8.330   0.511
30980WAT     H193182   2.900   8.299   0.498
30980WAT     H293183   3.004   8.367   0.604
30981WAT      O93184   9.513   7.266   9.252
30981WAT     H193185   9.458   7.347   9.230
30981WAT     H293186   9.567   7.241   9.172
30982WAT      O93187   5.114   3.898   4.818
30982WAT     H193188   5.201   3.865   4.855
30982WAT     H293189   5.125   3.992   4.787
30983WAT      O93190   6.507   8.733   7.458
30983WAT     H193191   6.420   8.778   7.437
30983WAT     H293192   6.503   8.638   7.427
30984WAT      O93193   7.773   1.396   3.986
30984WAT     H193194   7.740   1.306   4.016
30984WAT     H293195   7.760   1.462   4.060
30985WAT      O93196   2.689   6.033   2.121
30985WAT     H193197   2.645   6.123   2.125
30985WAT     H293198   2.649   5.972   2.189
30986WAT      O93199   1.940   9.481   8.120
30986WAT     H193200   1.952   9.473   8.021
30986WAT     H293201   1.875   9.555   8.139
30987WAT      O93202   6.140   6.106   9.782
30987WAT     H193203   6.225   6.142   9.822
30987WAT     H293204   6.062   6.156   9.820
30988WAT      O93205   1.201   8.779   3.854
30988WAT     H193206   1.273   8.716   3.824
30988WAT     H293207   1.175   8.838   3.777
30989WAT      O93208   7.418   2.188   0.760
30989WAT     H193209   7.509   2.182   0.720
30989WAT     H293210   7.398   2.283   0.783
30990WAT      O93211   7.946   8.426   0.296
30990WAT     H193212   7.994   8.343   0.266
30990WAT     H293213   7.847   8.409   0.292
30991WAT      O93214   3.375   0.655   8.635
30991WAT     H193215   3.382   0.751   8.607
30991WAT     H293216   3.295   0.643   8.693
30992WAT      O93217   3.983   2.740   5.886
30992WAT     H193218   4.037   2.805   5.834
30992WAT     H293219   4.035   2.655   5.899
30993WAT      O93220   9.660   7.543   3.029
30993WAT     H193221   9.696   7.568   2.939
30993WAT     H293222   9.664   7.623   3.089
30994WAT      O93223   8.991   5.277   6.345
30994WAT     H193224   8.954   5.321   6.427
30994WAT     H293225   8.995   5.344   6.270
30995WAT      O93226   2.239   1.456   5.610
30995WAT     H193227   2.182   1.539   5.610
30995WAT     H293228   2.333   1.480   5.586
30996WAT      O93229   7.109   2.988   1.372
30996WAT     H193230   7.016   2.953   1.361
30996WAT     H293231   7.172   2.931   1.320
30997WAT      O93232   5.985   0.125   0.620
30997WAT     H193233   6.083   0.125   0.601
30997WAT     H293234   5.965   0.061   0.694
30998WAT      O93235   7.247   5.129   6.603
30998WAT     H193236   7.236   5.037   6.639
30998WAT     H293237   7.283   5.125   6.510
30999WAT      O93238   3.452   4.931   6.310
30999WAT     H193239   3.428   5.008   6.250
30999WAT     H293240   3.410   4.848   6.275
31000WAT      O93241   3.723   1.563   6.208
31000WAT     H193242   3.671   1.478   6.208
31000WAT     H293243   3.816   1.545   6.240
31001WAT      O93244   5.046   9.524   4.460
31001WAT     H193245   4.962   9.579   4.460
31001WAT     H293246   5.125   9.584   4.448
31002WAT      O93247   2.062   5.968   6.375
31002WAT     H193248   2.009   5.889   6.342
31002WAT     H293249   2.006   6.021   6.439
31003WAT      O93250   3.592   8.617   8.233
31003WAT     H193251   3.678   8.590   8.190
31003WAT     H293252   3.551   8.693   8.182
31004WAT      O93253   5.498   6.372   4.313
31004WAT     H193254   5.580   6.390   4.259
31004WAT     H293255   5.471   6.276   4.302
31005WAT      O93256   0.447   4.713   8.907
31005WAT     H193257   0.513   4.656   8.858
31005WAT     H293258   0.494   4.763   8.980
31006WAT      O93259   6.767   5.358   4.384
31006WAT     H193260   6.707   5.397   4.454
31006WAT     H293261   6.854   5.332   4.425
31007WAT      O93262   7.554   6.469   3.108
31007WAT     H193263   7.495   6.410   3.052
31007WAT     H293264   7.580   6.550   3.055
31008WAT      O93265   3.396   4.238   5.149
31008WAT     H193266   3.440   4.300   5.214
31008WAT     H293267   3.408   4.144   5.181
31009WAT      O93268   5.358   0.276   5.165
31009WAT     H193269   5.336   0.220   5.245
31009WAT     H293270   5.281   0.275   5.101
31010WAT      O93271   4.389   8.377   2.225
31010WAT     H193272   4.447   8.453   2.252
31010WAT     H293273   4.296   8.391   2.260
31011WAT      O93274   9.040   0.870   5.771
31011WAT     H193275   8.945   0.899   5.757
31011WAT     H293276   9.102   0.935   5.728
31012WAT      O93277   3.824   1.733   4.456
31012WAT     H193278   3.819   1.829   4.484
31012WAT     H293279   3.799   1.725   4.360
31013WAT      O93280   2.953   6.873   6.200
31013WAT     H193281   2.932   6.807   6.128
31013WAT     H293282   2.961   6.964   6.159
31014WAT      O93283   3.789   8.817   2.428
31014WAT     H193284   3.847   8.736   2.421
31014WAT     H293285   3.706   8.794   2.480
31015WAT      O93286   1.218   0.065   8.991
31015WAT     H193287   1.303   0.095   9.034
31015WAT     H293288   1.239   0.006   8.913
31016WAT      O93289   6.841   3.064   3.103
31016WAT     H193290   6.930   3.037   3.069
31016WAT     H293291   6.796   3.124   3.037
31017WAT      O93292   1.040   9.553   5.645
31017WAT     H193293   1.036   9.621   5.718
31017WAT     H293294   1.123   9.568   5.591
31018WAT      O93295   0.599   2.385   8.439
31018WAT     H193296   0.640   2.299   8.471
31018WAT     H293297   0.502   2.370   8.421
31019WAT      O93298   4.763   9.787   3.260
31019WAT     H193299   4.736   9.764   3.167
31019WAT     H293300   4.691   9.842   3.303
31020WAT      O93301   4.750   3.761   4.582
31020WAT     H193302   4.813   3.705   4.635
31020WAT     H293303   4.657   3.750   4.617
31021WAT      O93304   3.443   3.856   6.479
31021WAT     H193305   3.522   3.797   6.458
31021WAT     H293306   3.413   3.839   6.573
31022WAT      O93307   8.858   5.046   4.994
31022WAT     H193308   8.875   5.119   4.928
31022WAT     H293309   8.772   5.001   4.972
31023WAT      O93310   4.841   4.226   3.620
31023WAT     H193311   4.820   4.135   3.657
31023WAT     H293312   4.858   4.289   3.696
31024WAT      O93313   2.273   8.845   6.643
31024WAT     H193314   2.245   8.779   6.713
31024WAT     H293315   2.276   8.936   6.683
31025WAT      O93316   0.605   4.589   1.240
31025WAT     H193317   0.515   4.629   1.225
31025WAT     H293318   0.653   4.579   1.153
31026WAT      O93319   4.750   3.123   2.325
31026WAT     H193320   4.836   3.159   2.361
31026WAT     H293321   4.749   3.023   2.333
31027WAT      O93322   4.670   8.805   1.914
31027WAT     H193323   4.635   8.783   2.005
31027WAT     H293324   4.634   8.894   1.885
31028WAT      O93325   9.879   4.123   6.255
31028WAT     H193326   9.920   4.209   6.224
31028WAT     H293327   9.781   4.124   6.234
31029WAT      O93328   5.447   8.374   5.642
31029WAT     H193329   5.505   8.455   5.656
31029WAT     H293330   5.390   8.360   5.724
31030WAT      O93331   6.422   2.920   2.436
31030WAT     H193332   6.377   2.985   2.496
31030WAT     H293333   6.393   2.935   2.341
31031WAT      O93334   7.769   1.972   8.796
31031WAT     H193335   7.783   2.017   8.884
31031WAT     H293336   7.671   1.955   8.783
31032WAT      O93337   1.134   8.031   5.221
31032WAT     H193338   1.136   8.103   5.290
31032WAT     H293339   1.097   8.068   5.136
31033WAT      O93340   2.348   0.540   7.845
31033WAT     H193341   2.358   0.576   7.938
31033WAT     H293342   2.409   0.462   7.833
31034WAT      O93343   0.361   5.456   9.825
31034WAT     H193344   0.457   5.435   9.805
31034WAT     H293345   0.307   5.372   9.818
31035WAT      O93346   8.855   1.104   9.017
31035WAT     H193347   8.817   1.142   9.101
31035WAT     H293348   8.795   1.032   8.982
31036WAT      O93349   7.573   8.506   2.497
31036WAT     H193350   7.557   8.564   2.577
31036WAT     H293351   7.609   8.418   2.527
31037WAT      O93352   0.114   2.867   2.468
31037WAT     H193353   0.159   2.861   2.379
31037WAT     H293354   0.182   2.858   2.541
31038WAT      O93355   6.078   6.871   7.081
31038WAT     H193356   6.003   6.805   7.072
31038WAT     H293357   6.074   6.935   7.004
31039WAT      O93358   6.412   5.242   4.853
31039WAT     H193359   6.455   5.326   4.886
31039WAT     H293360   6.387   5.185   4.931
31040WAT      O93361   0.071   5.516   1.587
31040WAT     H193362  -0.010   5.461   1.564
31040WAT     H293363   0.095   5.502   1.683
31041WAT      O93364   9.235   1.454   1.731
31041WAT     H193365   9.209   1.510   1.810
31041WAT     H293366   9.335   1.452   1.723
31042WAT      O93367   4.587   7.008   3.462
31042WAT     H193368   4.566   7.024   3.366
31042WAT     H293369   4.676   6.964   3.470
31043WAT      O93370   6.065   4.806   5.875
31043WAT     H193371   6.002   4.795   5.951
31043WAT     H293372   6.017   4.844   5.796
31044WAT      O93373   4.210   9.098   9.567
31044WAT     H193374   4.200   9.195   9.588
31044WAT     H293375   4.285   9.085   9.502
31045WAT      O93376   6.976   1.234   7.703
31045WAT     H193377   6.992   1.142   7.667
31045WAT     H293378   6.926   1.288   7.635
31046WAT      O93379   2.328   3.967   7.296
31046WAT     H193380   2.364   4.053   7.259
31046WAT     H293381   2.402   3.916   7.339
31047WAT      O93382   9.890   3.465   2.747
31047WAT     H193383   9.826   3.491   2.675
31047WAT     H293384   9.931   3.548   2.787
31048WAT      O93385   9.863   5.786   9.718
31048WAT     H193386   9.793   5.770   9.648
31048WAT     H293387   9.950   5.749   9.687
31049WAT      O93388   9.450   9.298   2.052
31049WAT     H193389   9.445   9.365   2.126
31049WAT     H293390   9.364   9.297   2.001
31050WAT      O93391   2.620   2.260   9.151
31050WAT     H193392   2.528   2.224   9.136
31050WAT     H293393   2.625   2.299   9.244
31051WAT      O93394   7.811   6.964   7.899
31051WAT     H193395   7.713   6.946   7.884
31051WAT     H293396   7.839   7.043   7.843
31052WAT      O93397   5.714   6.338   8.195
31052WAT     H193398   5.674   6.355   8.105
31052WAT     H293399   5.644   6.301   8.256
31053WAT      O93400   1.258   4.833   7.817
31053WAT     H193401   1.259   4.807   7.720
31053WAT     H293402   1.333   4.897   7.835
31054WAT      O93403   5.458   4.041   2.447
31054WAT     H193404   5.454   3.973   2.373
31054WAT     H293405   5.465   3.994   2.535
31055WAT      O93406   9.406   9.840   4.032
31055WAT     H193407   9.457   9.780   4.094
31055WAT     H293408   9.456   9.926   4.021
31056WAT      O93409   3.755   6.725   2.721
31056WAT     H193410   3.784   6.713   2.627
31056WAT     H293411   3.657   6.704   2.729
31057WAT      O93412   3.233   4.425   4.056
31057WAT     H193413   3.238   4.474   3.969
31057WAT     H293414   3.282   4.338   4.048
31058WAT      O93415   1.113   1.550   9.435
31058WAT     H193416   1.075   1.590   9.351
31058WAT     H293417   1.050   1.567   9.511
31059WAT      O93418   8.494   0.323   1.731
31059WAT     H193419   8.580   0.272   1.720
31059WAT     H293420   8.436   0.307   1.652
31060WAT      O93421   4.836   7.550   4.267
31060WAT     H193422   4.924   7.559   4.315
31060WAT     H293423   4.764   7.528   4.333
31061WAT      O93424   6.365   5.765   1.840
31061WAT     H193425   6.365   5.804   1.931
31061WAT     H293426   6.390   5.668   1.845
31062WAT      O93427   8.582   2.073   5.342
31062WAT     H193428   8.643   2.120   5.278
31062WAT     H293429   8.635   2.008   5.396
31063WAT      O93430   1.840   3.015   7.912
31063WAT     H193431   1.821   2.957   7.991
31063WAT     H293432   1.783   3.097   7.916
31064WAT      O93433   7.918   4.090   3.887
31064WAT     H193434   7.920   4.189   3.904
31064WAT     H293435   7.943   4.072   3.792
31065WAT      O93436   4.851   2.047   3.338
31065WAT     H193437   4.912   1.973   3.308
31065WAT     H293438   4.905   2.128   3.360
31066WAT      O93439   7.731   2.477   4.346
31066WAT     H193440   7.745   2.378   4.337
31066WAT     H293441   7.731   2.519   4.256
31067WAT      O93442   0.032   8.732   9.170
31067WAT     H193443   0.018   8.641   9.208
31067WAT     H293444  -0.057   8.777   9.160
31068WAT      O93445   1.194   4.410   2.316
31068WAT     H193446   1.128   4.459   2.259
31068WAT     H293447   1.191   4.313   2.294
31069WAT      O93448   6.574   0.897   0.678
31069WAT     H193449   6.628   0.940   0.606
31069WAT     H293450   6.519   0.966   0.725
31070WAT      O93451   0.446   9.581   2.860
31070WAT     H193452   0.388   9.602   2.938
31070WAT     H293453   0.388   9.561   2.780
31071WAT      O93454   2.054   9.354   8.333
31071WAT     H193455   2.048   9.254   8.334
31071WAT     H293456   2.035   9.388   8.241
31072WAT      O93457   0.937   2.302   3.437
31072WAT     H193458   0.897   2.221   3.395
31072WAT     H293459   0.988   2.275   3.519
31073WAT      O93460   3.973   2.933   2.865
31073WAT     H193461   3.969   2.989   2.782
31073WAT     H293462   3.963   2.837   2.840
31074WAT      O93463   5.031   2.211   8.321
31074WAT     H193464   4.991   2.295   8.284
31074WAT     H293465   4.964   2.167   8.380
31075WAT      O93466   3.769   8.956   3.137
31075WAT     H193467   3.777   8.869   3.089
31075WAT     H293468   3.821   8.952   3.222
31076WAT      O93469   3.454   8.507   6.488
31076WAT     H193470   3.427   8.442   6.559
31076WAT     H293471   3.403   8.592   6.500
31077WAT      O93472   6.090   1.544   9.785
31077WAT     H193473   6.118   1.485   9.860
31077WAT     H293474   6.013   1.601   9.813
31078WAT      O93475   3.280   1.573   6.750
31078WAT     H193476   3.301   1.652   6.692
31078WAT     H293477   3.291   1.598   6.846
31079WAT      O93478   3.002   7.666   5.430
31079WAT     H193479   2.976   7.575   5.463
31079WAT     H293480   3.003   7.731   5.506
31080WAT      O93481   8.222   3.924   1.477
31080WAT     H193482   8.234   3.947   1.381
31080WAT     H293483   8.214   4.008   1.531
31081WAT      O93484   9.178   5.520   3.045
31081WAT     H193485   9.207   5.428   3.018
31081WAT     H293486   9.137   5.516   3.136
31082WAT      O93487   4.165   6.490   3.709
31082WAT     H193488   4.216   6.422   3.656
31082WAT     H293489   4.092   6.528   3.653
31083WAT      O93490   2.750   0.902   0.097
31083WAT     H193491   2.711   0.939   0.012
31083WAT     H293492   2.785   0.978   0.152
31084WAT      O93493   4.028   5.854   1.270
31084WAT     H193494   4.068   5.777   1.319
31084WAT     H293495   3.942   5.826   1.228
31085WAT      O93496   0.047   7.232   3.519
31085WAT     H193497  -0.011   7.176   3.578
31085WAT     H293498  -0.009   7.304   3.477
31086WAT      O93499   9.558   7.383   2.593
31086WAT     H193500   9.543   7.482   2.591
31086WAT     H293501   9.656   7.363   2.586
31087WAT      O93502   7.092   2.518   1.523
31087WAT     H193503   7.068   2.544   1.617
31087WAT     H293504   7.026   2.451   1.490
31088WAT      O93505   4.844   2.253   1.084
31088WAT     H193506   4.818   2.159   1.061
31088WAT     H293507   4.893   2.253   1.171
31089WAT      O93508   4.279   0.436   1.793
31089WAT     H193509   4.266   0.337   1.789
31089WAT     H293510   4.194   0.482   1.764
31090WAT      O93511   9.245   3.189   8.903
31090WAT     H193512   9.240   3.238   8.990
31090WAT     H293513   9.159   3.202   8.853
31091WAT      O93514   7.832   7.904   4.603
31091WAT     H193515   7.902   7.970   4.578
31091WAT     H293516   7.862   7.851   4.683
31092WAT      O93517   9.179   8.579   5.528
31092WAT     H193518   9.137   8.667   5.504
31092WAT     H293519   9.114   8.505   5.511
31093WAT      O93520   2.336   4.207   2.213
31093WAT     H193521   2.432   4.235   2.222
31093WAT     H293522   2.278   4.289   2.214
31094WAT      O93523   6.411   0.717   9.238
31094WAT     H193524   6.392   0.642   9.175
31094WAT     H293525   6.509   0.720   9.258
31095WAT      O93526   4.507   6.240   8.647
31095WAT     H193527   4.472   6.163   8.700
31095WAT     H293528   4.604   6.253   8.667
31096WAT      O93529   3.803   6.693   1.176
31096WAT     H193530   3.771   6.599   1.193
31096WAT     H293531   3.725   6.756   1.180
31097WAT      O93532   2.488   4.406   9.462
31097WAT     H193533   2.394   4.389   9.489
31097WAT     H293534   2.545   4.327   9.487
31098WAT      O93535   7.090   8.398   5.386
31098WAT     H193536   7.129   8.483   5.419
31098WAT     H293537   7.139   8.320   5.425
31099WAT      O93538   2.033   3.526   0.656
31099WAT     H193539   2.085   3.478   0.727
31099WAT     H293540   1.982   3.602   0.698
31100WAT      O93541   8.900   8.534   6.614
31100WAT     H193542   8.806   8.540   6.647
31100WAT     H293543   8.901   8.535   6.514
31101WAT      O93544   4.386   5.038   3.097
31101WAT     H193545   4.420   4.958   3.147
31101WAT     H293546   4.440   5.051   3.014
31102WAT      O93547   9.438   8.501   2.399
31102WAT     H193548   9.479   8.564   2.466
31102WAT     H293549   9.510   8.446   2.357
31103WAT      O93550   1.196   4.121   5.946
31103WAT     H193551   1.252   4.045   5.980
31103WAT     H293552   1.232   4.152   5.858
31104WAT      O93553   7.032   2.255   2.620
31104WAT     H193554   6.967   2.226   2.550
31104WAT     H293555   7.058   2.177   2.677
31105WAT      O93556   9.309   4.596   8.120
31105WAT     H193557   9.382   4.588   8.188
31105WAT     H293558   9.268   4.687   8.126
31106WAT      O93559   6.399   3.648   6.542
31106WAT     H193560   6.368   3.743   6.532
31106WAT     H293561   6.330   3.595   6.592
31107WAT      O93562   0.011   5.014   1.916
31107WAT     H193563  -0.053   4.938   1.907
31107WAT     H293564   0.046   5.017   2.010
31108WAT      O93565   9.498   1.431   4.137
31108WAT     H193566   9.490   1.489   4.218
31108WAT     H293567   9.523   1.488   4.058
31109WAT      O93568   5.394   4.402   5.592
31109WAT     H193569   5.440   4.331   5.646
31109WAT     H293570   5.417   4.492   5.628
31110WAT      O93571   0.303   6.985   7.617
31110WAT     H193572   0.278   7.075   7.654
31110WAT     H293573   0.236   6.918   7.647
31111WAT      O93574   8.460   0.266   9.652
31111WAT     H193575   8.466   0.365   9.659
31111WAT     H293576   8.527   0.232   9.586
31112WAT      O93577   8.186   4.778   1.221
31112WAT     H193578   8.275   4.819   1.201
31112WAT     H293579   8.113   4.837   1.184
31113WAT      O93580   0.346   3.041   9.811
31113WAT     H193581   0.334   3.139   9.827
31113WAT     H293582   0.268   2.991   9.851
31114WAT      O93583   5.457   6.225   5.001
31114WAT     H193584   5.387   6.290   5.031
31114WAT     H293585   5.455   6.216   4.902
31115WAT      O93586   8.124   7.115   7.500
31115WAT     H193587   8.050   7.171   7.463
31115WAT     H293588   8.172   7.166   7.571
31116WAT      O93589   3.614   0.729   4.131
31116WAT     H193590   3.625   0.744   4.230
31116WAT     H293591   3.697   0.758   4.083
31117WAT      O93592   7.543   2.030   0.067
31117WAT     H193593   7.553   2.074   0.157
31117WAT     H293594   7.472   2.077   0.015
31118WAT      O93595   0.682   8.447   1.772
31118WAT     H193596   0.712   8.355   1.794
31118WAT     H293597   0.603   8.471   1.829
31119WAT      O93598   7.967   0.894   0.848
31119WAT     H193599   7.997   0.799   0.845
31119WAT     H293600   7.886   0.902   0.906
31120WAT      O93601   1.431   3.596   2.676
31120WAT     H193602   1.499   3.595   2.602
31120WAT     H293603   1.474   3.625   2.761
31121WAT      O93604   4.379   4.213   3.194
31121WAT     H193605   4.296   4.237   3.244
31121WAT     H293606   4.439   4.293   3.189
31122WAT      O93607   6.010   5.305   9.515
31122WAT     H193608   6.104   5.288   9.545
31122WAT     H293609   5.960   5.352   9.588
31123WAT      O93610   7.901   8.651   8.005
31123WAT     H193611   7.973   8.661   8.074
31123WAT     H293612   7.829   8.717   8.024
31124WAT      O93613   4.468   9.832   5.562
31124WAT     H193614   4.417   9.845   5.477
31124WAT     H293615   4.566   9.822   5.542
31125WAT      O93616   6.503   5.964   0.232
31125WAT     H193617   6.566   6.011   0.293
31125WAT     H293618   6.501   5.867   0.256
31126WAT      O93619   2.863   2.595   9.303
31126WAT     H193620   2.827   2.570   9.213
31126WAT     H293621   2.885   2.693   9.304
31127WAT      O93622   7.142   0.453   1.830
31127WAT     H193623   7.138   0.468   1.732
31127WAT     H293624   7.055   0.416   1.862
31128WAT      O93625   1.193   9.660   0.231
31128WAT     H193626   1.166   9.653   0.327
31128WAT     H293627   1.153   9.584   0.180
31129WAT      O93628   2.540   6.510   4.693
31129WAT     H193629   2.442   6.504   4.711
31129WAT     H293630   2.554   6.545   4.600
31130WAT      O93631   8.578   3.339   9.864
31130WAT     H193632   8.534   3.402   9.800
31130WAT     H293633   8.671   3.320   9.834
31131WAT      O93634   8.491   1.603   6.771
31131WAT     H193635   8.544   1.688   6.778
31131WAT     H293636   8.447   1.584   6.859
31132WAT      O93637   8.944   7.256   0.853
31132WAT     H193638   8.931   7.192   0.929
31132WAT     H293639   9.042   7.266   0.834
31133WAT      O93640   0.106   1.753   3.025
31133WAT     H193641   0.039   1.733   2.954
31133WAT     H293642   0.197   1.763   2.984
31134WAT      O93643   9.734   0.026   9.090
31134WAT     H193644   9.759  -0.068   9.069
31134WAT     H293645   9.679   0.063   9.015
31135WAT      O93646   9.313   3.922   6.505
31135WAT     H193647   9.409   3.918   6.530
31135WAT     H293648   9.278   4.015   6.521
31136WAT      O93649   5.401   2.415   5.937
31136WAT     H193650   5.442   2.428   5.847
31136WAT     H293651   5.473   2.402   6.005
31137WAT      O93652   2.136   0.706   2.220
31137WAT     H193653   2.095   0.616   2.201
31137WAT     H293654   2.190   0.701   2.304
31138WAT      O93655   9.064   8.510   4.292
31138WAT     H193656   9.074   8.609   4.280
31138WAT     H293657   8.973   8.490   4.328
31139WAT      O93658   5.602   8.304   4.304
31139WAT     H193659   5.645   8.385   4.345
31139WAT     H293660   5.613   8.226   4.365
31140WAT      O93661   4.137   7.263   5.282
31140WAT     H193662   4.179   7.247   5.193
31140WAT     H293663   4.122   7.361   5.294
31141WAT      O93664   6.270   9.662   1.766
31141WAT     H193665   6.258   9.613   1.679
31141WAT     H293666   6.267   9.597   1.842
31142WAT      O93667   3.098   6.159   2.420
31142WAT     H193668   3.134   6.210   2.341
31142WAT     H293669   3.154   6.179   2.501
31143WAT      O93670   3.632   5.447   2.259
31143WAT     H193671   3.714   5.394   2.237
31143WAT     H293672   3.656   5.520   2.323
31144WAT      O93673   0.857   2.454   5.225
31144WAT     H193674   0.819   2.395   5.154
31144WAT     H293675   0.942   2.496   5.192
31145WAT      O93676   2.920   5.285   4.167
31145WAT     H193677   2.895   5.258   4.074
31145WAT     H293678   2.885   5.378   4.185
31146WAT      O93679   0.933   8.970   0.367
31146WAT     H193680   0.871   8.909   0.318
31146WAT     H293681   0.881   9.022   0.435
31147WAT      O93682   9.580   2.683   6.024
31147WAT     H193683   9.496   2.730   5.994
31147WAT     H293684   9.565   2.584   6.021
31148WAT      O93685   1.887   2.626   8.531
31148WAT     H193686   1.842   2.549   8.485
31148WAT     H293687   1.969   2.594   8.579
31149WAT      O93688   3.862   6.723   4.860
31149WAT     H193689   3.945   6.692   4.813
31149WAT     H293690   3.844   6.664   4.938
31150WAT      O93691   5.243   2.320   9.408
31150WAT     H193692   5.156   2.273   9.400
31150WAT     H293693   5.233   2.414   9.375
31151WAT      O93694   6.558   5.977   6.875
31151WAT     H193695   6.467   5.954   6.841
31151WAT     H293696   6.627   5.948   6.807
31152WAT      O93697   8.352   6.793   8.152
31152WAT     H193698   8.396   6.727   8.214
31152WAT     H293699   8.422   6.837   8.096
31153WAT      O93700   1.168   2.435   2.285
31153WAT     H193701   1.104   2.509   2.305
31153WAT     H293702   1.162   2.365   2.356
31154WAT      O93703   1.836   7.587   6.899
31154WAT     H193704   1.826   7.521   6.973
31154WAT     H293705   1.929   7.624   6.900
31155WAT      O93706   2.611   3.894   9.695
31155WAT     H193707   2.569   3.920   9.608
31155WAT     H293708   2.542   3.899   9.767
31156WAT      O93709   9.793   7.069   7.788
31156WAT     H193710   9.890   7.078   7.811
31156WAT     H293711   9.778   6.980   7.744
31157WAT      O93712   0.276   5.427   0.906
31157WAT     H193713   0.195   5.429   0.965
31157WAT     H293714   0.322   5.516   0.910
31158WAT      O93715   6.447   6.064   6.004
31158WAT     H193716   6.413   6.025   5.918
31158WAT     H293717   6.546   6.049   6.010
31159WAT      O93718   0.171   0.959   2.484
31159WAT     H193719   0.239   1.029   2.462
31159WAT     H293720   0.149   0.963   2.582
31160WAT      O93721   8.609   5.514   6.578
31160WAT     H193722   8.560   5.534   6.493
31160WAT     H293723   8.544   5.479   6.646
31161WAT      O93724   8.041   5.579   3.407
31161WAT     H193725   8.049   5.604   3.504
31161WAT     H293726   8.089   5.645   3.351
31162WAT      O93727   2.272   6.764   1.022
31162WAT     H193728   2.279   6.745   1.120
31162WAT     H293729   2.363   6.765   0.981
31163WAT      O93730   9.013   8.242   2.012
31163WAT     H193731   8.961   8.303   2.072
31163WAT     H293732   8.966   8.154   2.004
31164WAT      O93733   0.631   2.477   1.018
31164WAT     H193734   0.726   2.496   1.042
31164WAT     H293735   0.627   2.392   0.966
31165WAT      O93736   4.168   7.669   3.210
31165WAT     H193737   4.128   7.749   3.165
31165WAT     H293738   4.198   7.603   3.141
31166WAT      O93739   2.408   7.066   0.120
31166WAT     H193740   2.335   7.031   0.180
31166WAT     H293741   2.409   7.013   0.035
31167WAT      O93742   7.745   3.135   1.702
31167WAT     H193743   7.736   3.035   1.697
31167WAT     H293744   7.658   3.177   1.678
31168WAT      O93745   2.305   9.659   1.683
31168WAT     H193746   2.248   9.740   1.693
31168WAT     H293747   2.325   9.644   1.586
31169WAT      O93748   4.015   7.994   8.435
31169WAT     H193749   4.112   7.990   8.413
31169WAT     H293750   3.965   8.032   8.357
31170WAT      O93751   1.814   8.821   4.560
31170WAT     H193752   1.890   8.824   4.625
31170WAT     H293753   1.829   8.747   4.494
31171WAT      O93754   5.958   6.655   7.814
31171WAT     H193755   5.911   6.743   7.812
31171WAT     H293756   5.989   6.636   7.907
31172WAT      O93757   4.992   0.695   2.876
31172WAT     H193758   4.961   0.670   2.784
31172WAT     H293759   4.912   0.715   2.933
31173WAT      O93760   8.662   3.089   9.264
31173WAT     H193761   8.711   3.161   9.314
31173WAT     H293762   8.581   3.061   9.316
31174WAT      O93763   1.730   6.102   7.387
31174WAT     H193764   1.707   6.098   7.290
31174WAT     H293765   1.823   6.136   7.398
31175WAT      O93766   9.173   5.781   0.538
31175WAT     H193767   9.121   5.857   0.497
31175WAT     H293768   9.252   5.761   0.480
31176WAT      O93769   3.210   3.587   3.622
31176WAT     H193770   3.148   3.645   3.569
31176WAT     H293771   3.274   3.541   3.559
31177WAT      O93772   9.020   5.226   9.289
31177WAT     H193773   8.943   5.270   9.242
31177WAT     H293774   9.086   5.193   9.222
31178WAT      O93775   1.909   5.027   8.014
31178WAT     H193776   1.947   4.962   8.081
31178WAT     H293777   1.971   5.104   8.003
31179WAT      O93778   1.800   0.172   4.696
31179WAT     H193779   1.740   0.248   4.671
31179WAT     H293780   1.762   0.087   4.661
31180WAT      O93781   5.261   9.777   7.884
31180WAT     H193782   5.326   9.704   7.905
31180WAT     H293783   5.311   9.861   7.861
31181WAT      O93784   5.601   3.918   1.656
31181WAT     H193785   5.681   3.860   1.671
31181WAT     H293786   5.610   4.001   1.711
31182WAT      O93787   8.216   8.962   2.964
31182WAT     H193788   8.192   9.016   3.044
31182WAT     H293789   8.288   9.009   2.912
31183WAT      O93790   4.428   8.010   9.720
31183WAT     H193791   4.463   7.916   9.721
31183WAT     H293792   4.402   8.036   9.627
31184WAT      O93793   9.436   8.359   3.159
31184WAT     H193794   9.342   8.339   3.185
31184WAT     H293795   9.471   8.284   3.102
31185WAT      O93796   7.882   7.201   1.081
31185WAT     H193797   7.931   7.203   0.993
31185WAT     H293798   7.918   7.127   1.137
31186WAT      O93799   5.889   6.349   8.892
31186WAT     H193800   5.950   6.404   8.834
31186WAT     H293801   5.841   6.282   8.835
31187WAT      O93802   5.312   0.854   8.148
31187WAT     H193803   5.389   0.910   8.116
31187WAT     H293804   5.341   0.797   8.225
31188WAT      O93805   7.530   1.779   0.210
31188WAT     H193806   7.442   1.782   0.258
31188WAT     H293807   7.526   1.840   0.131
31189WAT      O93808   3.693   4.864   1.993
31189WAT     H193809   3.689   4.961   2.016
31189WAT     H293810   3.783   4.843   1.953
31190WAT      O93811   4.599   9.657   4.538
31190WAT     H193812   4.688   9.653   4.584
31190WAT     H293813   4.538   9.717   4.591
31191WAT      O93814   7.068   5.929   1.595
31191WAT     H193815   7.059   6.017   1.641
31191WAT     H293816   7.144   5.932   1.530
31192WAT      O93817   8.891   8.308   0.212
31192WAT     H193818   8.896   8.316   0.113
31192WAT     H293819   8.944   8.381   0.254
31193WAT      O93820   5.057   3.989   7.268
31193WAT     H193821   5.026   4.003   7.362
31193WAT     H293822   5.035   3.895   7.240
31194WAT      O93823   5.212   7.531   4.835
31194WAT     H193824   5.261   7.444   4.840
31194WAT     H293825   5.260   7.599   4.891
31195WAT      O93826   8.030   2.134   5.079
31195WAT     H193827   8.007   2.198   5.006
31195WAT     H293828   8.071   2.184   5.156
31196WAT      O93829   4.838   6.848   5.454
31196WAT     H193830   4.808   6.889   5.368
31196WAT     H293831   4.900   6.911   5.502
31197WAT      O93832   5.852   2.615   2.289
31197WAT     H193833   5.854   2.715   2.294
31197WAT     H293834   5.845   2.586   2.193
31198WAT      O93835   3.212   0.910   6.591
31198WAT     H193836   3.220   0.963   6.506
31198WAT     H293837   3.245   0.817   6.575
31199WAT      O93838   9.221   1.734   0.097
31199WAT     H193839   9.215   1.672   0.019
31199WAT     H293840   9.302   1.791   0.089
31200WAT      O93841   7.365   1.362   0.330
31200WAT     H193842   7.269   1.390   0.343
31200WAT     H293843   7.377   1.329   0.237
31201WAT      O93844   8.687   5.988   1.083
31201WAT     H193845   8.591   5.968   1.102
31201WAT     H293846   8.732   6.017   1.167
31202WAT      O93847   5.865   6.634   4.814
31202WAT     H193848   5.825   6.548   4.846
31202WAT     H293849   5.939   6.660   4.875
31203WAT      O93850   1.436   1.151   3.917
31203WAT     H193851   1.505   1.200   3.971
31203WAT     H293852   1.479   1.073   3.871
31204WAT      O93853   6.665   3.050   7.176
31204WAT     H193854   6.741   3.097   7.220
31204WAT     H293855   6.701   2.988   7.106
31205WAT      O93856   8.914   4.336   2.161
31205WAT     H193857   8.937   4.380   2.248
31205WAT     H293858   8.997   4.328   2.105
31206WAT      O93859   9.737   6.078   5.655
31206WAT     H193860   9.694   6.112   5.738
31206WAT     H293861   9.702   6.129   5.576
31207WAT      O93862   1.619   2.950   0.032
31207WAT     H193863   1.705   2.948  -0.019
31207WAT     H293864   1.545   2.980  -0.029
31208WAT      O93865   4.188   7.799   1.393
31208WAT     H193866   4.120   7.733   1.361
31208WAT     H293867   4.279   7.758   1.391
31209WAT      O93868   1.519   4.093   0.291
31209WAT     H193869   1.493   4.182   0.329
31209WAT     H293870   1.596   4.056   0.343
31210WAT      O93871   6.567   6.689   1.271
31210WAT     H193872   6.542   6.785   1.257
31210WAT     H293873   6.522   6.633   1.202
31211WAT      O93874   0.069   4.660   7.947
31211WAT     H193875   0.062   4.595   8.022
31211WAT     H293876   0.163   4.663   7.914
31212WAT      O93877   1.606   5.600   2.810
31212WAT     H193878   1.550   5.671   2.766
31212WAT     H293879   1.586   5.511   2.769
31213WAT      O93880   7.870   9.192   2.016
31213WAT     H193881   7.888   9.280   1.973
31213WAT     H293882   7.847   9.205   2.112
31214WAT      O93883   3.750   4.254   3.992
31214WAT     H193884   3.713   4.226   3.903
31214WAT     H293885   3.725   4.349   4.010
31215WAT      O93886   6.757   5.216   9.314
31215WAT     H193887   6.824   5.182   9.247
31215WAT     H293888   6.682   5.150   9.321
31216WAT      O93889   9.595   6.437   6.173
31216WAT     H193890   9.524   6.370   6.193
31216WAT     H293891   9.685   6.393   6.178
31217WAT      O93892   2.644   0.069   2.273
31217WAT     H193893   2.738   0.103   2.263
31217WAT     H293894   2.599   0.117   2.348
31218WAT      O93895   6.399   8.078   0.769
31218WAT     H193896   6.426   8.020   0.847
31218WAT     H293897   6.481   8.105   0.718
31219WAT      O93898   5.085   4.031   8.930
31219WAT     H193899   5.097   3.971   9.009
31219WAT     H293900   4.998   4.012   8.886
31220WAT      O93901   9.459   8.810   7.472
31220WAT     H193902   9.496   8.726   7.512
31220WAT     H293903   9.534   8.872   7.449
31221WAT      O93904   7.708   6.244   5.695
31221WAT     H193905   7.748   6.176   5.634
31221WAT     H293906   7.611   6.224   5.709
31222WAT      O93907   6.949   9.575   6.042
31222WAT     H193908   6.919   9.489   6.084
31222WAT     H293909   6.882   9.646   6.062
31223WAT      O93910   8.816   8.949   8.319
31223WAT     H193911   8.744   8.886   8.348
31223WAT     H293912   8.810   8.963   8.220
31224WAT      O93913   0.522   5.432   8.455
31224WAT     H193914   0.540   5.334   8.455
31224WAT     H293915   0.526   5.467   8.549
31225WAT      O93916   2.724   4.002   4.053
31225WAT     H193917   2.768   4.066   4.116
31225WAT     H293918   2.786   3.982   3.977
31226WAT      O93919   2.932   3.248   8.298
31226WAT     H193920   2.923   3.169   8.359
31226WAT     H293921   2.896   3.224   8.208
31227WAT      O93922   0.754   0.273   8.157
31227WAT     H193923   0.663   0.291   8.195
31227WAT     H293924   0.822   0.322   8.211
31228WAT      O93925   0.207   5.102   0.355
31228WAT     H193926   0.153   5.086   0.437
31228WAT     H293927   0.272   5.177   0.370
31229WAT      O93928   2.520   2.158   4.883
31229WAT     H193929   2.429   2.143   4.923
31229WAT     H293930   2.559   2.071   4.856
31230WAT      O93931   1.027   7.395   4.978
31230WAT     H193932   1.028   7.484   5.023
31230WAT     H293933   0.933   7.364   4.967
31231WAT      O93934   4.908   4.580   0.163
31231WAT     H193935   4.993   4.596   0.112
31231WAT     H293936   4.840   4.537   0.104
31232WAT      O93937   1.442   8.603   1.238
31232WAT     H193938   1.468   8.697   1.262
31232WAT     H293939   1.342   8.595   1.237
31233WAT      O93940   8.145   6.443   5.067
31233WAT     H193941   8.056   6.399   5.079
31233WAT     H293942   8.185   6.413   4.980
31234WAT      O93943   1.578   8.014   1.590
31234WAT     H193944   1.486   8.037   1.623
31234WAT     H293945   1.602   7.922   1.620
31235WAT      O93946   8.158   0.884   8.817
31235WAT     H193947   8.149   0.801   8.872
31235WAT     H293948   8.068   0.912   8.784
31236WAT      O93949   6.970   5.583   3.516
31236WAT     H193950   6.904   5.610   3.445
31236WAT     H293951   6.993   5.662   3.572
31237WAT      O93952   3.033   9.708   7.194
31237WAT     H193953   2.942   9.666   7.196
31237WAT     H293954   3.100   9.641   7.160
31238WAT      O93955   0.333   3.949   3.172
31238WAT     H193956   0.425   3.939   3.132
31238WAT     H293957   0.341   3.962   3.271
31239WAT      O93958   5.082   5.801   4.379
31239WAT     H193959   5.027   5.720   4.358
31239WAT     H293960   5.039   5.882   4.338
31240WAT      O93961   1.293   6.690   0.620
31240WAT     H193962   1.391   6.700   0.637
31240WAT     H293963   1.252   6.635   0.693
31241WAT      O93964   0.700   9.656   7.995
31241WAT     H193965   0.783   9.646   8.048
31241WAT     H293966   0.691   9.751   7.964
31242WAT      O93967   7.101   7.467   9.303
31242WAT     H193968   7.085   7.539   9.236
31242WAT     H293969   7.070   7.498   9.393
31243WAT      O93970   8.560   9.495   7.370
31243WAT     H193971   8.638   9.498   7.433
31243WAT     H293972   8.492   9.430   7.404
31244WAT      O93973   7.154   9.835   1.950
31244WAT     H193974   7.251   9.858   1.943
31244WAT     H293975   7.104   9.909   1.994
31245WAT      O93976   1.017   0.816   1.059
31245WAT     H193977   0.921   0.795   1.042
31245WAT     H293978   1.025   0.871   1.142
31246WAT      O93979   7.910   0.264   7.696
31246WAT     H193980   7.993   0.214   7.718
31246WAT     H293981   7.914   0.356   7.734
31247WAT      O93982   8.626   0.745   3.088
31247WAT     H193983   8.540   0.780   3.126
31247WAT     H293984   8.670   0.816   3.033
31248WAT      O93985   2.302   0.530   0.069
31248WAT     H193986   2.399   0.537   0.045
31248WAT     H293987   2.250   0.600   0.018
31249WAT      O93988   7.293   1.990   9.409
31249WAT     H193989   7.277   1.934   9.328
31249WAT     H293990   7.237   2.072   9.405
31250WAT      O93991   6.573   8.982   1.521
31250WAT     H193992   6.594   8.894   1.479
31250WAT     H293993   6.651   9.043   1.513
31251WAT      O93994   5.605   0.289   5.280
31251WAT     H193995   5.514   0.284   5.241
31251WAT     H293996   5.615   0.221   5.353
31252WAT      O93997   2.728   7.456   3.238
31252WAT     H193998   2.677   7.381   3.280
31252WAT     H293999   2.671   7.539   3.239
31253WAT      O94000   8.141   4.958   6.760
31253WAT     H194001   8.069   4.889   6.755
31253WAT     H294002   8.211   4.938   6.692
31254WAT      O94003   9.483   5.996   3.090
31254WAT     H194004   9.499   5.996   2.991
31254WAT     H294005   9.385   5.991   3.108
31255WAT      O94006   1.349   6.654   1.705
31255WAT     H194007   1.397   6.580   1.751
31255WAT     H294008   1.294   6.617   1.630
31256WAT      O94009   8.937   7.544   8.845
31256WAT     H194010   8.919   7.490   8.762
31256WAT     H294011   8.980   7.486   8.914
31257WAT      O94012   6.232   3.127   3.421
31257WAT     H194013   6.207   3.056   3.488
31257WAT     H294014   6.310   3.095   3.367
31258WAT      O94015   0.587   2.324   5.790
31258WAT     H194016   0.582   2.305   5.888
31258WAT     H294017   0.536   2.254   5.739
31259WAT      O94018   5.274   5.698   3.802
31259WAT     H194019   5.302   5.790   3.829
31259WAT     H294020   5.349   5.634   3.820
31260WAT      O94021   7.630   8.498   6.579
31260WAT     H194022   7.546   8.456   6.545
31260WAT     H294023   7.706   8.434   6.570
31261WAT      O94024   2.487   5.109   4.657
31261WAT     H194025   2.575   5.065   4.638
31261WAT     H294026   2.476   5.189   4.598
31262WAT      O94027   8.241   5.720   1.064
31262WAT     H194028   8.308   5.677   1.003
31262WAT     H294029   8.189   5.649   1.111
31263WAT      O94030   8.689   4.454   1.361
31263WAT     H194031   8.730   4.520   1.425
31263WAT     H294032   8.673   4.499   1.273
31264WAT      O94033   8.789   4.458   7.256
31264WAT     H194034   8.879   4.489   7.287
31264WAT     H294035   8.757   4.518   7.183
31265WAT      O94036   7.716   5.424   8.411
31265WAT     H194037   7.686   5.519   8.420
31265WAT     H294038   7.637   5.365   8.393
31266WAT      O94039   4.729   3.876   0.667
31266WAT     H194040   4.823   3.840   0.664
31266WAT     H294041   4.677   3.828   0.737
31267WAT      O94042   7.246   1.665   3.834
31267WAT     H194043   7.312   1.606   3.788
31267WAT     H294044   7.270   1.672   3.931
31268WAT      O94045   9.805   4.880   8.027
31268WAT     H194046   9.841   4.787   8.025
31268WAT     H294047   9.857   4.939   7.966
31269WAT      O94048   5.604   7.546   0.047
31269WAT     H194049   5.695   7.509   0.061
31269WAT     H294050   5.543   7.515   0.120
31270WAT      O94051   6.772   5.976   4.152
31270WAT     H194052   6.767   5.898   4.214
31270WAT     H294053   6.805   5.946   4.062
31271WAT      O94054   0.994   1.140   2.117
31271WAT     H194055   0.962   1.222   2.070
31271WAT     H294056   0.953   1.059   2.074
31272WAT      O94057   4.694   2.471   6.725
31272WAT     H194058   4.609   2.462   6.777
31272WAT     H294059   4.673   2.479   6.627
31273WAT      O94060   8.556   4.128   3.414
31273WAT     H194061   8.543   4.225   3.432
31273WAT     H294062   8.654   4.109   3.401
31274WAT      O94063   6.289   7.147   7.508
31274WAT     H194064   6.348   7.198   7.445
31274WAT     H294065   6.342   7.075   7.553
31275WAT      O94066   9.846   6.879   8.452
31275WAT     H194067   9.867   6.900   8.357
31275WAT     H294068   9.922   6.908   8.510
31276WAT      O94069   1.296   0.804   3.527
31276WAT     H194070   1.392   0.784   3.547
31276WAT     H294071   1.238   0.735   3.569
31277WAT      O94072   5.815   0.580   4.944
31277WAT     H194073   5.914   0.566   4.948
31277WAT     H294074   5.774   0.548   5.030
31278WAT      O94075   1.529   1.544   0.619
31278WAT     H194076   1.458   1.573   0.555
31278WAT     H294077   1.619   1.551   0.575
31279WAT      O94078   5.933   4.181   7.487
31279WAT     H194079   5.865   4.159   7.417
31279WAT     H294080   5.957   4.278   7.481
31280WAT      O94081   7.010   0.971   6.381
31280WAT     H194082   7.103   0.942   6.407
31280WAT     H294083   7.013   1.064   6.344
31281WAT      O94084   3.332   2.938   3.363
31281WAT     H194085   3.387   2.935   3.447
31281WAT     H294086   3.370   2.875   3.296
31282WAT      O94087   4.425   2.432   3.155
31282WAT     H194088   4.418   2.524   3.191
31282WAT     H294089   4.490   2.430   3.079
31283WAT      O94090   0.207   7.495   5.249
31283WAT     H194091   0.227   7.405   5.212
31283WAT     H294092   0.288   7.532   5.294
31284WAT      O94093   0.116   1.963   7.330
31284WAT     H194094   0.074   2.013   7.255
31284WAT     H294095   0.117   2.020   7.412
31285WAT      O94096   7.822   7.483   4.961
31285WAT     H194097   7.766   7.463   5.041
31285WAT     H294098   7.835   7.582   4.953
31286WAT      O94099   8.667   4.830   5.616
31286WAT     H194100   8.619   4.895   5.556
31286WAT     H294101   8.761   4.819   5.583
31287WAT      O94102   3.288   3.712   7.092
31287WAT     H194103   3.340   3.626   7.083
31287WAT     H294104   3.336   3.772   7.156
31288WAT      O94105   7.560   2.549   5.869
31288WAT     H194106   7.639   2.491   5.891
31288WAT     H294107   7.551   2.621   5.939
31289WAT      O94108   9.479   6.163   1.275
31289WAT     H194109   9.550   6.126   1.216
31289WAT     H294110   9.428   6.088   1.318
31290WAT      O94111   7.499   4.949   7.478
31290WAT     H194112   7.538   5.037   7.505
31290WAT     H294113   7.502   4.886   7.557
31291WAT      O94114   5.685   8.371   1.558
31291WAT     H194115   5.647   8.427   1.484
31291WAT     H294116   5.783   8.359   1.543
31292WAT      O94117   1.700   3.612   5.847
31292WAT     H194118   1.627   3.544   5.847
31292WAT     H294119   1.726   3.633   5.941
31293WAT      O94120   3.352   8.736   4.270
31293WAT     H194121   3.305   8.649   4.256
31293WAT     H294122   3.367   8.751   4.368
31294WAT      O94123   0.307   6.644   6.379
31294WAT     H194124   0.401   6.677   6.364
31294WAT     H294125   0.289   6.638   6.477
31295WAT      O94126   3.848   1.077   0.578
31295WAT     H194127   3.928   1.052   0.523
31295WAT     H294128   3.849   1.176   0.595
31296WAT      O94129   4.677   9.391   6.062
31296WAT     H194130   4.740   9.361   5.991
31296WAT     H294131   4.702   9.349   6.149
31297WAT      O94132   1.957   4.794   6.499
31297WAT     H194133   1.958   4.751   6.589
31297WAT     H294134   1.923   4.729   6.432
31298WAT      O94135   0.572   0.424   2.563
31298WAT     H194136   0.548   0.484   2.487
31298WAT     H294137   0.594   0.333   2.528
31299WAT      O94138   9.501   1.274   4.779
31299WAT     H194139   9.456   1.351   4.824
31299WAT     H294140   9.595   1.266   4.813
31300WAT      O94141   0.052   5.848   4.381
31300WAT     H194142   0.144   5.869   4.415
31300WAT     H294143   0.038   5.896   4.294
31301WAT      O94144   4.302   7.549   1.173
31301WAT     H194145   4.288   7.530   1.270
31301WAT     H294146   4.221   7.520   1.121
31302WAT      O94147   4.193   8.199   7.673
31302WAT     H194148   4.174   8.105   7.702
31302WAT     H294149   4.256   8.242   7.738
31303WAT      O94150   6.638   6.784   0.017
31303WAT     H194151   6.661   6.765   0.112
31303WAT     H294152   6.709   6.745  -0.043
31304WAT      O94153   6.559   7.392   3.487
31304WAT     H194154   6.635   7.336   3.455
31304WAT     H294155   6.561   7.481   3.441
31305WAT      O94156   6.582   5.144   6.727
31305WAT     H194157   6.646   5.135   6.804
31305WAT     H294158   6.498   5.094   6.748
31306WAT      O94159   6.431   4.282   0.900
31306WAT     H194160   6.470   4.194   0.927
31306WAT     H294161   6.395   4.329   0.981
31307WAT      O94162   7.464   8.549   0.366
31307WAT     H194163   7.377   8.595   0.353
31307WAT     H294164   7.454   8.480   0.439
31308WAT      O94165   9.321   5.392   4.335
31308WAT     H194166   9.418   5.406   4.351
31308WAT     H294167   9.279   5.348   4.415
31309WAT      O94168   2.826   2.812   4.630
31309WAT     H194169   2.750   2.749   4.641
31309WAT     H294170   2.894   2.796   4.702
31310WAT      O94171   2.031   9.464   5.263
31310WAT     H194172   1.939   9.500   5.250
31310WAT     H294173   2.097   9.539   5.266
31311WAT      O94174   7.385   3.890   1.439
31311WAT     H194175   7.464   3.938   1.401
31311WAT     H294176   7.349   3.827   1.370
31312WAT      O94177   5.540   9.760   5.683
31312WAT     H194178   5.588   9.676   5.662
31312WAT     H294179   5.593   9.813   5.750
31313WAT      O94180   3.342   4.136   4.419
31313WAT     H194181   3.437   4.106   4.411
31313WAT     H294182   3.334   4.202   4.494
31314WAT      O94183   0.194   0.169   4.606
31314WAT     H194184   0.276   0.130   4.648
31314WAT     H294185   0.159   0.105   4.537
31315WAT      O94186   3.839   7.095   5.295
31315WAT     H194187   3.871   7.052   5.380
31315WAT     H294188   3.760   7.046   5.260
31316WAT      O94189   5.236   6.581   8.827
31316WAT     H194190   5.180   6.537   8.756
31316WAT     H294191   5.309   6.518   8.855
31317WAT      O94192   0.599   1.409   4.986
31317WAT     H194193   0.636   1.356   4.910
31317WAT     H294194   0.662   1.483   5.009
31318WAT      O94195   3.781   2.925   0.453
31318WAT     H194196   3.860   2.864   0.439
31318WAT     H294197   3.805   3.017   0.424
31319WAT      O94198   8.953   0.449   1.565
31319WAT     H194199   9.046   0.422   1.540
31319WAT     H294200   8.934   0.419   1.658
31320WAT      O94201   5.300   0.727   9.093
31320WAT     H194202   5.332   0.633   9.097
31320WAT     H294203   5.208   0.729   9.053
31321WAT      O94204   1.953   7.156   3.580
31321WAT     H194205   1.905   7.238   3.613
31321WAT     H294206   1.886   7.084   3.562
31322WAT      O94207   4.923   9.174   9.695
31322WAT     H194208   5.019   9.202   9.696
31322WAT     H294209   4.904   9.116   9.775
31323WAT      O94210   4.816   1.448   6.490
31323WAT     H194211   4.858   1.538   6.508
31323WAT     H294212   4.719   1.460   6.470
31324WAT      O94213   2.701   4.390   0.057
31324WAT     H194214   2.747   4.446   0.125
31324WAT     H294215   2.747   4.399  -0.031
31325WAT      O94216   6.477   6.670   2.216
31325WAT     H194217   6.426   6.710   2.292
31325WAT     H294218   6.458   6.572   2.211
31326WAT      O94219   2.904   8.921   5.087
31326WAT     H194220   2.805   8.926   5.102
31326WAT     H294221   2.922   8.891   4.993
31327WAT      O94222   8.166   7.307   6.720
31327WAT     H194223   8.207   7.241   6.657
31327WAT     H294224   8.203   7.398   6.701
31328WAT      O94225   6.296   2.727   5.385
31328WAT     H194226   6.317   2.824   5.401
31328WAT     H294227   6.287   2.680   5.472
31329WAT      O94228   3.812   5.967   3.279
31329WAT     H194229   3.850   6.030   3.346
31329WAT     H294230   3.886   5.918   3.232
31330WAT      O94231   0.218   9.753   6.153
31330WAT     H194232   0.316   9.737   6.166
31330WAT     H294233   0.191   9.837   6.200
31331WAT      O94234   7.950   7.215   1.438
31331WAT     H194235   8.016   7.282   1.404
31331WAT     H294236   7.869   7.263   1.471
31332WAT      O94237   9.086   1.206   7.477
31332WAT     H194238   9.172   1.205   7.426
31332WAT     H294239   9.047   1.298   7.476
31333WAT      O94240   2.119   1.057   7.134
31333WAT     H194241   2.117   1.157   7.124
31333WAT     H294242   2.212   1.027   7.151
31334WAT      O94243   9.854   7.351   2.674
31334WAT     H194244   9.853   7.389   2.581
31334WAT     H294245   9.859   7.425   2.740
31335WAT      O94246   6.095   9.369   2.322
31335WAT     H194247   6.149   9.290   2.291
31335WAT     H294248   6.037   9.401   2.247
31336WAT      O94249   8.861   8.638   5.714
31336WAT     H194250   8.796   8.603   5.648
31336WAT     H294251   8.872   8.737   5.701
31337WAT      O94252   5.533   4.449   4.116
31337WAT     H194253   5.494   4.463   4.207
31337WAT     H294254   5.528   4.535   4.065
31338WAT      O94255   7.723   0.988   3.960
31338WAT     H194256   7.664   1.050   4.012
31338WAT     H294257   7.785   1.042   3.902
31339WAT      O94258   7.351   1.061   7.865
31339WAT     H194259   7.405   1.131   7.818
31339WAT     H294260   7.323   1.096   7.954
31340WAT      O94261   3.813   4.559   8.863
31340WAT     H194262   3.722   4.584   8.831
31340WAT     H294263   3.834   4.609   8.947
31341WAT      O94264   1.309   6.556   0.131
31341WAT     H194265   1.400   6.589   0.106
31341WAT     H294266   1.245   6.575   0.056
31342WAT      O94267   7.133   9.357   1.755
31342WAT     H194268   7.061   9.318   1.697
31342WAT     H294269   7.095   9.434   1.806
31343WAT      O94270   2.237   6.512   2.562
31343WAT     H194271   2.239   6.555   2.652
31343WAT     H294272   2.171   6.437   2.562
31344WAT      O94273   1.487   4.284   2.912
31344WAT     H194274   1.407   4.247   2.959
31344WAT     H294275   1.534   4.348   2.973
31345WAT      O94276   3.637   8.344   4.313
31345WAT     H194277   3.725   8.308   4.282
31345WAT     H294278   3.624   8.322   4.409
31346WAT      O94279   6.345   0.975   9.868
31346WAT     H194280   6.298   0.900   9.821
31346WAT     H294281   6.401   1.026   9.803
31347WAT      O94282   5.912   3.165   5.166
31347WAT     H194283   5.956   3.254   5.176
31347WAT     H294284   5.898   3.145   5.069
31348WAT      O94285   3.696   0.414   3.809
31348WAT     H194286   3.649   0.331   3.837
31348WAT     H294287   3.793   0.395   3.795
31349WAT      O94288   2.712   7.134   7.873
31349WAT     H194289   2.763   7.068   7.928
31349WAT     H294290   2.761   7.150   7.787
31350WAT      O94291   2.075   7.165   7.852
31350WAT     H194292   1.984   7.179   7.891
31350WAT     H294293   2.065   7.130   7.759
31351WAT      O94294   3.858   5.917   4.051
31351WAT     H194295   3.941   5.957   4.014
31351WAT     H294296   3.790   5.906   3.978
31352WAT      O94297   6.652   3.707   0.844
31352WAT     H194298   6.553   3.713   0.862
31352WAT     H294299   6.700   3.777   0.898
31353WAT      O94300   1.987   6.416   7.665
31353WAT     H194301   2.047   6.492   7.640
31353WAT     H294302   2.031   6.361   7.736
31354WAT      O94303   6.398   4.574   4.721
31354WAT     H194304   6.311   4.600   4.678
31354WAT     H294305   6.472   4.628   4.682
31355WAT      O94306   0.363   9.426   3.478
31355WAT     H194307   0.454   9.415   3.437
31355WAT     H294308   0.334   9.521   3.470
31356WAT      O94309   0.811   1.374   6.192
31356WAT     H194310   0.819   1.387   6.291
31356WAT     H294311   0.897   1.337   6.157
31357WAT      O94312   0.947   7.398   6.992
31357WAT     H194313   0.916   7.305   6.972
31357WAT     H294314   0.922   7.422   7.086
31358WAT      O94315   6.153   1.501   4.616
31358WAT     H194316   6.210   1.543   4.686
31358WAT     H294317   6.123   1.571   4.551
31359WAT      O94318   7.413   8.017   3.491
31359WAT     H194319   7.342   7.975   3.435
31359WAT     H294320   7.372   8.078   3.558
31360WAT      O94321   0.183   0.571   4.346
31360WAT     H194322   0.122   0.649   4.339
31360WAT     H294323   0.271   0.594   4.303
31361WAT      O94324   2.357   0.355   5.073
31361WAT     H194325   2.274   0.325   5.120
31361WAT     H294326   2.399   0.430   5.123
31362WAT      O94327   6.215   2.517   5.948
31362WAT     H194328   6.306   2.503   5.986
31362WAT     H294329   6.211   2.482   5.854
31363WAT      O94330   9.812   3.298   7.359
31363WAT     H194331   9.726   3.319   7.405
31363WAT     H294332   9.883   3.363   7.387
31364WAT      O94333   1.976   8.881   1.710
31364WAT     H194334   1.926   8.967   1.708
31364WAT     H294335   2.073   8.899   1.724
31365WAT      O94336   4.738   6.249   9.390
31365WAT     H194337   4.811   6.313   9.412
31365WAT     H294338   4.728   6.243   9.291
31366WAT      O94339   1.320   4.860   8.617
31366WAT     H194340   1.377   4.862   8.535
31366WAT     H294341   1.224   4.870   8.592
31367WAT      O94342   2.002   9.563   2.403
31367WAT     H194343   1.925   9.501   2.384
31367WAT     H294344   2.034   9.550   2.496
31368WAT      O94345   5.130   6.516   9.700
31368WAT     H194346   5.207   6.553   9.752
31368WAT     H294347   5.096   6.434   9.746
31369WAT      O94348   4.639   6.044   4.873
31369WAT     H194349   4.551   6.003   4.896
31369WAT     H294350   4.711   5.975   4.880
31370WAT      O94351   1.524   4.416   1.709
31370WAT     H194352   1.507   4.444   1.615
31370WAT     H294353   1.530   4.497   1.768
31371WAT      O94354   2.441   5.470   1.877
31371WAT     H194355   2.380   5.525   1.820
31371WAT     H294356   2.435   5.374   1.849
31372WAT      O94357   7.326   2.210   0.468
31372WAT     H194358   7.284   2.277   0.529
31372WAT     H294359   7.424   2.227   0.463
31373WAT      O94360   8.843   3.272   9.866
31373WAT     H194361   8.815   3.189   9.913
31373WAT     H294362   8.907   3.323   9.923
31374WAT      O94363   0.750   3.852   6.721
31374WAT     H194364   0.785   3.773   6.670
31374WAT     H294365   0.755   3.934   6.664
31375WAT      O94366   6.600   4.111   6.239
31375WAT     H194367   6.642   4.198   6.214
31375WAT     H294368   6.667   4.056   6.290
31376WAT      O94369   2.550   9.591   3.295
31376WAT     H194370   2.608   9.610   3.216
31376WAT     H294371   2.491   9.512   3.275
31377WAT      O94372   7.027   1.622   3.656
31377WAT     H194373   7.071   1.669   3.580
31377WAT     H294374   7.083   1.633   3.738
31378WAT      O94375   5.083   4.979   4.030
31378WAT     H194376   5.062   5.040   4.106
31378WAT     H294377   5.129   5.030   3.958
31379WAT      O94378   6.962   4.341   1.205
31379WAT     H194379   7.007   4.265   1.158
31379WAT     H294380   6.986   4.427   1.161
31380WAT      O94381   4.564   8.222   8.062
31380WAT     H194382   4.632   8.194   8.130
31380WAT     H294383   4.590   8.310   8.024
31381WAT      O94384   2.357   0.558   3.429
31381WAT     H194385   2.453   0.530   3.433
31381WAT     H294386   2.318   0.556   3.521
31382WAT      O94387   3.801   8.627   1.530
31382WAT     H194388   3.827   8.713   1.573
31382WAT     H294389   3.871   8.558   1.550
31383WAT      O94390   2.359   0.794   6.916
31383WAT     H194391   2.313   0.793   7.005
31383WAT     H294392   2.425   0.869   6.913
31384WAT      O94393   4.228   0.363   9.415
31384WAT     H194394   4.180   0.338   9.499
31384WAT     H294395   4.167   0.417   9.357
31385WAT      O94396   1.820   8.675   7.195
31385WAT     H194397   1.845   8.626   7.112
31385WAT     H294398   1.721   8.676   7.205
31386WAT      O94399   5.507   2.014   9.882
31386WAT     H194400   5.547   2.050   9.798
31386WAT     H294401   5.528   1.917   9.891
31387WAT      O94402   1.508   1.210   7.180
31387WAT     H194403   1.500   1.289   7.241
31387WAT     H294404   1.586   1.154   7.207
31388WAT      O94405   0.965   3.445   0.464
31388WAT     H194406   0.945   3.543   0.468
31388WAT     H294407   0.982   3.419   0.369
31389WAT      O94408   1.249   0.824   4.188
31389WAT     H194409   1.184   0.829   4.112
31389WAT     H294410   1.262   0.916   4.227
31390WAT      O94411   6.933   1.717   3.016
31390WAT     H194412   6.871   1.762   2.952
31390WAT     H294413   6.895   1.720   3.108
31391WAT      O94414   8.934   3.018   2.662
31391WAT     H194415   8.947   2.959   2.583
31391WAT     H294416   9.013   3.078   2.672
31392WAT      O94417   6.840   3.076   2.106
31392WAT     H194418   6.890   3.101   2.022
31392WAT     H294419   6.749   3.118   2.105
31393WAT      O94420   3.047   8.014   6.082
31393WAT     H194421   3.107   8.062   6.145
31393WAT     H294422   3.098   7.944   6.034
31394WAT      O94423   9.222   7.155   1.401
31394WAT     H194424   9.203   7.094   1.478
31394WAT     H294425   9.287   7.226   1.430
31395WAT      O94426   9.219   1.938   8.457
31395WAT     H194427   9.299   1.973   8.505
31395WAT     H294428   9.194   1.848   8.493
31396WAT      O94429   5.041   0.587   6.440
31396WAT     H194430   5.132   0.590   6.398
31396WAT     H294431   4.979   0.645   6.387
31397WAT      O94432   0.603   7.491   6.512
31397WAT     H194433   0.626   7.411   6.567
31397WAT     H294434   0.656   7.569   6.542
31398WAT      O94435   5.202   1.068   4.553
31398WAT     H194436   5.293   1.033   4.532
31398WAT     H294437   5.161   1.105   4.469
31399WAT      O94438   8.173   2.322   0.675
31399WAT     H194439   8.155   2.244   0.735
31399WAT     H294440   8.245   2.379   0.716
31400WAT      O94441   8.143   8.996   4.538
31400WAT     H194442   8.091   8.914   4.512
31400WAT     H294443   8.240   8.978   4.528
31401WAT      O94444   7.599   3.554   0.834
31401WAT     H194445   7.668   3.504   0.888
31401WAT     H294446   7.522   3.579   0.893
31402WAT      O94447   0.536   2.630   6.902
31402WAT     H194448   0.623   2.607   6.945
31402WAT     H294449   0.528   2.582   6.815
31403WAT      O94450   3.784   7.713   9.320
31403WAT     H194451   3.696   7.672   9.342
31403WAT     H294452   3.826   7.663   9.244
31404WAT      O94453   3.410   9.095   7.612
31404WAT     H194454   3.453   9.066   7.527
31404WAT     H294455   3.323   9.048   7.623
31405WAT      O94456   9.169   4.702   7.626
31405WAT     H194457   9.126   4.743   7.707
31405WAT     H294458   9.113   4.722   7.545
31406WAT      O94459   5.161   2.570   0.775
31406WAT     H194460   5.063   2.554   0.765
31406WAT     H294461   5.201   2.498   0.831
31407WAT      O94462   1.965   9.646   0.664
31407WAT     H194463   1.934   9.645   0.759
31407WAT     H294464   2.035   9.575   0.652
31408WAT      O94465   0.437   0.091   7.450
31408WAT     H194466   0.448   0.018   7.383
31408WAT     H294467   0.423   0.052   7.541
31409WAT      O94468   5.926   8.818   8.689
31409WAT     H194469   5.988   8.752   8.730
31409WAT     H294470   5.925   8.902   8.743
31410WAT      O94471   6.429   7.225   5.696
31410WAT     H194472   6.459   7.283   5.771
31410WAT     H294473   6.329   7.222   5.695
31411WAT      O94474   1.653   2.264   9.693
31411WAT     H194475   1.698   2.206   9.624
31411WAT     H294476   1.689   2.242   9.784
31412WAT      O94477   0.713   0.901   7.650
31412WAT     H194478   0.744   0.953   7.730
31412WAT     H294479   0.751   0.809   7.653
31413WAT      O94480   6.258   1.775   3.132
31413WAT     H194481   6.190   1.766   3.060
31413WAT     H294482   6.229   1.845   3.197
31414WAT      O94483   4.481   6.313   5.615
31414WAT     H194484   4.414   6.370   5.567
31414WAT     H294485   4.563   6.368   5.633
31415WAT      O94486   2.156   8.008   1.933
31415WAT     H194487   2.208   8.063   1.867
31415WAT     H294488   2.104   8.069   1.993
31416WAT      O94489   4.376   0.773   3.094
31416WAT     H194490   4.443   0.744   3.026
31416WAT     H294491   4.284   0.768   3.056
31417WAT      O94492   4.040   9.304   0.891
31417WAT     H194493   4.029   9.337   0.985
31417WAT     H294494   4.119   9.243   0.887
31418WAT      O94495   4.727   8.066   2.478
31418WAT     H194496   4.651   8.095   2.421
31418WAT     H294497   4.752   8.140   2.541
31419WAT      O94498   7.759   6.758   0.548
31419WAT     H194499   7.777   6.856   0.558
31419WAT     H294500   7.757   6.735   0.450
31420WAT      O94501   2.374   6.898   8.486
31420WAT     H194502   2.442   6.840   8.441
31420WAT     H294503   2.283   6.877   8.449
31421WAT      O94504   9.082   8.575   9.592
31421WAT     H194505   9.144   8.624   9.531
31421WAT     H294506   9.126   8.561   9.681
31422WAT      O94507   9.042   3.628   7.573
31422WAT     H194508   8.957   3.650   7.524
31422WAT     H294509   9.113   3.605   7.507
31423WAT      O94510   2.739   1.771   0.802
31423WAT     H194511   2.653   1.720   0.802
31423WAT     H294512   2.735   1.843   0.872
31424WAT      O94513   4.307   4.392   4.751
31424WAT     H194514   4.375   4.320   4.739
31424WAT     H294515   4.352   4.481   4.747
31425WAT      O94516   0.518   9.365   6.616
31425WAT     H194517   0.502   9.327   6.525
31425WAT     H294518   0.510   9.465   6.613
31426WAT      O94519   2.806   3.830   2.500
31426WAT     H194520   2.852   3.889   2.566
31426WAT     H294521   2.789   3.882   2.416
31427WAT      O94522   4.084   9.137   8.188
31427WAT     H194523   4.081   9.163   8.092
31427WAT     H294524   4.031   9.053   8.202
31428WAT      O94525   7.584   2.115   9.390
31428WAT     H194526   7.645   2.051   9.437
31428WAT     H294527   7.489   2.093   9.413
31429WAT      O94528   1.374   6.882   7.968
31429WAT     H194529   1.415   6.962   8.011
31429WAT     H294530   1.275   6.882   7.984
31430WAT      O94531   1.372   8.177   8.314
31430WAT     H194532   1.352   8.163   8.410
31430WAT     H294533   1.334   8.266   8.285
31431WAT      O94534   8.680   3.900   1.900
31431WAT     H194535   8.728   3.841   1.965
31431WAT     H294536   8.698   3.869   1.807
31432WAT      O94537   7.839   7.745   0.443
31432WAT     H194538   7.751   7.733   0.397
31432WAT     H294539   7.848   7.675   0.514
31433WAT      O94540   0.887   0.910   6.203
31433WAT     H194541   0.788   0.900   6.199
31433WAT     H294542   0.929   0.854   6.132
31434WAT      O94543   0.594   4.332   2.741
31434WAT     H194544   0.535   4.349   2.662
31434WAT     H294545   0.690   4.334   2.712
31435WAT      O94546   8.447   9.628   3.521
31435WAT     H194547   8.450   9.643   3.422
31435WAT     H294548   8.532   9.660   3.562
31436WAT      O94549   1.434   6.990   5.385
31436WAT     H194550   1.340   6.998   5.419
31436WAT     H294551   1.465   7.079   5.352
31437WAT      O94552   7.804   6.612   3.941
31437WAT     H194553   7.707   6.587   3.941
31437WAT     H294554   7.824   6.669   3.861
31438WAT      O94555   8.533   0.475   9.209
31438WAT     H194556   8.523   0.572   9.186
31438WAT     H294557   8.613   0.438   9.162
31439WAT      O94558   7.060   2.523   6.074
31439WAT     H194559   7.113   2.527   6.158
31439WAT     H294560   7.100   2.584   6.006
31440WAT      O94561   2.796   9.192   9.446
31440WAT     H194562   2.781   9.258   9.520
31440WAT     H294563   2.892   9.166   9.443
31441WAT      O94564   3.725   0.805   5.392
31441WAT     H194565   3.701   0.708   5.394
31441WAT     H294566   3.723   0.838   5.297
31442WAT      O94567   5.887   8.335   4.968
31442WAT     H194568   5.925   8.339   4.876
31442WAT     H294569   5.812   8.400   4.977
31443WAT      O94570   5.281   2.846   7.790
31443WAT     H194571   5.202   2.852   7.850
31443WAT     H294572   5.302   2.938   7.754
31444WAT      O94573   0.685   4.802   5.041
31444WAT     H194574   0.636   4.835   5.121
31444WAT     H294575   0.770   4.758   5.070
31445WAT      O94576   3.557   6.061   6.881
31445WAT     H194577   3.576   5.976   6.832
31445WAT     H294578   3.478   6.049   6.941
31446WAT      O94579   4.158   1.121   0.568
31446WAT     H194580   4.127   1.189   0.635
31446WAT     H294581   4.243   1.079   0.600
31447WAT      O94582   4.415   8.127   2.969
31447WAT     H194583   4.425   8.184   3.050
31447WAT     H294584   4.330   8.075   2.974
31448WAT      O94585   9.033   1.211   0.789
31448WAT     H194586   8.955   1.271   0.770
31448WAT     H294587   9.098   1.216   0.714
31449WAT      O94588   3.657   0.244   9.416
31449WAT     H194589   3.617   0.331   9.387
31449WAT     H294590   3.698   0.255   9.507
31450WAT      O94591   9.572   6.068   8.799
31450WAT     H194592   9.642   6.012   8.755
31450WAT     H294593   9.573   6.160   8.761
31451WAT      O94594   9.583   0.559   2.126
31451WAT     H194595   9.483   0.564   2.120
31451WAT     H294596   9.622   0.651   2.127
31452WAT      O94597   6.337   3.066   5.923
31452WAT     H194598   6.242   3.034   5.928
31452WAT     H294599   6.394   2.993   5.885
31453WAT      O94600   3.885   6.100   3.743
31453WAT     H194601   3.978   6.068   3.762
31453WAT     H294602   3.821   6.023   3.747
31454WAT      O94603   8.814   9.094   1.508
31454WAT     H194604   8.870   9.012   1.524
31454WAT     H294605   8.723   9.067   1.478
31455WAT      O94606   0.856   3.021   4.308
31455WAT     H194607   0.894   2.931   4.287
31455WAT     H294608   0.809   3.057   4.228
31456WAT      O94609   1.886   6.828   2.710
31456WAT     H194610   1.977   6.786   2.701
31456WAT     H294611   1.884   6.885   2.791
31457WAT      O94612   3.077   0.002   3.003
31457WAT     H194613   2.993   0.006   2.948
31457WAT     H294614   3.095   0.093   3.041
31458WAT      O94615   2.657   7.330   4.728
31458WAT     H194616   2.753   7.336   4.701
31458WAT     H294617   2.606   7.408   4.692
31459WAT      O94618   9.294   8.973   9.647
31459WAT     H194619   9.248   8.990   9.560
31459WAT     H294620   9.226   8.960   9.719
31460WAT      O94621   2.737   9.781   1.237
31460WAT     H194622   2.686   9.815   1.316
31460WAT     H294623   2.736   9.851   1.165
31461WAT      O94624   4.388   0.456   3.333
31461WAT     H194625   4.463   0.521   3.321
31461WAT     H294626   4.302   0.498   3.303
31462WAT      O94627   3.040   7.005   3.861
31462WAT     H194628   3.027   6.980   3.957
31462WAT     H294629   3.118   6.954   3.823
31463WAT      O94630   5.286   2.266   8.120
31463WAT     H194631   5.257   2.221   8.205
31463WAT     H294632   5.375   2.230   8.092
31464WAT      O94633   1.551   9.460   9.667
31464WAT     H194634   1.560   9.373   9.617
31464WAT     H294635   1.522   9.532   9.604
31465WAT      O94636   4.014   2.832   0.359
31465WAT     H194637   4.084   2.896   0.390
31465WAT     H294638   4.023   2.745   0.408
31466WAT      O94639   4.570   9.731   3.059
31466WAT     H194640   4.580   9.778   2.971
31466WAT     H294641   4.593   9.634   3.047
31467WAT      O94642   0.685   9.199   0.813
31467WAT     H194643   0.609   9.261   0.792
31467WAT     H294644   0.750   9.198   0.737
31468WAT      O94645   6.164   9.229   7.077
31468WAT     H194646   6.151   9.195   7.170
31468WAT     H294647   6.241   9.180   7.035
31469WAT      O94648   9.517   6.575   7.040
31469WAT     H194649   9.419   6.592   7.046
31469WAT     H294650   9.536   6.514   6.963
31470WAT      O94651   3.854   3.585   8.373
31470WAT     H194652   3.883   3.554   8.464
31470WAT     H294653   3.926   3.565   8.306
31471WAT      O94654   8.649   8.227   6.788
31471WAT     H194655   8.550   8.218   6.775
31471WAT     H294656   8.667   8.263   6.880
31472WAT      O94657   1.560   4.286   5.609
31472WAT     H194658   1.470   4.275   5.651
31472WAT     H294659   1.626   4.227   5.656
31473WAT      O94660   5.608   6.004   0.167
31473WAT     H194661   5.535   5.987   0.100
31473WAT     H294662   5.641   5.917   0.204
31474WAT      O94663   4.405   5.667   6.714
31474WAT     H194664   4.479   5.626   6.766
31474WAT     H294665   4.318   5.652   6.761
31475WAT      O94666   4.731   8.166   0.468
31475WAT     H194667   4.816   8.113   0.473
31475WAT     H294668   4.707   8.198   0.560
31476WAT      O94669   3.175   6.105   2.109
31476WAT     H194670   3.087   6.098   2.060
31476WAT     H294671   3.168   6.176   2.179
31477WAT      O94672   7.084   3.369   0.493
31477WAT     H194673   7.129   3.291   0.449
31477WAT     H294674   7.091   3.359   0.592
31478WAT      O94675   1.945   3.623   7.504
31478WAT     H194676   1.975   3.689   7.435
31478WAT     H294677   2.024   3.591   7.555
31479WAT      O94678   6.368   7.495   1.906
31479WAT     H194679   6.353   7.423   1.975
31479WAT     H294680   6.282   7.543   1.888
31480WAT      O94681   5.790   8.185   7.846
31480WAT     H194682   5.772   8.243   7.767
31480WAT     H294683   5.766   8.090   7.823
31481WAT      O94684   2.326   0.679   4.331
31481WAT     H194685   2.422   0.707   4.333
31481WAT     H294686   2.269   0.759   4.314
31482WAT      O94687   4.331   9.018   2.652
31482WAT     H194688   4.257   9.084   2.668
31482WAT     H294689   4.308   8.961   2.573
31483WAT      O94690   6.070   2.572   8.689
31483WAT     H194691   6.062   2.589   8.591
31483WAT     H294692   5.989   2.607   8.736
31484WAT      O94693   5.352   8.089   5.580
31484WAT     H194694   5.379   8.091   5.483
31484WAT     H294695   5.408   8.155   5.631
31485WAT      O94696   8.231   6.406   1.717
31485WAT     H194697   8.138   6.378   1.691
31485WAT     H294698   8.297   6.345   1.674
31486WAT      O94699   2.149   8.845   6.384
31486WAT     H194700   2.072   8.785   6.407
31486WAT     H294701   2.199   8.868   6.468
31487WAT      O94702   3.227   4.015   6.803
31487WAT     H194703   3.301   3.948   6.809
31487WAT     H294704   3.266   4.107   6.796
31488WAT      O94705   9.845   6.149   1.589
31488WAT     H194706   9.853   6.143   1.489
31488WAT     H294707   9.902   6.080   1.632
31489WAT      O94708   8.861   6.530   0.180
31489WAT     H194709   8.871   6.597   0.254
31489WAT     H294710   8.769   6.491   0.183
31490WAT      O94711   9.145   0.877   2.423
31490WAT     H194712   9.120   0.897   2.329
31490WAT     H294713   9.065   0.840   2.472
31491WAT      O94714   9.522   6.014   9.342
31491WAT     H194715   9.543   6.011   9.245
31491WAT     H294716   9.605   6.032   9.394
31492WAT      O94717   2.433   5.726   0.041
31492WAT     H194718   2.435   5.635   0.082
31492WAT     H294719   2.525   5.752   0.012
31493WAT      O94720   7.995   9.630   1.590
31493WAT     H194721   8.070   9.672   1.642
31493WAT     H294722   8.030   9.551   1.540
31494WAT      O94723   0.998   6.065   0.562
31494WAT     H194724   1.031   6.157   0.541
31494WAT     H294725   0.963   6.022   0.478
31495WAT      O94726   9.079   2.620   6.687
31495WAT     H194727   9.039   2.586   6.602
31495WAT     H294728   9.168   2.576   6.702
31496WAT      O94729   7.813   5.796   3.299
31496WAT     H194730   7.909   5.783   3.278
31496WAT     H294731   7.775   5.710   3.335
31497WAT      O94732   3.494   6.893   3.688
31497WAT     H194733   3.435   6.843   3.751
31497WAT     H294734   3.538   6.969   3.736
31498WAT      O94735   3.579   3.654   2.487
31498WAT     H194736   3.556   3.590   2.560
31498WAT     H294737   3.654   3.615   2.431
31499WAT      O94738   0.544   8.468   6.705
31499WAT     H194739   0.589   8.489   6.619
31499WAT     H294740   0.485   8.544   6.732
31500WAT      O94741   3.220   5.658   8.184
31500WAT     H194742   3.287   5.709   8.130
31500WAT     H294743   3.129   5.696   8.168
31501WAT      O94744   1.373   1.686   4.706
31501WAT     H194745   1.433   1.687   4.786
31501WAT     H294746   1.332   1.777   4.694
31502WAT      O94747   7.204   3.892   8.845
31502WAT     H194748   7.136   3.832   8.803
31502WAT     H294749   7.158   3.974   8.881
31503WAT      O94750   3.249   8.991   8.373
31503WAT     H194751   3.234   8.909   8.429
31503WAT     H294752   3.174   9.056   8.388
31504WAT      O94753   0.611   9.485   8.857
31504WAT     H194754   0.612   9.543   8.938
31504WAT     H294755   0.666   9.403   8.875
31505WAT      O94756   2.334   3.581   9.784
31505WAT     H194757   2.338   3.573   9.685
31505WAT     H294758   2.426   3.569   9.822
31506WAT      O94759   0.231   7.827   4.313
31506WAT     H194760   0.184   7.913   4.332
31506WAT     H294761   0.212   7.762   4.386
31507WAT      O94762   2.420   4.698   9.741
31507WAT     H194763   2.445   4.612   9.783
31507WAT     H294764   2.451   4.774   9.798
31508WAT      O94765   1.788   6.933   3.536
31508WAT     H194766   1.700   6.978   3.520
31508WAT     H294767   1.775   6.834   3.538
31509WAT      O94768   8.620   9.403   0.781
31509WAT     H194769   8.612   9.361   0.691
31509WAT     H294770   8.584   9.496   0.778
31510WAT      O94771   3.281   9.778   8.269
31510WAT     H194772   3.318   9.857   8.221
31510WAT     H294773   3.342   9.700   8.256
31511WAT      O94774   2.252   2.932   6.772
31511WAT     H194775   2.182   2.994   6.808
31511WAT     H294776   2.279   2.962   6.680
31512WAT      O94777   4.837   7.112   2.045
31512WAT     H194778   4.868   7.142   2.135
31512WAT     H294779   4.831   7.013   2.042
31513WAT      O94780   3.004   4.822   6.406
31513WAT     H194781   3.095   4.865   6.410
31513WAT     H294782   3.012   4.726   6.434
31514WAT      O94783   4.078   2.299   6.854
31514WAT     H194784   4.000   2.244   6.824
31514WAT     H294785   4.104   2.362   6.781
31515WAT      O94786   6.903   4.617   1.467
31515WAT     H194787   6.840   4.576   1.533
31515WAT     H294788   6.860   4.697   1.425
31516WAT      O94789   3.662   2.107   9.749
31516WAT     H194790   3.733   2.139   9.811
31516WAT     H294791   3.614   2.185   9.709
31517WAT      O94792   9.415   1.615   6.837
31517WAT     H194793   9.510   1.647   6.829
31517WAT     H294794   9.370   1.667   6.909
31518WAT      O94795   1.400   8.627   6.654
31518WAT     H194796   1.318   8.604   6.707
31518WAT     H294797   1.461   8.682   6.711
31519WAT      O94798   5.564   5.746   9.774
31519WAT     H194799   5.543   5.653   9.806
31519WAT     H294800   5.486   5.806   9.792
31520WAT      O94801   8.990   2.140   6.669
31520WAT     H194802   8.922   2.160   6.739
31520WAT     H294803   9.019   2.045   6.676
31521WAT      O94804   1.072   9.223   4.697
31521WAT     H194805   1.003   9.227   4.625
31521WAT     H294806   1.139   9.153   4.674
31522WAT      O94807   3.978   5.342   8.506
31522WAT     H194808   3.915   5.330   8.429
31522WAT     H294809   4.017   5.434   8.504
31523WAT      O94810   3.823   7.863   7.197
31523WAT     H194811   3.825   7.769   7.230
31523WAT     H294812   3.770   7.868   7.112
31524WAT      O94813   8.876   7.700   6.202
31524WAT     H194814   8.942   7.645   6.253
31524WAT     H294815   8.844   7.775   6.260
31525WAT      O94816   3.349   5.963   1.558
31525WAT     H194817   3.314   5.884   1.609
31525WAT     H294818   3.290   6.042   1.574
31526WAT      O94819   3.375   5.510   7.086
31526WAT     H194820   3.434   5.494   7.008
31526WAT     H294821   3.310   5.434   7.095
31527WAT      O94822   0.982   0.443   5.847
31527WAT     H194823   0.950   0.378   5.778
31527WAT     H294824   1.072   0.415   5.881
31528WAT      O94825   1.206   0.813   6.923
31528WAT     H194826   1.169   0.747   6.858
31528WAT     H294827   1.157   0.900   6.913
31529WAT      O94828   0.426   6.834   0.945
31529WAT     H194829   0.405   6.858   0.850
31529WAT     H294830   0.435   6.917   1.000
31530WAT      O94831   6.655   7.956   4.436
31530WAT     H194832   6.679   8.051   4.456
31530WAT     H294833   6.737   7.899   4.438
31531WAT      O94834   6.331   2.538   8.967
31531WAT     H194835   6.401   2.557   9.035
31531WAT     H294836   6.330   2.611   8.898
31532WAT      O94837   7.072   8.539   2.327
31532WAT     H194838   7.017   8.501   2.401
31532WAT     H294839   7.068   8.478   2.248
31533WAT      O94840   4.851   6.008   6.193
31533WAT     H194841   4.886   6.077   6.129
31533WAT     H294842   4.883   6.030   6.286
31534WAT      O94843   4.509   2.057   6.811
31534WAT     H194844   4.469   2.111   6.737
31534WAT     H294845   4.596   2.096   6.839
31535WAT      O94846   4.778   4.994   8.887
31535WAT     H194847   4.798   4.899   8.862
31535WAT     H294848   4.693   4.997   8.941
31536WAT      O94849   1.815   4.372   4.424
31536WAT     H194850   1.832   4.284   4.469
31536WAT     H294851   1.819   4.445   4.492
31537WAT      O94852   4.177   0.669   5.699
31537WAT     H194853   4.178   0.632   5.792
31537WAT     H294854   4.190   0.595   5.633
31538WAT      O94855   5.406   4.667   0.653
31538WAT     H194856   5.465   4.734   0.698
31538WAT     H294857   5.315   4.668   0.696
31539WAT      O94858   2.987   0.237   5.297
31539WAT     H194859   3.025   0.243   5.389
31539WAT     H294860   2.900   0.189   5.299
31540WAT      O94861   3.445   8.719   1.619
31540WAT     H194862   3.497   8.792   1.574
31540WAT     H294863   3.414   8.653   1.550
31541WAT      O94864   1.173   5.539   3.876
31541WAT     H194865   1.081   5.562   3.844
31541WAT     H294866   1.222   5.623   3.898
31542WAT      O94867   1.196   0.063   0.095
31542WAT     H194868   1.208  -0.032   0.125
31542WAT     H294869   1.266   0.120   0.138
31543WAT      O94870   0.844   6.248   5.702
31543WAT     H194871   0.937   6.280   5.682
31543WAT     H294872   0.836   6.151   5.683
31544WAT      O94873   8.261   2.573   9.805
31544WAT     H194874   8.185   2.613   9.753
31544WAT     H294875   8.283   2.632   9.882
31545WAT      O94876   4.444   6.881   6.185
31545WAT     H194877   4.417   6.940   6.110
31545WAT     H294878   4.453   6.787   6.152
31546WAT      O94879   3.483   4.638   7.174
31546WAT     H194880   3.517   4.680   7.259
31546WAT     H294881   3.541   4.560   7.151
31547WAT      O94882   5.385   9.558   2.055
31547WAT     H194883   5.413   9.580   2.148
31547WAT     H294884   5.340   9.637   2.014
31548WAT      O94885   8.102   1.019   4.685
31548WAT     H194886   8.101   1.072   4.600
31548WAT     H294887   8.010   1.014   4.722
31549WAT      O94888   8.521   7.425   1.874
31549WAT     H194889   8.556   7.518   1.885
31549WAT     H294890   8.515   7.403   1.777
31550WAT      O94891   1.275   6.421   8.430
31550WAT     H194892   1.228   6.422   8.519
31550WAT     H294893   1.302   6.514   8.406
31551WAT      O94894   8.693   1.529   5.014
31551WAT     H194895   8.641   1.613   4.998
31551WAT     H294896   8.737   1.499   4.930
31552WAT      O94897   5.800   3.720   0.172
31552WAT     H194898   5.729   3.777   0.130
31552WAT     H294899   5.758   3.637   0.209
31553WAT      O94900   3.689   0.887   1.853
31553WAT     H194901   3.614   0.881   1.918
31553WAT     H294902   3.679   0.969   1.798
31554WAT      O94903   1.009   0.126   5.970
31554WAT     H194904   1.071   0.202   5.993
31554WAT     H294905   0.928   0.130   6.028
31555WAT      O94906   0.734   3.714   5.727
31555WAT     H194907   0.740   3.667   5.639
31555WAT     H294908   0.764   3.652   5.800
31556WAT      O94909   2.767   1.954   2.283
31556WAT     H194910   2.710   1.994   2.355
31556WAT     H294911   2.801   2.027   2.223
31557WAT      O94912   1.433   6.661   4.462
31557WAT     H194913   1.362   6.730   4.452
31557WAT     H294914   1.394   6.570   4.447
31558WAT      O94915   8.946   2.097   2.743
31558WAT     H194916   8.901   2.017   2.780
31558WAT     H294917   9.023   2.068   2.685
31559WAT      O94918   2.785   3.571   2.556
31559WAT     H194919   2.807   3.538   2.465
31559WAT     H294920   2.788   3.671   2.557
31560WAT      O94921   3.113   4.412   5.198
31560WAT     H194922   3.017   4.427   5.177
31560WAT     H294923   3.169   4.463   5.132
31561WAT      O94924   1.630   6.824   6.964
31561WAT     H194925   1.722   6.798   6.936
31561WAT     H294926   1.567   6.809   6.888
31562WAT      O94927   3.325   2.730   0.644
31562WAT     H194928   3.384   2.685   0.711
31562WAT     H294929   3.231   2.698   0.656
31563WAT      O94930   4.688   3.197   0.688
31563WAT     H194931   4.766   3.250   0.720
31563WAT     H294932   4.682   3.203   0.588
31564WAT      O94933   5.467   4.855   7.553
31564WAT     H194934   5.402   4.845   7.477
31564WAT     H294935   5.486   4.766   7.593
31565WAT      O94936   3.767   3.171   1.457
31565WAT     H194937   3.783   3.250   1.516
31565WAT     H294938   3.753   3.202   1.363
31566WAT      O94939   2.138   4.492   6.876
31566WAT     H194940   2.160   4.564   6.942
31566WAT     H294941   2.219   4.473   6.820
31567WAT      O94942   5.308   7.256   5.950
31567WAT     H194943   5.253   7.316   5.893
31567WAT     H294944   5.248   7.203   6.010
31568WAT      O94945   5.879   1.798   9.392
31568WAT     H194946   5.924   1.782   9.479
31568WAT     H294947   5.879   1.897   9.373
31569WAT      O94948   3.792   9.700   8.403
31569WAT     H194949   3.884   9.733   8.425
31569WAT     H294950   3.765   9.734   8.314
31570WAT      O94951   3.226   0.952   8.710
31570WAT     H194952   3.174   0.885   8.762
31570WAT     H294953   3.278   0.905   8.638
31571WAT      O94954   3.143   8.499   9.117
31571WAT     H194955   3.170   8.418   9.065
31571WAT     H294956   3.106   8.568   9.054
31572WAT      O94957   6.948   9.133   8.265
31572WAT     H194958   6.911   9.097   8.180
31572WAT     H294959   6.973   9.057   8.325
31573WAT      O94960   9.438   5.375   1.256
31573WAT     H194961   9.486   5.463   1.259
31573WAT     H294962   9.394   5.364   1.167
31574WAT      O94963   5.481   1.092   5.038
31574WAT     H194964   5.452   1.177   5.081
31574WAT     H294965   5.535   1.112   4.957
31575WAT      O94966   8.670   0.211   7.819
31575WAT     H194967   8.765   0.182   7.810
31575WAT     H294968   8.664   0.292   7.877
31576WAT      O94969   1.883   7.028   3.302
31576WAT     H194970   1.982   7.029   3.288
31576WAT     H294971   1.860   6.966   3.377
31577WAT      O94972   4.670   7.619   1.373
31577WAT     H194973   4.701   7.526   1.354
31577WAT     H294974   4.714   7.652   1.457
31578WAT      O94975   3.813   4.002   7.202
31578WAT     H194976   3.850   4.094   7.209
31578WAT     H294977   3.878   3.943   7.155
31579WAT      O94978   4.380   0.104   8.359
31579WAT     H194979   4.416   0.157   8.437
31579WAT     H294980   4.423   0.014   8.357
31580WAT      O94981   3.410   4.973   5.825
31580WAT     H194982   3.422   4.902   5.756
31580WAT     H294983   3.390   5.060   5.781
31581WAT      O94984   4.591   8.836   2.181
31581WAT     H194985   4.507   8.888   2.163
31581WAT     H294986   4.637   8.875   2.261
31582WAT      O94987   2.866   9.091   4.828
31582WAT     H194988   2.910   9.109   4.915
31582WAT     H294989   2.784   9.147   4.820
31583WAT      O94990   0.443   6.112   8.209
31583WAT     H194991   0.493   6.101   8.123
31583WAT     H294992   0.382   6.034   8.222
31584WAT      O94993   4.045   7.488   8.408
31584WAT     H194994   4.096   7.415   8.363
31584WAT     H294995   4.088   7.509   8.496
31585WAT      O94996   6.519   2.258   2.178
31585WAT     H194997   6.486   2.236   2.086
31585WAT     H294998   6.465   2.208   2.246
31586WAT      O94999   8.213   7.662   4.093
31586WAT     H195000   8.245   7.756   4.076
31586WAT     H295001   8.283   7.612   4.142
31587WAT      O95002   1.854   2.928   2.308
31587WAT     H195003   1.934   2.983   2.285
31587WAT     H295004   1.826   2.875   2.227
31588WAT      O95005   9.018   6.590   9.732
31588WAT     H195006   9.012   6.500   9.690
31588WAT     H295007   8.927   6.622   9.758
31589WAT      O95008   7.955   0.167   4.694
31589WAT     H195009   8.005   0.236   4.747
31589WAT     H295010   7.964   0.078   4.738
31590WAT      O95011   4.964   6.837   4.027
31590WAT     H195012   4.907   6.792   4.096
31590WAT     H295013   4.953   6.790   3.939
31591WAT      O95014   9.709   7.756   7.622
31591WAT     H195015   9.700   7.676   7.682
31591WAT     H295016   9.702   7.727   7.527
31592WAT      O95017   1.296   5.502   2.073
31592WAT     H195018   1.227   5.440   2.109
31592WAT     H295019   1.373   5.507   2.136
31593WAT      O95020   2.021   5.806   8.951
31593WAT     H195021   2.016   5.755   8.865
31593WAT     H295022   1.952   5.772   9.014
31594WAT      O95023   2.552   2.331   9.428
31594WAT     H195024   2.477   2.382   9.386
31594WAT     H295025   2.615   2.394   9.473
31595WAT      O95026   9.518   6.022   4.852
31595WAT     H195027   9.481   6.041   4.943
31595WAT     H295028   9.535   5.924   4.843
31596WAT      O95029   3.222   2.101   5.053
31596WAT     H195030   3.130   2.087   5.016
31596WAT     H295031   3.290   2.071   4.985
31597WAT      O95032   3.115   4.863   3.242
31597WAT     H195033   3.080   4.815   3.162
31597WAT     H295034   3.213   4.846   3.252
31598WAT      O95035   2.221   2.227   3.420
31598WAT     H195036   2.161   2.213   3.341
31598WAT     H295037   2.180   2.294   3.481
31599WAT      O95038   4.968   4.237   5.036
31599WAT     H195039   4.955   4.277   5.126
31599WAT     H295040   4.917   4.152   5.029
31600WAT      O95041   8.660   6.155   0.888
31600WAT     H195042   8.693   6.102   0.967
31600WAT     H295043   8.684   6.251   0.901
31601WAT      O95044   8.364   6.531   0.996
31601WAT     H195045   8.406   6.495   0.912
31601WAT     H295046   8.406   6.487   1.075
31602WAT      O95047   4.021   6.558   6.585
31602WAT     H195048   3.965   6.592   6.510
31602WAT     H295049   3.965   6.501   6.645
31603WAT      O95050   7.565   0.032   3.390
31603WAT     H195051   7.500   0.010   3.463
31603WAT     H295052   7.593  -0.053   3.344
31604WAT      O95053   0.210   8.461   4.952
31604WAT     H195054   0.125   8.452   4.901
31604WAT     H295055   0.205   8.407   5.036
31605WAT      O95056   2.203   9.571   6.563
31605WAT     H195057   2.159   9.495   6.515
31605WAT     H295058   2.301   9.554   6.570
31606WAT      O95059   7.400   5.831   7.435
31606WAT     H195060   7.357   5.921   7.439
31606WAT     H295061   7.355   5.776   7.364
31607WAT      O95062   7.534   5.547   9.449
31607WAT     H195063   7.593   5.609   9.396
31607WAT     H295064   7.449   5.531   9.399
31608WAT      O95065   3.937   3.869   6.999
31608WAT     H195066   3.941   3.874   6.899
31608WAT     H295067   4.030   3.869   7.036
31609WAT      O95068   8.518   7.925   7.213
31609WAT     H195069   8.511   8.015   7.170
31609WAT     H295070   8.614   7.900   7.221
31610WAT      O95071   9.304   7.631   9.715
31610WAT     H195072   9.269   7.543   9.746
31610WAT     H295073   9.363   7.618   9.635
31611WAT      O95074   9.878   8.909   4.565
31611WAT     H195075   9.862   9.002   4.598
31611WAT     H295076   9.859   8.905   4.467
31612WAT      O95077   3.547   6.964   4.860
31612WAT     H195078   3.646   6.972   4.859
31612WAT     H295079   3.505   7.054   4.854
31613WAT      O95080   6.267   6.650   2.892
31613WAT     H195081   6.293   6.601   2.809
31613WAT     H295082   6.295   6.597   2.972
31614WAT      O95083   3.812   4.039   5.636
31614WAT     H195084   3.800   3.963   5.699
31614WAT     H295085   3.834   4.004   5.544
31615WAT      O95086   8.067   6.358   8.123
31615WAT     H195087   8.036   6.416   8.198
31615WAT     H295088   8.153   6.392   8.086
31616WAT      O95089   0.935   1.136   8.891
31616WAT     H195090   0.967   1.228   8.869
31616WAT     H295091   0.963   1.113   8.984
31617WAT      O95092   9.408   0.136   2.835
31617WAT     H195093   9.477   0.208   2.836
31617WAT     H295094   9.324   0.170   2.793
31618WAT      O95095   2.137   9.735   3.765
31618WAT     H195096   2.228   9.719   3.725
31618WAT     H295097   2.107   9.828   3.743
31619WAT      O95098   2.910   7.075   2.581
31619WAT     H195099   2.851   7.064   2.661
31619WAT     H295100   2.993   7.019   2.593
31620WAT      O95101   2.505   0.903   1.394
31620WAT     H195102   2.594   0.858   1.382
31620WAT     H295103   2.504   0.950   1.482
31621WAT      O95104   1.448   3.598   2.174
31621WAT     H195105   1.349   3.611   2.181
31621WAT     H295106   1.471   3.505   2.203
31622WAT      O95107   7.014   2.250   3.593
31622WAT     H195108   6.927   2.202   3.581
31622WAT     H295109   7.071   2.236   3.512
31623WAT      O95110   3.968   6.685   0.161
31623WAT     H195111   3.897   6.745   0.125
31623WAT     H295112   4.039   6.671   0.091
31624WAT      O95113   4.869   8.023   5.107
31624WAT     H195114   4.944   8.031   5.042
31624WAT     H295115   4.870   8.101   5.170
31625WAT      O95116   4.835   5.998   8.538
31625WAT     H195117   4.866   5.939   8.612
31625WAT     H295118   4.810   6.088   8.575
31626WAT      O95119   3.713   8.871   2.160
31626WAT     H195120   3.769   8.850   2.240
31626WAT     H295121   3.747   8.955   2.117
31627WAT      O95122   6.481   4.446   0.314
31627WAT     H195123   6.393   4.491   0.325
31627WAT     H295124   6.551   4.496   0.365
31628WAT      O95125   5.524   2.396   7.826
31628WAT     H195126   5.601   2.433   7.879
31628WAT     H295127   5.440   2.444   7.850
31629WAT      O95128   3.920   9.547   8.859
31629WAT     H195129   4.008   9.590   8.878
31629WAT     H295130   3.859   9.561   8.937
31630WAT      O95131   1.834   0.018   8.993
31630WAT     H195132   1.742  -0.004   8.959
31630WAT     H295133   1.900   0.014   8.918
31631WAT      O95134   6.939   8.868   0.876
31631WAT     H195135   6.861   8.922   0.906
31631WAT     H295136   7.019   8.927   0.866
31632WAT      O95137   3.601   1.221   9.801
31632WAT     H195138   3.694   1.202   9.771
31632WAT     H295139   3.555   1.135   9.823
31633WAT      O95140   4.177   4.972   0.394
31633WAT     H195141   4.262   4.934   0.357
31633WAT     H295142   4.147   4.918   0.472
31634WAT      O95143   7.882   2.951   9.292
31634WAT     H195144   7.830   2.901   9.222
31634WAT     H295145   7.859   3.048   9.287
31635WAT      O95146   7.172   8.963   1.961
31635WAT     H195147   7.160   8.896   2.035
31635WAT     H295148   7.222   8.921   1.886
31636WAT      O95149   8.371   3.941   4.314
31636WAT     H195150   8.394   4.027   4.359
31636WAT     H295151   8.318   3.883   4.376
31637WAT      O95152   6.037   6.373   7.030
31637WAT     H195153   6.131   6.400   7.053
31637WAT     H295154   6.037   6.323   6.944
31638WAT      O95155   2.174   4.602   9.579
31638WAT     H195156   2.204   4.644   9.493
31638WAT     H295157   2.234   4.633   9.653
31639WAT      O95158   6.903   6.686   5.184
31639WAT     H195159   6.992   6.729   5.202
31639WAT     H295160   6.915   6.587   5.176
31640WAT      O95161   9.172   5.910   0.285
31640WAT     H195162   9.144   5.845   0.214
31640WAT     H295163   9.150   6.003   0.256
31641WAT      O95164   0.495   8.342   8.648
31641WAT     H195165   0.523   8.289   8.727
31641WAT     H295166   0.528   8.436   8.658
31642WAT      O95167   9.480   9.605   3.544
31642WAT     H195168   9.463   9.685   3.602
31642WAT     H295169   9.402   9.542   3.550
31643WAT      O95170   8.409   9.461   2.759
31643WAT     H195171   8.371   9.535   2.814
31643WAT     H295172   8.508   9.459   2.769
31644WAT      O95173   1.320   4.404   8.514
31644WAT     H195174   1.390   4.426   8.447
31644WAT     H295175   1.339   4.315   8.556
31645WAT      O95176   6.497   2.359   3.119
31645WAT     H195177   6.571   2.402   3.170
31645WAT     H295178   6.413   2.412   3.131
31646WAT      O95179   4.633   3.589   8.366
31646WAT     H195180   4.704   3.582   8.437
31646WAT     H295181   4.543   3.594   8.409
31647WAT      O95182   9.203   7.261   3.789
31647WAT     H195183   9.220   7.162   3.793
31647WAT     H295184   9.198   7.289   3.693
31648WAT      O95185   4.988   5.238   2.356
31648WAT     H195186   5.015   5.211   2.263
31648WAT     H295187   5.062   5.215   2.420
31649WAT      O95188   1.438   8.942   3.087
31649WAT     H195189   1.496   8.906   3.014
31649WAT     H295190   1.347   8.963   3.051
31650WAT      O95191   8.278   3.803   6.058
31650WAT     H195192   8.287   3.790   6.157
31650WAT     H295193   8.347   3.748   6.011
31651WAT      O95194   1.958   7.490   4.756
31651WAT     H195195   1.948   7.514   4.853
31651WAT     H295196   1.995   7.568   4.706
31652WAT      O95197   3.885   8.777   9.640
31652WAT     H195198   3.961   8.713   9.645
31652WAT     H295199   3.799   8.727   9.630
31653WAT      O95200   8.336   6.842   2.834
31653WAT     H195201   8.339   6.799   2.924
31653WAT     H295202   8.318   6.940   2.845
31654WAT      O95203   2.804   5.782   2.591
31654WAT     H195204   2.846   5.767   2.681
31654WAT     H295205   2.812   5.699   2.536
31655WAT      O95206   7.742   6.186   1.337
31655WAT     H195207   7.666   6.166   1.275
31655WAT     H295208   7.804   6.108   1.341
31656WAT      O95209   0.477   5.761   0.163
31656WAT     H195210   0.396   5.704   0.158
31656WAT     H295211   0.455   5.846   0.211
31657WAT      O95212   5.498   8.185   1.617
31657WAT     H195213   5.426   8.194   1.548
31657WAT     H295214   5.573   8.248   1.595
31658WAT      O95215   7.664   2.551   8.500
31658WAT     H195216   7.675   2.532   8.402
31658WAT     H295217   7.754   2.561   8.542
31659WAT      O95218   6.525   8.515   5.435
31659WAT     H195219   6.607   8.458   5.428
31659WAT     H295220   6.447   8.466   5.395
31660WAT      O95221   3.922   5.391   2.419
31660WAT     H195222   3.961   5.459   2.482
31660WAT     H295223   3.856   5.334   2.469
31661WAT      O95224   4.430   2.742   1.169
31661WAT     H195225   4.374   2.666   1.135
31661WAT     H295226   4.386   2.829   1.146
31662WAT      O95227   6.161   2.113   1.202
31662WAT     H195228   6.153   2.192   1.141
31662WAT     H295229   6.221   2.045   1.161
31663WAT      O95230   1.701   1.169   2.421
31663WAT     H195231   1.650   1.106   2.480
31663WAT     H295232   1.787   1.195   2.466
31664WAT      O95233   7.899   5.175   9.452
31664WAT     H195234   7.804   5.204   9.464
31664WAT     H295235   7.939   5.155   9.542
31665WAT      O95236   9.083   8.925   8.837
31665WAT     H195237   9.059   8.938   8.933
31665WAT     H295238   9.163   8.866   8.830
31666WAT      O95239   1.170   6.612   9.425
31666WAT     H195240   1.137   6.698   9.387
31666WAT     H295241   1.171   6.618   9.525
31667WAT      O95242   9.102   2.969   3.724
31667WAT     H195243   9.102   3.027   3.643
31667WAT     H295244   9.013   2.976   3.770
31668WAT      O95245   7.742   4.700   1.495
31668WAT     H195246   7.694   4.787   1.506
31668WAT     H295247   7.790   4.700   1.407
31669WAT      O95248   4.716   7.595   8.992
31669WAT     H195249   4.669   7.570   8.907
31669WAT     H295250   4.814   7.597   8.976
31670WAT      O95251   4.197   8.341   3.545
31670WAT     H195252   4.198   8.251   3.587
31670WAT     H295253   4.119   8.394   3.580
31671WAT      O95254   1.721   0.539   8.398
31671WAT     H195255   1.669   0.483   8.462
31671WAT     H295256   1.760   0.481   8.327
31672WAT      O95257   9.455   8.661   5.081
31672WAT     H195258   9.507   8.712   5.013
31672WAT     H295259   9.371   8.627   5.039
31673WAT      O95260   4.281   3.225   1.692
31673WAT     H195261   4.281   3.309   1.747
31673WAT     H295262   4.190   3.183   1.695
31674WAT      O95263   6.647   8.394   7.191
31674WAT     H195264   6.604   8.373   7.279
31674WAT     H295265   6.633   8.317   7.128
31675WAT      O95266   7.400   0.002   0.182
31675WAT     H195267   7.449   0.083   0.214
31675WAT     H295268   7.309  -0.000   0.224
31676WAT      O95269   3.786   1.069   0.217
31676WAT     H195270   3.834   1.153   0.241
31676WAT     H295271   3.691   1.090   0.196
31677WAT      O95272   9.526   4.918   3.738
31677WAT     H195273   9.473   4.986   3.789
31677WAT     H295274   9.482   4.829   3.745
31678WAT      O95275   4.031   1.908   9.403
31678WAT     H195276   4.053   1.814   9.375
31678WAT     H295277   3.962   1.905   9.476
31679WAT      O95278   0.286   4.011   9.218
31679WAT     H195279   0.289   4.069   9.299
31679WAT     H295280   0.225   4.050   9.150
31680WAT      O95281   2.162   4.453   7.895
31680WAT     H195282   2.228   4.382   7.921
31680WAT     H295283   2.203   4.512   7.825
31681WAT      O95284   1.112   3.602   5.196
31681WAT     H195285   1.115   3.513   5.241
31681WAT     H295286   1.019   3.618   5.162
31682WAT      O95287   9.399   8.239   6.390
31682WAT     H195288   9.351   8.327   6.389
31682WAT     H295289   9.334   8.165   6.410
31683WAT      O95290   9.002   0.962   5.387
31683WAT     H195291   9.089   0.916   5.371
31683WAT     H295292   8.927   0.906   5.354
31684WAT      O95293   6.831   1.861   0.958
31684WAT     H195294   6.761   1.854   1.030
31684WAT     H295295   6.865   1.955   0.953
31685WAT      O95296   1.634   5.212   7.296
31685WAT     H195297   1.570   5.271   7.248
31685WAT     H295298   1.601   5.118   7.296
31686WAT      O95299   0.220   2.143   4.211
31686WAT     H195300   0.242   2.143   4.114
31686WAT     H295301   0.260   2.061   4.254
31687WAT      O95302   3.385   1.299   9.169
31687WAT     H195303   3.405   1.201   9.165
31687WAT     H295304   3.406   1.333   9.261
31688WAT      O95305   1.320   4.569   0.276
31688WAT     H195306   1.363   4.481   0.295
31688WAT     H295307   1.221   4.557   0.268
31689WAT      O95308   7.295   4.399   8.681
31689WAT     H195309   7.201   4.372   8.656
31689WAT     H295310   7.359   4.343   8.628
31690WAT      O95311   2.613   5.127   1.307
31690WAT     H195312   2.610   5.145   1.209
31690WAT     H295313   2.548   5.187   1.354
31691WAT      O95314   6.766   6.578   8.785
31691WAT     H195315   6.775   6.663   8.837
31691WAT     H295316   6.675   6.539   8.801
31692WAT      O95317   3.525   1.865   5.512
31692WAT     H195318   3.522   1.961   5.486
31692WAT     H295319   3.447   1.817   5.470
31693WAT      O95320   7.980   6.663   1.201
31693WAT     H195321   7.896   6.715   1.185
31693WAT     H295322   8.053   6.699   1.144
31694WAT      O95323   3.493   2.442   8.074
31694WAT     H195324   3.400   2.467   8.101
31694WAT     H295325   3.503   2.342   8.081
31695WAT      O95326   5.375   9.435   4.603
31695WAT     H195327   5.343   9.522   4.564
31695WAT     H295328   5.454   9.452   4.661
31696WAT      O95329   3.655   1.159   3.713
31696WAT     H195330   3.558   1.137   3.707
31696WAT     H295331   3.693   1.167   3.621
31697WAT      O95332   1.424   7.046   8.524
31697WAT     H195333   1.327   7.040   8.502
31697WAT     H295334   1.466   6.956   8.518
31698WAT      O95335   1.823   8.826   5.579
31698WAT     H195336   1.889   8.868   5.517
31698WAT     H295337   1.842   8.728   5.588
31699WAT      O95338   6.644   0.879   3.914
31699WAT     H195339   6.706   0.861   3.838
31699WAT     H295340   6.628   0.794   3.965
31700WAT      O95341   2.701   3.975   9.389
31700WAT     H195342   2.780   3.914   9.380
31700WAT     H295343   2.617   3.922   9.382
31701WAT      O95344   0.583   8.617   4.391
31701WAT     H195345   0.576   8.691   4.324
31701WAT     H295346   0.510   8.625   4.458
31702WAT      O95347   2.117   7.745   2.021
31702WAT     H195348   2.134   7.841   2.000
31702WAT     H295349   2.079   7.738   2.114
31703WAT      O95350   5.597   5.238   6.146
31703WAT     H195351   5.593   5.159   6.207
31703WAT     H295352   5.505   5.273   6.130
31704WAT      O95353   1.247   1.995   4.132
31704WAT     H195354   1.270   1.952   4.220
31704WAT     H295355   1.326   1.990   4.071
31705WAT      O95356   2.344   2.880   6.477
31705WAT     H195357   2.361   2.805   6.540
31705WAT     H295358   2.372   2.853   6.385
31706WAT      O95359   8.118   9.792   9.237
31706WAT     H195360   8.156   9.792   9.330
31706WAT     H295361   8.042   9.727   9.233
31707WAT      O95362   5.388   5.823   6.589
31707WAT     H195363   5.400   5.836   6.490
31707WAT     H295364   5.319   5.886   6.623
31708WAT      O95365   3.366   4.815   7.870
31708WAT     H195366   3.338   4.863   7.953
31708WAT     H295367   3.463   4.832   7.852
31709WAT      O95368   9.059   2.805   0.971
31709WAT     H195369   9.021   2.895   0.951
31709WAT     H295370   9.157   2.814   0.990
31710WAT      O95371   0.143   3.748   0.658
31710WAT     H195372   0.217   3.737   0.724
31710WAT     H295373   0.181   3.773   0.569
31711WAT      O95374   6.286   0.781   0.437
31711WAT     H195375   6.381   0.757   0.452
31711WAT     H295376   6.281   0.868   0.388
31712WAT      O95377   9.541   4.044   1.358
31712WAT     H195378   9.569   3.956   1.395
31712WAT     H295379   9.526   4.036   1.260
31713WAT      O95380   7.507   0.562   9.228
31713WAT     H195381   7.471   0.477   9.190
31713WAT     H295382   7.605   0.553   9.243
31714WAT      O95383   2.860   8.940   1.795
31714WAT     H195384   2.897   9.001   1.724
31714WAT     H295385   2.883   8.846   1.774
31715WAT      O95386   4.384   5.347   9.773
31715WAT     H195387   4.464   5.396   9.739
31715WAT     H295388   4.389   5.339   9.872
31716WAT      O95389   3.137   8.568   9.379
31716WAT     H195390   3.085   8.502   9.433
31716WAT     H295391   3.137   8.539   9.283
31717WAT      O95392   2.426   5.564   1.480
31717WAT     H195393   2.525   5.560   1.482
31717WAT     H295394   2.395   5.587   1.387
31718WAT      O95395   8.369   1.676   3.542
31718WAT     H195396   8.272   1.686   3.520
31718WAT     H295397   8.410   1.607   3.483
31719WAT      O95398   3.896   8.746   4.285
31719WAT     H195399   3.960   8.778   4.215
31719WAT     H295400   3.810   8.720   4.242
31720WAT      O95401   1.015   8.329   1.631
31720WAT     H195402   0.943   8.276   1.677
31720WAT     H295403   0.976   8.380   1.555
31721WAT      O95404   5.656   2.424   9.665
31721WAT     H195405   5.736   2.412   9.725
31721WAT     H295406   5.573   2.403   9.715
31722WAT      O95407   8.199   4.141   5.935
31722WAT     H195408   8.277   4.088   5.904
31722WAT     H295409   8.155   4.094   6.011
31723WAT      O95410   2.806   2.598   1.529
31723WAT     H195411   2.731   2.599   1.463
31723WAT     H295412   2.891   2.622   1.483
31724WAT      O95413   1.255   5.555   9.257
31724WAT     H195414   1.274   5.467   9.301
31724WAT     H295415   1.165   5.553   9.215
31725WAT      O95416   3.853   4.722   0.411
31725WAT     H195417   3.877   4.751   0.318
31725WAT     H295418   3.753   4.722   0.420
31726WAT      O95419   6.669   9.267   5.136
31726WAT     H195420   6.589   9.326   5.146
31726WAT     H295421   6.726   9.274   5.218
31727WAT      O95422   7.553   6.544   9.404
31727WAT     H195423   7.507   6.462   9.440
31727WAT     H295424   7.528   6.623   9.460
31728WAT      O95425   6.264   3.113   1.622
31728WAT     H195426   6.244   3.210   1.616
31728WAT     H295427   6.200   3.062   1.564
31729WAT      O95428   8.585   7.946   5.463
31729WAT     H195429   8.544   7.900   5.541
31729WAT     H295430   8.616   7.878   5.396
31730WAT      O95431   1.405   8.219   9.107
31730WAT     H195432   1.324   8.244   9.055
31730WAT     H295433   1.378   8.189   9.198
31731WAT      O95434   3.154   1.720   3.509
31731WAT     H195435   3.058   1.744   3.525
31731WAT     H295436   3.211   1.799   3.531
31732WAT      O95437   8.201   2.137   8.266
31732WAT     H195438   8.223   2.169   8.358
31732WAT     H295439   8.107   2.163   8.244
31733WAT      O95440   0.598   2.782   4.291
31733WAT     H195441   0.632   2.853   4.230
31733WAT     H295442   0.596   2.816   4.385
31734WAT      O95443   8.343   9.123   4.918
31734WAT     H195444   8.423   9.176   4.890
31734WAT     H295445   8.264   9.150   4.863
31735WAT      O95446   2.097   1.234   6.620
31735WAT     H195447   2.118   1.325   6.585
31735WAT     H295448   2.169   1.205   6.683
31736WAT      O95449   7.580   4.695   5.701
31736WAT     H195450   7.611   4.746   5.620
31736WAT     H295451   7.506   4.746   5.746
31737WAT      O95452   3.488   1.758   5.251
31737WAT     H195453   3.526   1.738   5.161
31737WAT     H295454   3.395   1.722   5.257
31738WAT      O95455   2.895   3.387   6.372
31738WAT     H195456   2.828   3.331   6.323
31738WAT     H295457   2.976   3.333   6.392
31739WAT      O95458   7.888   3.203   6.158
31739WAT     H195459   7.917   3.241   6.071
31739WAT     H295460   7.965   3.154   6.200
31740WAT      O95461   2.883   2.880   2.179
31740WAT     H195462   2.829   2.943   2.124
31740WAT     H295463   2.884   2.790   2.136
31741WAT      O95464   5.712   3.938   4.971
31741WAT     H195465   5.759   3.960   5.056
31741WAT     H295466   5.704   3.839   4.961
31742WAT      O95467   1.936   0.459   5.567
31742WAT     H195468   1.856   0.507   5.530
31742WAT     H295469   1.948   0.483   5.663
31743WAT      O95470   5.528   1.830   1.503
31743WAT     H195471   5.454   1.775   1.465
31743WAT     H295472   5.561   1.894   1.433
31744WAT      O95473   8.744   5.936   0.754
31744WAT     H195474   8.806   5.889   0.817
31744WAT     H295475   8.686   5.999   0.805
31745WAT      O95476   9.584   2.619   3.149
31745WAT     H195477   9.532   2.542   3.186
31745WAT     H295478   9.668   2.586   3.107
31746WAT      O95479   7.639   5.577   4.764
31746WAT     H195480   7.731   5.538   4.773
31746WAT     H295481   7.639   5.671   4.799
31747WAT      O95482   7.153   0.355   9.280
31747WAT     H195483   7.128   0.451   9.292
31747WAT     H295484   7.236   0.335   9.332
31748WAT      O95485   5.677   6.508   3.904
31748WAT     H195486   5.771   6.535   3.884
31748WAT     H295487   5.657   6.528   4.000
31749WAT      O95488   8.973   4.471   9.678
31749WAT     H195489   8.994   4.399   9.744
31749WAT     H295490   8.911   4.435   9.608
31750WAT      O95491   5.237   7.572   6.557
31750WAT     H195492   5.235   7.583   6.656
31750WAT     H295493   5.259   7.477   6.534
31751WAT      O95494   0.996   7.818   7.823
31751WAT     H195495   1.031   7.902   7.782
31751WAT     H295496   1.064   7.745   7.813
31752WAT      O95497   9.148   3.468   8.059
31752WAT     H195498   9.162   3.518   7.973
31752WAT     H295499   9.050   3.459   8.076
31753WAT      O95500   8.961   3.875   7.316
31753WAT     H195501   8.997   3.938   7.384
31753WAT     H295502   9.036   3.828   7.271
31754WAT      O95503   0.753   8.694   8.976
31754WAT     H195504   0.845   8.722   9.003
31754WAT     H295505   0.697   8.776   8.962
31755WAT      O95506   6.144   3.660   2.496
31755WAT     H195507   6.051   3.658   2.532
31755WAT     H295508   6.152   3.598   2.418
31756WAT      O95509   4.969   8.211   0.773
31756WAT     H195510   4.968   8.178   0.868
31756WAT     H295511   4.912   8.292   0.766
31757WAT      O95512   6.462   8.865   5.030
31757WAT     H195513   6.394   8.818   5.085
31757WAT     H295514   6.526   8.914   5.089
31758WAT      O95515   0.381   3.950   7.965
31758WAT     H195516   0.388   3.859   7.923
31758WAT     H295517   0.348   3.940   8.059
31759WAT      O95518   0.281   8.784   4.280
31759WAT     H195519   0.377   8.805   4.297
31759WAT     H295520   0.235   8.865   4.243
31760WAT      O95521   8.301   2.560   9.186
31760WAT     H195522   8.305   2.535   9.089
31760WAT     H295523   8.279   2.657   9.194
31761WAT      O95524   3.081   7.152   4.577
31761WAT     H195525   3.126   7.106   4.653
31761WAT     H295526   3.142   7.152   4.497
31762WAT      O95527   0.920   0.994   4.977
31762WAT     H195528   0.828   1.007   5.015
31762WAT     H295529   0.981   0.959   5.049
31763WAT      O95530   6.396   2.947   7.779
31763WAT     H195531   6.362   2.862   7.820
31763WAT     H295532   6.319   2.999   7.742
31764WAT      O95533   3.839   2.596   8.245
31764WAT     H195534   3.914   2.533   8.268
31764WAT     H295535   3.875   2.689   8.238
31765WAT      O95536   6.076   4.513   4.488
31765WAT     H195537   5.985   4.486   4.517
31765WAT     H295538   6.114   4.578   4.554
31766WAT      O95539   6.921   3.885   4.128
31766WAT     H195540   6.866   3.966   4.112
31766WAT     H295541   6.926   3.867   4.227
31767WAT      O95542   6.199   9.548   1.547
31767WAT     H195543   6.198   9.450   1.571
31767WAT     H295544   6.221   9.558   1.450
31768WAT      O95545   2.644   6.246   5.189
31768WAT     H195546   2.590   6.202   5.261
31768WAT     H295547   2.592   6.323   5.151
31769WAT      O95548   3.496   3.395   2.979
31769WAT     H195549   3.532   3.337   3.052
31769WAT     H295550   3.439   3.340   2.918
31770WAT      O95551   0.504   1.871   8.744
31770WAT     H195552   0.525   1.922   8.828
31770WAT     H295553   0.489   1.935   8.669
31771WAT      O95554   9.275   0.310   2.033
31771WAT     H195555   9.231   0.281   1.948
31771WAT     H295556   9.242   0.254   2.109
31772WAT      O95557   9.516   0.989   7.885
31772WAT     H195558   9.542   1.063   7.824
31772WAT     H295559   9.429   0.950   7.855
31773WAT      O95560   5.419   5.768   8.244
31773WAT     H195561   5.327   5.798   8.266
31773WAT     H295562   5.427   5.669   8.257
31774WAT      O95563   0.343   5.113   8.517
31774WAT     H195564   0.386   5.046   8.579
31774WAT     H295565   0.412   5.149   8.454
31775WAT      O95566   4.443   1.893   4.101
31775WAT     H195567   4.505   1.824   4.139
31775WAT     H295568   4.497   1.973   4.071
31776WAT      O95569   9.231   7.277   1.150
31776WAT     H195570   9.147   7.330   1.145
31776WAT     H295571   9.232   7.225   1.235
31777WAT      O95572   1.699   7.431   0.464
31777WAT     H195573   1.682   7.524   0.496
31777WAT     H295574   1.700   7.369   0.543
31778WAT      O95575   4.619   1.562   4.731
31778WAT     H195576   4.620   1.464   4.749
31778WAT     H295577   4.692   1.584   4.665
31779WAT      O95578   7.032   3.205   6.568
31779WAT     H195579   6.939   3.229   6.541
31779WAT     H295580   7.089   3.287   6.566
31780WAT      O95581   5.786   5.116   7.971
31780WAT     H195582   5.732   5.035   7.948
31780WAT     H295583   5.755   5.194   7.915
31781WAT      O95584   6.858   5.714   0.483
31781WAT     H195585   6.851   5.615   0.489
31781WAT     H295586   6.937   5.740   0.427
31782WAT      O95587   0.426   4.663   5.101
31782WAT     H195588   0.408   4.762   5.109
31782WAT     H295589   0.339   4.614   5.101
31783WAT      O95590   3.017   7.406   6.319
31783WAT     H195591   3.048   7.366   6.233
31783WAT     H295592   3.078   7.482   6.344
31784WAT      O95593   8.499   0.406   4.504
31784WAT     H195594   8.424   0.454   4.549
31784WAT     H295595   8.463   0.341   4.437
31785WAT      O95596   7.870   4.090   2.265
31785WAT     H195597   7.896   4.019   2.330
31785WAT     H295598   7.778   4.071   2.231
31786WAT      O95599   8.829   3.512   7.768
31786WAT     H195600   8.873   3.426   7.792
31786WAT     H295601   8.886   3.589   7.800
31787WAT      O95602   3.554   3.087   9.675
31787WAT     H195603   3.503   3.012   9.718
31787WAT     H295604   3.617   3.049   9.607
31788WAT      O95605   4.495   1.450   7.232
31788WAT     H195606   4.415   1.402   7.196
31788WAT     H295607   4.536   1.505   7.159
31789WAT      O95608   8.451   7.667   4.780
31789WAT     H195609   8.409   7.758   4.768
31789WAT     H295610   8.380   7.601   4.804
31790WAT      O95611   3.580   2.459   3.086
31790WAT     H195612   3.510   2.456   3.015
31790WAT     H295613   3.658   2.403   3.059
31791WAT      O95614   5.379   4.687   0.385
31791WAT     H195615   5.374   4.682   0.485
31791WAT     H295616   5.472   4.711   0.358
31792WAT      O95617   7.623   6.309   9.703
31792WAT     H195618   7.672   6.375   9.759
31792WAT     H295619   7.531   6.295   9.741
31793WAT      O95620   3.797   2.146   0.834
31793WAT     H195621   3.713   2.094   0.848
31793WAT     H295622   3.864   2.088   0.787
31794WAT      O95623   3.434   7.999   8.634
31794WAT     H195624   3.432   7.928   8.705
31794WAT     H295625   3.358   7.986   8.571
31795WAT      O95626   8.050   3.551   4.267
31795WAT     H195627   8.082   3.643   4.246
31795WAT     H295628   8.017   3.507   4.183
31796WAT      O95629   2.765   2.226   2.142
31796WAT     H195630   2.846   2.246   2.088
31796WAT     H295631   2.767   2.281   2.226
31797WAT      O95632   8.375   6.906   4.032
31797WAT     H195633   8.440   6.981   4.040
31797WAT     H295634   8.337   6.905   3.939
31798WAT      O95635   1.005   4.002   2.164
31798WAT     H195636   0.919   3.975   2.207
31798WAT     H295637   0.987   4.064   2.088
31799WAT      O95638   0.151   1.338   4.145
31799WAT     H195639   0.125   1.386   4.061
31799WAT     H295640   0.114   1.245   4.143
31800WAT      O95641   6.596   0.419   8.531
31800WAT     H195642   6.529   0.421   8.457
31800WAT     H295643   6.596   0.329   8.573
31801WAT      O95644   9.562   5.193   4.424
31801WAT     H195645   9.476   5.162   4.464
31801WAT     H295646   9.563   5.172   4.326
31802WAT      O95647   8.754   3.585   6.637
31802WAT     H195648   8.656   3.597   6.618
31802WAT     H295649   8.806   3.597   6.552
31803WAT      O95650   4.350   2.573   2.767
31803WAT     H195651   4.311   2.629   2.694
31803WAT     H295652   4.297   2.490   2.778
31804WAT      O95653   0.337   7.441   4.024
31804WAT     H195654   0.417   7.447   3.965
31804WAT     H295655   0.305   7.532   4.048
31805WAT      O95656   6.234   1.254   9.700
31805WAT     H195657   6.323   1.210   9.686
31805WAT     H295658   6.240   1.315   9.779
31806WAT      O95659   6.605   7.492   1.261
31806WAT     H195660   6.680   7.544   1.218
31806WAT     H295661   6.639   7.403   1.290
31807WAT      O95662   7.934   3.234   3.078
31807WAT     H195663   7.845   3.206   3.114
31807WAT     H295664   7.924   3.264   2.983
31808WAT      O95665   1.373   8.110   7.374
31808WAT     H195666   1.282   8.124   7.414
31808WAT     H295667   1.395   8.187   7.313
31809WAT      O95668   0.932   7.309   9.639
31809WAT     H195669   0.915   7.231   9.699
31809WAT     H295670   1.003   7.285   9.573
31810WAT      O95671   2.605   4.251   0.299
31810WAT     H195672   2.673   4.210   0.360
31810WAT     H295673   2.650   4.318   0.240
31811WAT      O95674   6.323   8.282   7.342
31811WAT     H195675   6.284   8.259   7.432
31811WAT     H295676   6.331   8.199   7.287
31812WAT      O95677   9.875   3.083   9.045
31812WAT     H195678   9.842   3.175   9.029
31812WAT     H295679   9.820   3.040   9.117
31813WAT      O95680   7.106   2.302   7.141
31813WAT     H195681   7.141   2.305   7.047
31813WAT     H295682   7.151   2.228   7.191
31814WAT      O95683   9.457   3.982   9.874
31814WAT     H195684   9.541   3.990   9.928
31814WAT     H295685   9.378   4.002   9.933
31815WAT      O95686   5.330   0.517   2.158
31815WAT     H195687   5.262   0.483   2.093
31815WAT     H295688   5.376   0.440   2.202
31816WAT      O95689   2.680   0.541   2.461
31816WAT     H195690   2.748   0.609   2.434
31816WAT     H295691   2.694   0.515   2.557
31817WAT      O95692   0.413   7.203   8.242
31817WAT     H195693   0.508   7.204   8.273
31817WAT     H295694   0.360   7.136   8.295
31818WAT      O95695   0.935   5.059   0.493
31818WAT     H195696   0.868   4.985   0.489
31818WAT     H295697   0.899   5.134   0.550
31819WAT      O95698   0.539   7.646   9.573
31819WAT     H195699   0.622   7.625   9.625
31819WAT     H295700   0.463   7.592   9.609
31820WAT      O95701   5.446   2.907   2.745
31820WAT     H195702   5.356   2.920   2.787
31820WAT     H295703   5.440   2.924   2.647
31821WAT      O95704   6.174   2.194   8.437
31821WAT     H195705   6.147   2.229   8.347
31821WAT     H295706   6.092   2.171   8.489
31822WAT      O95707   7.145   6.133   8.974
31822WAT     H195708   7.068   6.125   9.037
31822WAT     H295709   7.231   6.118   9.023
31823WAT      O95710   0.407   9.559   5.897
31823WAT     H195711   0.444   9.594   5.983
31823WAT     H295712   0.357   9.632   5.850
31824WAT      O95713   8.138   8.366   3.581
31824WAT     H195714   8.220   8.397   3.627
31824WAT     H295715   8.057   8.409   3.622
31825WAT      O95716   4.621   0.407   8.235
31825WAT     H195717   4.688   0.334   8.250
31825WAT     H295718   4.657   0.471   8.168
31826WAT      O95719   4.734   9.341   2.619
31826WAT     H195720   4.690   9.404   2.555
31826WAT     H295721   4.675   9.261   2.632
31827WAT      O95722   5.634   1.692   5.730
31827WAT     H195723   5.662   1.598   5.707
31827WAT     H295724   5.534   1.695   5.740
31828WAT      O95725   4.454   0.143   6.647
31828WAT     H195726   4.370   0.112   6.603
31828WAT     H295727   4.443   0.139   6.746
31829WAT      O95728   3.940   5.520   3.964
31829WAT     H195729   3.911   5.445   4.024
31829WAT     H295730   4.038   5.512   3.946
31830WAT      O95731   4.223   4.307   0.437
31830WAT     H195732   4.138   4.359   0.443
31830WAT     H295733   4.277   4.321   0.520
31831WAT      O95734   2.516   0.837   1.904
31831WAT     H195735   2.587   0.786   1.953
31831WAT     H295736   2.433   0.839   1.959
31832WAT      O95737   3.231   4.819   5.510
31832WAT     H195738   3.174   4.864   5.579
31832WAT     H295739   3.320   4.797   5.549
31833WAT      O95740   1.146   0.579   1.186
31833WAT     H195741   1.111   0.500   1.135
31833WAT     H295742   1.110   0.663   1.147
31834WAT      O95743   3.616   2.633   4.212
31834WAT     H195744   3.533   2.686   4.191
31834WAT     H295745   3.590   2.545   4.252
31835WAT      O95746   1.721   5.716   4.741
31835WAT     H195747   1.669   5.743   4.661
31835WAT     H295748   1.734   5.616   4.741
31836WAT      O95749   0.257   1.247   0.052
31836WAT     H195750   0.170   1.227   0.097
31836WAT     H295751   0.300   1.162   0.021
31837WAT      O95752   1.146   3.651   4.650
31837WAT     H195753   1.175   3.643   4.554
31837WAT     H295754   1.048   3.636   4.656
31838WAT      O95755   2.815   4.973   9.798
31838WAT     H195756   2.732   4.946   9.848
31838WAT     H295757   2.894   4.923   9.833
31839WAT      O95758   4.181   8.633   1.528
31839WAT     H195759   4.133   8.714   1.561
31839WAT     H295760   4.248   8.660   1.458
31840WAT      O95761   2.193   5.322   1.144
31840WAT     H195762   2.190   5.238   1.198
31840WAT     H295763   2.165   5.302   1.050
31841WAT      O95764   8.656   7.961   7.818
31841WAT     H195765   8.699   7.974   7.907
31841WAT     H295766   8.606   8.044   7.793
31842WAT      O95767   5.494   2.044   3.346
31842WAT     H195768   5.584   2.082   3.368
31842WAT     H295769   5.506   1.961   3.291
31843WAT      O95770   5.921   7.082   9.713
31843WAT     H195771   5.894   7.037   9.798
31843WAT     H295772   5.991   7.027   9.666
31844WAT      O95773   1.353   0.426   9.006
31844WAT     H195774   1.386   0.350   9.061
31844WAT     H295775   1.301   0.391   8.928
31845WAT      O95776   4.026   9.308   8.363
31845WAT     H195777   4.039   9.252   8.281
31845WAT     H295778   3.929   9.331   8.372
31846WAT      O95779   8.660   3.454   3.577
31846WAT     H195780   8.727   3.428   3.647
31846WAT     H295781   8.650   3.379   3.512
31847WAT      O95782   6.311   9.750   3.626
31847WAT     H195783   6.386   9.816   3.637
31847WAT     H295784   6.345   9.658   3.644
31848WAT      O95785   6.090   3.945   4.265
31848WAT     H195786   5.990   3.948   4.259
31848WAT     H295787   6.122   4.017   4.325
31849WAT      O95788   3.735   5.636   9.276
31849WAT     H195789   3.779   5.591   9.354
31849WAT     H295790   3.691   5.567   9.218
31850WAT      O95791   1.482   7.078   1.642
31850WAT     H195792   1.558   7.023   1.609
31850WAT     H295793   1.402   7.062   1.584
31851WAT      O95794   3.213   3.543   2.738
31851WAT     H195795   3.121   3.508   2.756
31851WAT     H295796   3.213   3.594   2.652
31852WAT      O95797   8.865   4.720   8.271
31852WAT     H195798   8.775   4.749   8.303
31852WAT     H295799   8.872   4.736   8.173
31853WAT      O95800   1.718   4.987   5.979
31853WAT     H195801   1.689   4.979   6.074
31853WAT     H295802   1.711   5.083   5.949
31854WAT      O95803   9.740   9.748   5.415
31854WAT     H195804   9.756   9.694   5.497
31854WAT     H295805   9.795   9.710   5.340
31855WAT      O95806   3.313   2.389   0.244
31855WAT     H195807   3.384   2.370   0.176
31855WAT     H295808   3.340   2.350   0.332
31856WAT      O95809   2.789   6.164   8.814
31856WAT     H195810   2.865   6.103   8.836
31856WAT     H295811   2.743   6.132   8.731
31857WAT      O95812   8.932   5.342   0.191
31857WAT     H195813   8.849   5.389   0.220
31857WAT     H295814   9.003   5.409   0.170
31858WAT      O95815   3.130   0.793   2.180
31858WAT     H195816   3.200   0.739   2.134
31858WAT     H295817   3.117   0.757   2.273
31859WAT      O95818   7.950   4.131   4.445
31859WAT     H195819   7.972   4.166   4.354
31859WAT     H295820   7.972   4.034   4.449
31860WAT      O95821   4.972   2.638   5.131
31860WAT     H195822   5.039   2.604   5.196
31860WAT     H295823   5.012   2.710   5.075
31861WAT      O95824   1.028   3.874   3.396
31861WAT     H195825   0.937   3.873   3.354
31861WAT     H295826   1.019   3.856   3.494
31862WAT      O95827   5.423   6.113   1.374
31862WAT     H195828   5.454   6.032   1.424
31862WAT     H295829   5.452   6.107   1.278
31863WAT      O95830   2.869   8.101   8.775
31863WAT     H195831   2.912   8.128   8.861
31863WAT     H295832   2.869   8.001   8.767
31864WAT      O95833   5.390   6.976   8.635
31864WAT     H195834   5.392   6.877   8.650
31864WAT     H295835   5.384   6.995   8.536
31865WAT      O95836   1.867   8.180   7.387
31865WAT     H195837   1.884   8.268   7.431
31865WAT     H295838   1.821   8.118   7.451
31866WAT      O95839   0.749   5.435   1.835
31866WAT     H195840   0.845   5.409   1.845
31866WAT     H295841   0.741   5.535   1.832
31867WAT      O95842   1.791   1.464   8.494
31867WAT     H195843   1.793   1.412   8.580
31867WAT     H295844   1.697   1.489   8.472
31868WAT      O95845   4.809   8.774   3.146
31868WAT     H195846   4.824   8.696   3.085
31868WAT     H295847   4.734   8.753   3.209
31869WAT      O95848   7.090   0.385   2.839
31869WAT     H195849   7.092   0.457   2.770
31869WAT     H295850   7.184   0.360   2.863
31870WAT      O95851   8.190   3.632   4.846
31870WAT     H195852   8.136   3.716   4.851
31870WAT     H295853   8.135   3.555   4.880
31871WAT      O95854   5.265   8.450   1.520
31871WAT     H195855   5.288   8.364   1.565
31871WAT     H295856   5.215   8.431   1.435
31872WAT      O95857   3.987   6.412   8.301
31872WAT     H195858   3.967   6.314   8.313
31872WAT     H295859   4.023   6.427   8.209
31873WAT      O95860   0.464   7.763   3.402
31873WAT     H195861   0.406   7.838   3.433
31873WAT     H295862   0.558   7.796   3.392
31874WAT      O95863   1.132   3.793   6.217
31874WAT     H195864   1.129   3.781   6.118
31874WAT     H295865   1.215   3.751   6.253
31875WAT      O95866   3.653   9.563   9.593
31875WAT     H195867   3.706   9.570   9.678
31875WAT     H295868   3.621   9.469   9.581
31876WAT      O95869   7.959   0.531   6.095
31876WAT     H195870   7.861   0.520   6.078
31876WAT     H295871   7.974   0.612   6.151
31877WAT      O95872   2.116   9.581   8.467
31877WAT     H195873   2.167   9.551   8.547
31877WAT     H295874   2.106   9.505   8.402
31878WAT      O95875   9.689   5.430   1.462
31878WAT     H195876   9.712   5.335   1.439
31878WAT     H295877   9.621   5.465   1.397
31879WAT      O95878   5.840   3.093   5.679
31879WAT     H195879   5.748   3.061   5.657
31879WAT     H295880   5.834   3.168   5.745
31880WAT      O95881   4.788   4.091   2.485
31880WAT     H195882   4.866   4.139   2.444
31880WAT     H295883   4.710   4.153   2.491
31881WAT      O95884   8.656   4.645   9.018
31881WAT     H195885   8.557   4.631   9.011
31881WAT     H295886   8.677   4.741   9.004
31882WAT      O95887   7.730   2.247   9.820
31882WAT     H195888   7.788   2.325   9.846
31882WAT     H295889   7.728   2.181   9.895
31883WAT      O95890   0.919   2.845   2.088
31883WAT     H195891   0.874   2.756   2.077
31883WAT     H295892   0.941   2.860   2.184
31884WAT      O95893   5.864   0.535   5.807
31884WAT     H195894   5.793   0.483   5.760
31884WAT     H295895   5.880   0.621   5.759
31885WAT      O95896   7.880   6.738   3.653
31885WAT     H195897   7.801   6.677   3.651
31885WAT     H295898   7.939   6.719   3.574
31886WAT      O95899   0.678   3.573   2.457
31886WAT     H195900   0.622   3.511   2.513
31886WAT     H295901   0.652   3.668   2.476
31887WAT      O95902   5.774   1.313   8.736
31887WAT     H195903   5.775   1.230   8.680
31887WAT     H295904   5.712   1.300   8.814
31888WAT      O95905   7.095   2.946   9.548
31888WAT     H195906   7.007   2.906   9.524
31888WAT     H295907   7.157   2.875   9.581
31889WAT      O95908   5.440   2.070   2.492
31889WAT     H195909   5.345   2.060   2.461
31889WAT     H295910   5.501   2.075   2.413
31890WAT      O95911   9.072   7.385   5.352
31890WAT     H195912   9.146   7.409   5.416
31890WAT     H295913   9.112   7.352   5.266
31891WAT      O95914   7.281   5.593   5.505
31891WAT     H195915   7.333   5.510   5.484
31891WAT     H295916   7.285   5.655   5.427
31892WAT      O95917   5.769   0.345   7.896
31892WAT     H195918   5.775   0.361   7.797
31892WAT     H295919   5.840   0.397   7.943
31893WAT      O95920   5.812   3.191   4.005
31893WAT     H195921   5.905   3.219   4.029
31893WAT     H295922   5.781   3.242   3.925
31894WAT      O95923   4.376   5.935   2.709
31894WAT     H195924   4.426   5.986   2.639
31894WAT     H295925   4.436   5.916   2.786
31895WAT      O95926   4.672   8.176   0.736
31895WAT     H195927   4.749   8.119   0.763
31895WAT     H295928   4.587   8.138   0.773
31896WAT      O95929   1.395   1.517   9.028
31896WAT     H195930   1.422   1.499   8.933
31896WAT     H295931   1.408   1.614   9.049
31897WAT      O95932   1.505   0.788   9.330
31897WAT     H195933   1.531   0.713   9.270
31897WAT     H295934   1.499   0.873   9.277
31898WAT      O95935   5.379   0.806   5.271
31898WAT     H195936   5.299   0.751   5.245
31898WAT     H295937   5.404   0.865   5.194
31899WAT      O95938   1.391   0.215   1.647
31899WAT     H195939   1.414   0.262   1.562
31899WAT     H295940   1.292   0.216   1.660
   9.88928    9.84380    9.89279 
