GROningen MAchine for Chemical Simulation
95940
    1G5    HO5'    1   2.387   4.618   5.653
    1G5     O5'    2   2.300   4.632   5.691
    1G5     C5'    3   2.200   4.564   5.609
    1G5     H5'    4   2.127   4.528   5.682
    1G5    H5''    5   2.237   4.473   5.561
    1G5     C4'    6   2.139   4.674   5.517
    1G5     H4'    7   2.058   4.625   5.463
    1G5     O4'    8   2.091   4.783   5.592
    1G5     C1'    9   2.094   4.904   5.523
    1G5     H1'   10   1.992   4.940   5.506
    1G5      N9   11   2.172   5.007   5.604
    1G5      C8   12   2.240   4.987   5.724
    1G5      H8   13   2.249   4.887   5.764
    1G5      N7   14   2.295   5.099   5.763
    1G5      C5   15   2.263   5.197   5.676
    1G5      C6   16   2.292   5.334   5.664
    1G5      O6   17   2.360   5.403   5.744
    1G5      N1   18   2.253   5.391   5.544
    1G5      H1   19   2.277   5.488   5.527
    1G5      C2   20   2.185   5.323   5.450
    1G5      N2   21   2.145   5.400   5.349
    1G5     H21   22   2.165   5.499   5.344
    1G5     H22   23   2.120   5.345   5.268
    1G5      N3   24   2.151   5.198   5.454
    1G5      C4   25   2.191   5.140   5.571
    1G5     C3'   26   2.233   4.740   5.411
    1G5     H3'   27   2.329   4.761   5.458
    1G5     C2'   28   2.165   4.873   5.387
    1G5     H2'   29   2.238   4.946   5.352
    1G5     O2'   30   2.061   4.850   5.288
    1G5    HO2'   31   2.005   4.928   5.281
    1G5     O3'   32   2.270   4.670   5.291
    2G        P   33   2.417   4.683   5.230
    2G      OP1   34   2.413   4.594   5.103
    2G      OP2   35   2.516   4.654   5.340
    2G      O5'   36   2.412   4.839   5.197
    2G      C5'   37   2.354   4.895   5.080
    2G      H5'   38   2.246   4.888   5.090
    2G     H5''   39   2.385   4.830   4.999
    2G      C4'   40   2.394   5.039   5.052
    2G      H4'   41   2.357   5.063   4.952
    2G      O4'   42   2.344   5.139   5.145
    2G      C1'   43   2.444   5.242   5.167
    2G      H1'   44   2.400   5.339   5.145
    2G       N9   45   2.500   5.230   5.308
    2G       C8   46   2.487   5.126   5.394
    2G       H8   47   2.434   5.039   5.360
    2G       N7   48   2.548   5.144   5.511
    2G       C5   49   2.587   5.274   5.503
    2G       C6   50   2.655   5.352   5.605
    2G       O6   51   2.683   5.324   5.724
    2G       N1   52   2.697   5.476   5.556
    2G       H1   53   2.732   5.552   5.611
    2G       C2   54   2.674   5.517   5.432
    2G       N2   55   2.701   5.642   5.406
    2G      H21   56   2.724   5.707   5.480
    2G      H22   57   2.699   5.677   5.311
    2G       N3   58   2.619   5.447   5.331
    2G       C4   59   2.573   5.324   5.378
    2G      C3'   60   2.547   5.052   5.054
    2G      H3'   61   2.589   5.008   5.144
    2G      C2'   62   2.559   5.203   5.064
    2G      H2'   63   2.659   5.228   5.099
    2G      O2'   64   2.523   5.277   4.947
    2G     HO2'   65   2.539   5.222   4.870
    2G      O3'   66   2.607   5.003   4.939
    3G        P   67   2.756   4.948   4.959
    3G      OP1   68   2.804   4.913   4.822
    3G      OP2   69   2.760   4.849   5.061
    3G      O5'   70   2.822   5.082   5.002
    3G      C5'   71   2.873   5.188   4.918
    3G      H5'   72   2.782   5.238   4.884
    3G     H5''   73   2.947   5.163   4.842
    3G      C4'   74   2.943   5.301   4.991
    3G      H4'   75   2.960   5.388   4.927
    3G      O4'   76   2.877   5.340   5.107
    3G      C1'   77   2.967   5.369   5.211
    3G      H1'   78   2.962   5.474   5.242
    3G       N9   79   2.931   5.297   5.340
    3G       C8   80   2.886   5.173   5.354
    3G       H8   81   2.854   5.119   5.267
    3G       N7   82   2.889   5.128   5.477
    3G       C5   83   2.947   5.232   5.553
    3G       C6   84   2.982   5.247   5.690
    3G       O6   85   2.976   5.170   5.786
    3G       N1   86   3.042   5.371   5.716
    3G       H1   87   3.066   5.394   5.812
    3G       C2   88   3.060   5.469   5.624
    3G       N2   89   3.102   5.588   5.669
    3G      H21   90   3.134   5.593   5.765
    3G      H22   91   3.117   5.662   5.602
    3G       N3   92   3.031   5.460   5.499
    3G       C4   93   2.978   5.336   5.467
    3G      C3'   94   3.076   5.249   5.052
    3G      H3'   95   3.056   5.149   5.091
    3G      C2'   96   3.106   5.353   5.166
    3G      H2'   97   3.162   5.312   5.250
    3G      O2'   98   3.152   5.473   5.123
    3G     HO2'   99   3.115   5.497   5.037
    3G      O3'  100   3.182   5.247   4.965
    4U        P  101   3.323   5.172   5.003
    4U      OP1  102   3.407   5.193   4.882
    4U      OP2  103   3.291   5.028   5.034
    4U      O5'  104   3.391   5.221   5.132
    4U      C5'  105   3.466   5.339   5.128
    4U      H5'  106   3.412   5.420   5.079
    4U     H5''  107   3.558   5.314   5.074
    4U      C4'  108   3.485   5.397   5.271
    4U      H4'  109   3.523   5.498   5.262
    4U      O4'  110   3.370   5.382   5.348
    4U      C1'  111   3.411   5.381   5.481
    4U      H1'  112   3.372   5.464   5.540
    4U       N1  113   3.347   5.250   5.528
    4U       C6  114   3.314   5.141   5.450
    4U       H6  115   3.305   5.149   5.343
    4U       C5  116   3.256   5.031   5.501
    4U       H5  117   3.227   4.952   5.432
    4U       C4  118   3.236   5.013   5.640
    4U       O4  119   3.184   4.920   5.702
    4U       N3  120   3.267   5.122   5.713
    4U       H3  121   3.260   5.110   5.813
    4U       C2  122   3.329   5.242   5.669
    4U       O2  123   3.378   5.320   5.747
    4U      C3'  124   3.589   5.313   5.342
    4U      H3'  125   3.560   5.208   5.345
    4U      C2'  126   3.565   5.370   5.482
    4U      H2'  127   3.592   5.300   5.561
    4U      O2'  128   3.607   5.506   5.507
    4U     HO2'  129   3.700   5.500   5.529
    4U      O3'  130   3.716   5.332   5.306
    5U        P  131   3.808   5.208   5.272
    5U      OP1  132   3.952   5.253   5.259
    5U      OP2  133   3.752   5.132   5.158
    5U      O5'  134   3.796   5.119   5.399
    5U      C5'  135   3.880   5.147   5.509
    5U      H5'  136   3.863   5.250   5.541
    5U     H5''  137   3.986   5.139   5.488
    5U      C4'  138   3.852   5.064   5.632
    5U      H4'  139   3.905   5.108   5.717
    5U      O4'  140   3.716   5.060   5.669
    5U      C1'  141   3.675   4.922   5.697
    5U      H1'  142   3.631   4.922   5.796
    5U       N1  143   3.584   4.857   5.605
    5U       C6  144   3.560   4.892   5.472
    5U       H6  145   3.627   4.956   5.416
    5U       C5  146   3.464   4.828   5.397
    5U       H5  147   3.441   4.865   5.298
    5U       C4  148   3.378   4.728   5.460
    5U       O4  149   3.277   4.678   5.406
    5U       N3  150   3.402   4.701   5.594
    5U       H3  151   3.350   4.623   5.631
    5U       C2  152   3.506   4.753   5.667
    5U       O2  153   3.537   4.703   5.775
    5U      C3'  154   3.890   4.923   5.602
    5U      H3'  155   3.855   4.900   5.501
    5U      C2'  156   3.800   4.843   5.696
    5U      H2'  157   3.789   4.740   5.661
    5U      O2'  158   3.860   4.843   5.828
    5U     HO2'  159   3.953   4.862   5.810
    5U      O3'  160   4.029   4.908   5.621
    6A        P  161   4.106   4.802   5.540
    6A      OP1  162   4.248   4.797   5.586
    6A      OP2  163   4.081   4.828   5.398
    6A      O5'  164   4.030   4.668   5.576
    6A      C5'  165   4.058   4.592   5.694
    6A      H5'  166   4.031   4.654   5.779
    6A     H5''  167   4.166   4.575   5.697
    6A      C4'  168   3.987   4.451   5.706
    6A      H4'  169   4.021   4.397   5.794
    6A      O4'  170   3.848   4.463   5.696
    6A      C1'  171   3.803   4.360   5.612
    6A      H1'  172   3.733   4.301   5.671
    6A       N9  173   3.740   4.416   5.491
    6A       C8  174   3.746   4.547   5.438
    6A       H8  175   3.802   4.627   5.485
    6A       N7  176   3.679   4.561   5.328
    6A       C5  177   3.622   4.435   5.311
    6A       C6  178   3.543   4.372   5.213
    6A       N6  179   3.482   4.431   5.115
    6A      H61  180   3.433   4.371   5.051
    6A      H62  181   3.508   4.526   5.091
    6A       N1  182   3.510   4.243   5.220
    6A       C2  183   3.562   4.172   5.320
    6A       H2  184   3.539   4.066   5.313
    6A       N3  185   3.636   4.212   5.418
    6A       C4  186   3.659   4.345   5.404
    6A      C3'  187   4.023   4.370   5.584
    6A      H3'  188   4.007   4.429   5.494
    6A      C2'  189   3.917   4.271   5.570
    6A      H2'  190   3.915   4.224   5.471
    6A      O2'  191   3.921   4.177   5.679
    6A     HO2'  192   4.014   4.168   5.701
    6A      O3'  193   4.151   4.316   5.587
    7G        P  194   4.230   4.300   5.450
    7G      OP1  195   4.374   4.261   5.468
    7G      OP2  196   4.201   4.423   5.375
    7G      O5'  197   4.159   4.184   5.367
    7G      C5'  198   4.162   4.048   5.418
    7G      H5'  199   4.130   4.042   5.522
    7G     H5''  200   4.263   4.007   5.423
    7G      C4'  201   4.068   3.959   5.333
    7G      H4'  202   4.068   3.865   5.387
    7G      O4'  203   3.937   4.016   5.322
    7G      C1'  204   3.886   4.001   5.194
    7G      H1'  205   3.796   3.941   5.187
    7G       N9  206   3.867   4.126   5.115
    7G       C8  207   3.889   4.259   5.145
    7G       H8  208   3.945   4.283   5.234
    7G       N7  209   3.831   4.347   5.069
    7G       C5  210   3.760   4.272   4.973
    7G       C6  211   3.686   4.307   4.855
    7G       O6  212   3.667   4.419   4.805
    7G       N1  213   3.648   4.193   4.783
    7G       H1  214   3.583   4.208   4.708
    7G       C2  215   3.692   4.063   4.807
    7G       N2  216   3.664   3.972   4.720
    7G      H21  217   3.620   4.001   4.634
    7G      H22  218   3.708   3.882   4.736
    7G       N3  219   3.752   4.026   4.921
    7G       C4  220   3.792   4.136   4.996
    7G      C3'  221   4.115   3.940   5.191
    7G      H3'  222   4.160   4.032   5.153
    7G      C2'  223   3.983   3.907   5.122
    7G      H2'  224   3.992   3.923   5.015
    7G      O2'  225   3.935   3.780   5.155
    7G     HO2'  226   4.007   3.717   5.143
    7G      O3'  227   4.204   3.843   5.202
    8G        P  228   4.335   3.844   5.112
    8G      OP1  229   4.387   3.710   5.121
    8G      OP2  230   4.414   3.962   5.153
    8G      O5'  231   4.286   3.875   4.967
    8G      C5'  232   4.257   3.773   4.871
    8G      H5'  233   4.202   3.687   4.909
    8G     H5''  234   4.353   3.736   4.833
    8G      C4'  235   4.171   3.823   4.750
    8G      H4'  236   4.130   3.736   4.699
    8G      O4'  237   4.068   3.908   4.790
    8G      C1'  238   4.027   3.982   4.675
    8G      H1'  239   3.922   3.959   4.656
    8G       N9  240   4.026   4.120   4.712
    8G       C8  241   4.074   4.169   4.833
    8G       H8  242   4.122   4.108   4.908
    8G       N7  243   4.065   4.296   4.850
    8G       C5  244   4.003   4.334   4.732
    8G       C6  245   3.938   4.459   4.700
    8G       O6  246   3.942   4.569   4.754
    8G       N1  247   3.880   4.456   4.578
    8G       H1  248   3.815   4.531   4.562
    8G       C2  249   3.874   4.351   4.494
    8G       N2  250   3.830   4.375   4.374
    8G      H21  251   3.803   4.469   4.350
    8G      H22  252   3.796   4.292   4.327
    8G       N3  253   3.917   4.227   4.522
    8G       C4  254   3.980   4.226   4.644
    8G      C3'  255   4.257   3.906   4.652
    8G      H3'  256   4.296   3.987   4.714
    8G      C2'  257   4.135   3.952   4.571
    8G      H2'  258   4.161   4.038   4.509
    8G      O2'  259   4.079   3.846   4.491
    8G     HO2'  260   4.149   3.811   4.436
    8G      O3'  261   4.357   3.841   4.583
    9G        P  262   4.471   3.926   4.503
    9G      OP1  263   4.528   3.831   4.414
    9G      OP2  264   4.562   4.001   4.596
    9G      O5'  265   4.390   4.030   4.414
    9G      C5'  266   4.342   3.997   4.281
    9G      H5'  267   4.279   3.908   4.283
    9G     H5''  268   4.423   3.958   4.219
    9G      C4'  269   4.288   4.117   4.199
    9G      H4'  270   4.245   4.086   4.103
    9G      O4'  271   4.181   4.185   4.272
    9G      C1'  272   4.189   4.327   4.264
    9G      H1'  273   4.103   4.386   4.235
    9G       N9  274   4.225   4.377   4.398
    9G       C8  275   4.271   4.315   4.511
    9G       H8  276   4.276   4.207   4.517
    9G       N7  277   4.290   4.388   4.617
    9G       C5  278   4.269   4.509   4.570
    9G       C6  279   4.281   4.636   4.634
    9G       O6  280   4.320   4.656   4.749
    9G       N1  281   4.249   4.747   4.557
    9G       H1  282   4.241   4.844   4.585
    9G       C2  283   4.206   4.734   4.427
    9G       N2  284   4.167   4.845   4.371
    9G      H21  285   4.165   4.934   4.419
    9G      H22  286   4.159   4.843   4.271
    9G       N3  287   4.190   4.620   4.363
    9G       C4  288   4.222   4.509   4.437
    9G      C3'  289   4.395   4.227   4.177
    9G      H3'  290   4.452   4.242   4.269
    9G      C2'  291   4.300   4.345   4.157
    9G      H2'  292   4.351   4.440   4.172
    9G      O2'  293   4.244   4.349   4.026
    9G     HO2'  294   4.241   4.437   3.990
    9G      O3'  295   4.481   4.211   4.065
   10U        P  296   4.631   4.250   4.081
   10U      OP1  297   4.697   4.240   3.949
   10U      OP2  298   4.687   4.163   4.188
   10U      O5'  299   4.628   4.400   4.130
   10U      C5'  300   4.612   4.512   4.042
   10U      H5'  301   4.517   4.502   3.988
   10U     H5''  302   4.673   4.515   3.952
   10U      C4'  303   4.608   4.648   4.113
   10U      H4'  304   4.577   4.718   4.036
   10U      O4'  305   4.503   4.645   4.209
   10U      C1'  306   4.549   4.733   4.319
   10U      H1'  307   4.466   4.802   4.335
   10U       N1  308   4.583   4.663   4.452
   10U       C6  309   4.603   4.526   4.455
   10U       H6  310   4.604   4.474   4.360
   10U       C5  311   4.625   4.463   4.572
   10U       H5  312   4.635   4.357   4.588
   10U       C4  313   4.634   4.534   4.697
   10U       O4  314   4.683   4.494   4.804
   10U       N3  315   4.614   4.672   4.689
   10U       H3  316   4.606   4.727   4.774
   10U       C2  317   4.591   4.739   4.574
   10U       O2  318   4.566   4.856   4.566
   10U      C3'  319   4.739   4.691   4.178
   10U      H3'  320   4.780   4.614   4.243
   10U      C2'  321   4.669   4.808   4.262
   10U      H2'  322   4.731   4.844   4.344
   10U      O2'  323   4.627   4.921   4.180
   10U     HO2'  324   4.705   4.964   4.143
   10U      O3'  325   4.824   4.741   4.080
   11U        P  326   4.964   4.818   4.119
   11U      OP1  327   5.051   4.795   3.998
   11U      OP2  328   5.014   4.774   4.249
   11U      O5'  329   4.935   4.976   4.136
   11U      C5'  330   4.940   5.069   4.034
   11U      H5'  331   4.896   5.020   3.947
   11U     H5''  332   5.046   5.086   4.016
   11U      C4'  333   4.864   5.192   4.072
   11U      H4'  334   4.886   5.260   3.990
   11U      O4'  335   4.731   5.158   4.072
   11U      C1'  336   4.660   5.264   4.120
   11U      H1'  337   4.653   5.334   4.037
   11U       N1  338   4.527   5.217   4.168
   11U       C6  339   4.501   5.162   4.294
   11U       H6  340   4.585   5.145   4.359
   11U       C5  341   4.373   5.133   4.323
   11U       H5  342   4.353   5.085   4.417
   11U       C4  343   4.264   5.147   4.232
   11U       O4  344   4.156   5.116   4.258
   11U       N3  345   4.299   5.194   4.112
   11U       H3  346   4.226   5.232   4.053
   11U       C2  347   4.421   5.241   4.079
   11U       O2  348   4.430   5.292   3.971
   11U      C3'  349   4.896   5.247   4.214
   11U      H3'  350   4.902   5.159   4.278
   11U      C2'  351   4.761   5.324   4.226
   11U      H2'  352   4.732   5.309   4.330
   11U      O2'  353   4.768   5.465   4.197
   11U     HO2'  354   4.847   5.506   4.233
   11U      O3'  355   5.003   5.341   4.221
   12A        P  356   5.123   5.313   4.319
   12A      OP1  357   5.216   5.420   4.303
   12A      OP2  358   5.168   5.170   4.284
   12A      O5'  359   5.063   5.312   4.464
   12A      C5'  360   5.014   5.428   4.534
   12A      H5'  361   4.927   5.466   4.481
   12A     H5''  362   5.087   5.507   4.549
   12A      C4'  363   4.972   5.388   4.678
   12A      H4'  364   4.942   5.472   4.741
   12A      O4'  365   4.857   5.311   4.675
   12A      C1'  366   4.863   5.194   4.752
   12A      H1'  367   4.776   5.181   4.816
   12A       N9  368   4.878   5.077   4.659
   12A       C8  369   4.887   5.083   4.526
   12A       H8  370   4.891   5.178   4.474
   12A       N7  371   4.922   4.971   4.470
   12A       C5  372   4.919   4.878   4.577
   12A       C6  373   4.944   4.742   4.600
   12A       N6  374   4.986   4.662   4.498
   12A      H61  375   5.000   4.563   4.517
   12A      H62  376   4.992   4.697   4.404
   12A       N1  377   4.927   4.685   4.718
   12A       C2  378   4.898   4.760   4.820
   12A       H2  379   4.874   4.710   4.913
   12A       N3  380   4.876   4.887   4.822
   12A       C4  381   4.886   4.944   4.693
   12A      C3'  382   5.071   5.304   4.754
   12A      H3'  383   5.128   5.242   4.685
   12A      C2'  384   4.985   5.209   4.840
   12A      H2'  385   5.030   5.110   4.849
   12A      O2'  386   4.951   5.275   4.957
   12A     HO2'  387   5.004   5.355   4.949
   12A      O3'  388   5.162   5.386   4.820
   13G        P  389   5.311   5.340   4.853
   13G      OP1  390   5.373   5.443   4.938
   13G      OP2  391   5.376   5.307   4.722
   13G      O5'  392   5.299   5.195   4.925
   13G      C5'  393   5.282   5.181   5.063
   13G      H5'  394   5.189   5.223   5.102
   13G     H5''  395   5.364   5.232   5.114
   13G      C4'  396   5.297   5.038   5.110
   13G      H4'  397   5.290   5.044   5.219
   13G      O4'  398   5.195   4.956   5.058
   13G      C1'  399   5.245   4.828   5.029
   13G      H1'  400   5.188   4.751   5.081
   13G       N9  401   5.255   4.815   4.877
   13G       C8  402   5.238   4.913   4.777
   13G       H8  403   5.218   5.017   4.796
   13G       N7  404   5.238   4.869   4.653
   13G       C5  405   5.262   4.734   4.678
   13G       C6  406   5.288   4.637   4.579
   13G       O6  407   5.295   4.651   4.455
   13G       N1  408   5.296   4.515   4.616
   13G       H1  409   5.289   4.436   4.554
   13G       C2  410   5.287   4.481   4.747
   13G       N2  411   5.292   4.355   4.784
   13G      H21  412   5.297   4.284   4.712
   13G      H22  413   5.277   4.321   4.878
   13G       N3  414   5.277   4.568   4.850
   13G       C4  415   5.265   4.698   4.806
   13G      C3'  416   5.430   4.973   5.074
   13G      H3'  417   5.466   5.002   4.976
   13G      C2'  418   5.391   4.825   5.085
   13G      H2'  419   5.459   4.759   5.031
   13G      O2'  420   5.397   4.789   5.224
   13G     HO2'  421   5.476   4.831   5.258
   13G      O3'  422   5.531   5.020   5.162
   14G        P  423   5.681   5.048   5.107
   14G      OP1  424   5.765   5.090   5.218
   14G      OP2  425   5.670   5.132   4.989
   14G      O5'  426   5.720   4.905   5.060
   14G      C5'  427   5.747   4.795   5.147
   14G      H5'  428   5.659   4.787   5.210
   14G     H5''  429   5.821   4.826   5.220
   14G      C4'  430   5.780   4.665   5.068
   14G      H4'  431   5.817   4.591   5.138
   14G      O4'  432   5.665   4.614   4.998
   14G      C1'  433   5.699   4.566   4.870
   14G      H1'  434   5.657   4.468   4.850
   14G       N9  435   5.661   4.665   4.768
   14G       C8  436   5.618   4.795   4.775
   14G       H8  437   5.622   4.852   4.866
   14G       N7  438   5.580   4.845   4.659
   14G       C5  439   5.607   4.734   4.568
   14G       C6  440   5.588   4.726   4.430
   14G       O6  441   5.538   4.807   4.355
   14G       N1  442   5.624   4.604   4.374
   14G       H1  443   5.631   4.581   4.276
   14G       C2  444   5.688   4.510   4.452
   14G       N2  445   5.725   4.401   4.395
   14G      H21  446   5.709   4.386   4.296
   14G      H22  447   5.754   4.318   4.445
   14G       N3  448   5.701   4.509   4.582
   14G       C4  449   5.667   4.632   4.631
   14G      C3'  450   5.890   4.674   4.962
   14G      H3'  451   5.880   4.769   4.909
   14G      C2'  452   5.858   4.556   4.869
   14G      H2'  453   5.888   4.580   4.767
   14G      O2'  454   5.903   4.434   4.923
   14G     HO2'  455   5.853   4.417   5.003
   14G      O3'  456   6.008   4.667   5.031
   15G        P  457   6.141   4.743   4.976
   15G      OP1  458   6.254   4.712   5.062
   15G      OP2  459   6.105   4.884   4.950
   15G      O5'  460   6.160   4.673   4.839
   15G      C5'  461   6.220   4.540   4.825
   15G      H5'  462   6.156   4.458   4.857
   15G     H5''  463   6.308   4.552   4.888
   15G      C4'  464   6.257   4.513   4.681
   15G      H4'  465   6.303   4.415   4.668
   15G      O4'  466   6.131   4.502   4.609
   15G      C1'  467   6.147   4.551   4.479
   15G      H1'  468   6.123   4.470   4.410
   15G       N9  469   6.058   4.673   4.460
   15G       C8  470   5.995   4.757   4.545
   15G       H8  471   6.008   4.749   4.652
   15G       N7  472   5.909   4.842   4.486
   15G       C5  473   5.931   4.819   4.348
   15G       C6  474   5.873   4.888   4.241
   15G       O6  475   5.791   4.978   4.243
   15G       N1  476   5.895   4.831   4.120
   15G       H1  477   5.862   4.886   4.042
   15G       C2  478   5.988   4.727   4.102
   15G       N2  479   6.003   4.682   3.976
   15G      H21  480   5.969   4.752   3.912
   15G      H22  481   6.086   4.625   3.965
   15G       N3  482   6.055   4.671   4.206
   15G       C4  483   6.019   4.717   4.332
   15G      C3'  484   6.333   4.628   4.606
   15G      H3'  485   6.278   4.716   4.639
   15G      C2'  486   6.295   4.591   4.460
   15G      H2'  487   6.314   4.675   4.394
   15G      O2'  488   6.356   4.472   4.424
   15G     HO2'  489   6.305   4.394   4.448
   15G      O3'  490   6.471   4.626   4.634
   16U        P  491   6.569   4.747   4.628
   16U      OP1  492   6.712   4.699   4.623
   16U      OP2  493   6.536   4.838   4.739
   16U      O5'  494   6.551   4.824   4.487
   16U      C5'  495   6.592   4.771   4.368
   16U      H5'  496   6.548   4.673   4.348
   16U     H5''  497   6.699   4.751   4.369
   16U      C4'  498   6.543   4.861   4.255
   16U      H4'  499   6.608   4.834   4.172
   16U      O4'  500   6.405   4.856   4.231
   16U      C1'  501   6.359   4.984   4.176
   16U      H1'  502   6.322   4.982   4.073
   16U       N1  503   6.252   5.048   4.267
   16U       C6  504   6.247   5.017   4.401
   16U       H6  505   6.326   4.957   4.442
   16U       C5  506   6.139   5.066   4.475
   16U       H5  507   6.142   5.049   4.582
   16U       C4  508   6.035   5.155   4.417
   16U       O4  509   5.931   5.194   4.474
   16U       N3  510   6.062   5.192   4.292
   16U       H3  511   5.997   5.254   4.248
   16U       C2  512   6.166   5.143   4.208
   16U       O2  513   6.182   5.183   4.091
   16U      C3'  514   6.574   5.006   4.282
   16U      H3'  515   6.539   5.030   4.382
   16U      C2'  516   6.484   5.071   4.175
   16U      H2'  517   6.456   5.174   4.198
   16U      O2'  518   6.543   5.058   4.051
   16U     HO2'  519   6.617   5.117   4.034
   16U      O3'  520   6.710   5.021   4.266
   17U        P  521   6.787   5.147   4.333
   17U      OP1  522   6.915   5.170   4.265
   17U      OP2  523   6.794   5.117   4.481
   17U      O5'  524   6.699   5.271   4.316
   17U      C5'  525   6.713   5.355   4.198
   17U      H5'  526   6.682   5.306   4.105
   17U     H5''  527   6.814   5.396   4.195
   17U      C4'  528   6.618   5.474   4.206
   17U      H4'  529   6.614   5.534   4.116
   17U      O4'  530   6.480   5.434   4.230
   17U      C1'  531   6.418   5.537   4.306
   17U      H1'  532   6.336   5.575   4.246
   17U       N1  533   6.364   5.484   4.437
   17U       C6  534   6.397   5.360   4.483
   17U       H6  535   6.487   5.316   4.442
   17U       C5  536   6.327   5.300   4.585
   17U       H5  537   6.352   5.201   4.622
   17U       C4  538   6.203   5.362   4.636
   17U       O4  539   6.127   5.301   4.714
   17U       N3  540   6.177   5.491   4.589
   17U       H3  541   6.092   5.533   4.624
   17U       C2  542   6.245   5.548   4.488
   17U       O2  543   6.201   5.659   4.447
   17U      C3'  544   6.659   5.572   4.316
   17U      H3'  545   6.684   5.511   4.404
   17U      C2'  546   6.527   5.643   4.334
   17U      H2'  547   6.526   5.681   4.436
   17U      O2'  548   6.511   5.744   4.240
   17U     HO2'  549   6.598   5.784   4.226
   17U      O3'  550   6.766   5.656   4.275
   18A        P  551   6.889   5.686   4.371
   18A      OP1  552   6.961   5.800   4.306
   18A      OP2  553   6.952   5.558   4.412
   18A      O5'  554   6.820   5.743   4.503
   18A      C5'  555   6.751   5.871   4.498
   18A      H5'  556   6.683   5.880   4.413
   18A     H5''  557   6.820   5.954   4.482
   18A      C4'  558   6.691   5.874   4.635
   18A      H4'  559   6.657   5.976   4.654
   18A      O4'  560   6.580   5.782   4.645
   18A      C1'  561   6.567   5.746   4.779
   18A      H1'  562   6.478   5.787   4.826
   18A       N9  563   6.570   5.599   4.786
   18A       C8  564   6.651   5.515   4.715
   18A       H8  565   6.740   5.543   4.661
   18A       N7  566   6.640   5.387   4.750
   18A       C5  567   6.543   5.393   4.849
   18A       C6  568   6.476   5.300   4.931
   18A       N6  569   6.506   5.173   4.933
   18A      H61  570   6.454   5.112   4.994
   18A      H62  571   6.566   5.136   4.860
   18A       N1  572   6.374   5.334   5.009
   18A       C2  573   6.334   5.464   5.003
   18A       H2  574   6.246   5.484   5.061
   18A       N3  575   6.388   5.563   4.939
   18A       C4  576   6.496   5.520   4.867
   18A      C3'  577   6.786   5.841   4.751
   18A      H3'  578   6.838   5.749   4.728
   18A      C2'  579   6.681   5.801   4.853
   18A      H2'  580   6.719   5.725   4.921
   18A      O2'  581   6.636   5.914   4.922
   18A     HO2'  582   6.708   5.967   4.955
   18A      O3'  583   6.873   5.936   4.806
   19G        P  584   7.013   5.880   4.855
   19G      OP1  585   7.100   5.996   4.889
   19G      OP2  586   7.062   5.798   4.741
   19G      O5'  587   6.981   5.787   4.975
   19G      C5'  588   6.948   5.846   5.096
   19G      H5'  589   6.865   5.914   5.073
   19G     H5''  590   7.025   5.913   5.135
   19G      C4'  591   6.893   5.761   5.208
   19G      H4'  592   6.858   5.834   5.281
   19G      O4'  593   6.795   5.681   5.157
   19G      C1'  594   6.808   5.549   5.211
   19G      H1'  595   6.718   5.517   5.264
   19G       N9  596   6.838   5.449   5.109
   19G       C8  597   6.929   5.456   5.009
   19G       H8  598   6.985   5.545   4.984
   19G       N7  599   6.944   5.345   4.940
   19G       C5  600   6.864   5.254   5.010
   19G       C6  601   6.852   5.115   4.986
   19G       O6  602   6.890   5.058   4.883
   19G       N1  603   6.799   5.046   5.096
   19G       H1  604   6.803   4.945   5.094
   19G       C2  605   6.732   5.105   5.194
   19G       N2  606   6.687   5.032   5.293
   19G      H21  607   6.684   4.931   5.290
   19G      H22  608   6.619   5.076   5.354
   19G       N3  609   6.730   5.243   5.203
   19G       C4  610   6.801   5.314   5.112
   19G      C3'  611   7.007   5.681   5.275
   19G      H3'  612   7.088   5.663   5.205
   19G      C2'  613   6.926   5.558   5.314
   19G      H2'  614   6.990   5.470   5.305
   19G      O2'  615   6.876   5.574   5.440
   19G     HO2'  616   6.939   5.636   5.476
   19G      O3'  617   7.048   5.741   5.396
   20G        P  618   7.197   5.757   5.448
   20G      OP1  619   7.189   5.876   5.540
   20G      OP2  620   7.287   5.763   5.330
   20G      O5'  621   7.227   5.623   5.523
   20G      C5'  622   7.162   5.600   5.648
   20G      H5'  623   7.057   5.630   5.648
   20G     H5''  624   7.197   5.656   5.735
   20G      C4'  625   7.166   5.454   5.690
   20G      H4'  626   7.117   5.448   5.786
   20G      O4'  627   7.097   5.377   5.596
   20G      C1'  628   7.179   5.265   5.563
   20G      H1'  629   7.128   5.170   5.577
   20G       N9  630   7.207   5.273   5.421
   20G       C8  631   7.273   5.373   5.350
   20G       H8  632   7.337   5.450   5.389
   20G       N7  633   7.294   5.333   5.230
   20G       C5  634   7.236   5.211   5.215
   20G       C6  635   7.223   5.123   5.104
   20G       O6  636   7.277   5.122   4.990
   20G       N1  637   7.146   5.011   5.136
   20G       H1  638   7.125   4.941   5.066
   20G       C2  639   7.087   4.990   5.260
   20G       N2  640   7.020   4.877   5.271
   20G      H21  641   7.026   4.808   5.198
   20G      H22  642   6.971   4.858   5.357
   20G       N3  643   7.090   5.068   5.362
   20G       C4  644   7.171   5.177   5.332
   20G      C3'  645   7.311   5.405   5.696
   20G      H3'  646   7.369   5.460   5.622
   20G      C2'  647   7.305   5.260   5.650
   20G      H2'  648   7.395   5.231   5.597
   20G      O2'  649   7.263   5.173   5.750
   20G     HO2'  650   7.343   5.158   5.801
   20G      O3'  651   7.377   5.427   5.823
   21G3       P  652   7.532   5.397   5.834
   21G3     OP1  653   7.563   5.449   5.963
   21G3     OP2  654   7.606   5.443   5.711
   21G3     O5'  655   7.549   5.243   5.851
   21G3     C5'  656   7.530   5.183   5.974
   21G3     H5'  657   7.438   5.216   6.023
   21G3    H5''  658   7.615   5.204   6.040
   21G3     C4'  659   7.530   5.035   5.958
   21G3     H4'  660   7.520   4.982   6.053
   21G3     O4'  661   7.443   4.987   5.857
   21G3     C1'  662   7.494   4.879   5.778
   21G3     H1'  663   7.439   4.785   5.785
   21G3      N9  664   7.500   4.928   5.640
   21G3      C8  665   7.571   5.040   5.592
   21G3      H8  666   7.611   5.106   5.667
   21G3      N7  667   7.568   5.051   5.463
   21G3      C5  668   7.487   4.944   5.415
   21G3      C6  669   7.447   4.905   5.283
   21G3      O6  670   7.467   4.954   5.171
   21G3      N1  671   7.374   4.787   5.283
   21G3      H1  672   7.373   4.737   5.196
   21G3      C2  673   7.345   4.718   5.396
   21G3      N2  674   7.287   4.605   5.385
   21G3     H21  675   7.273   4.561   5.295
   21G3     H22  676   7.281   4.550   5.469
   21G3      N3  677   7.380   4.747   5.518
   21G3      C4  678   7.457   4.859   5.526
   21G3     C3'  679   7.668   4.995   5.898
   21G3     H3'  680   7.700   5.066   5.822
   21G3     C2'  681   7.633   4.859   5.846
   21G3     H2'  682   7.711   4.822   5.779
   21G3     O2'  683   7.595   4.770   5.948
   21G3    HO2'  684   7.657   4.697   5.952
   21G3     O3'  685   7.767   4.994   6.000
   21G3    HO3'  686   7.854   4.980   5.962
   22Cl-    Cl-  687   1.389   5.012   5.385
   23Cl-    Cl-  688   8.316   2.906   6.527
   24Cl-    Cl-  689   1.071   8.094   3.631
   25Cl-    Cl-  690   8.921   9.228   4.759
   26Cl-    Cl-  691   2.587   8.424   8.379
   27Cl-    Cl-  692   9.182   1.514   9.625
   28Cl-    Cl-  693   7.066   2.527   2.775
   29Cl-    Cl-  694   2.712   9.081   8.866
   30Cl-    Cl-  695   5.693   3.937   5.586
   31Cl-    Cl-  696   8.242   4.123   2.679
   32Cl-    Cl-  697   7.575   4.505   0.425
   33Cl-    Cl-  698   6.841   1.212   3.210
   34Cl-    Cl-  699   2.500   3.981   6.136
   35Cl-    Cl-  700   8.015   5.189   8.279
   36Cl-    Cl-  701   1.319   0.674   6.991
   37Cl-    Cl-  702   3.895   8.544   3.332
   38Cl-    Cl-  703   1.521   5.220   7.345
   39Cl-    Cl-  704   7.758   3.204   5.264
   40Cl-    Cl-  705   9.474   3.150   4.042
   41Cl-    Cl-  706   0.602   8.538   4.471
   42Cl-    Cl-  707   2.209   7.244   1.446
   43Cl-    Cl-  708   0.247   9.697   5.823
   44Cl-    Cl-  709   5.490   0.014   3.965
   45Cl-    Cl-  710   6.656   9.592   6.939
   46Cl-    Cl-  711   9.713   9.560   3.391
   47Cl-    Cl-  712   8.011   6.508   1.162
   48Cl-    Cl-  713   7.619   2.769   8.098
   49Cl-    Cl-  714   6.303   6.862   3.941
   50Cl-    Cl-  715   7.886   7.343   2.799
   51Cl-    Cl-  716   5.694   2.058   4.705
   52Cl-    Cl-  717   1.779   4.658   1.988
   53Cl-    Cl-  718   7.019   3.430   4.961
   54Cl-    Cl-  719   7.165   9.494   9.859
   55Cl-    Cl-  720   5.472   7.028   6.814
   56Cl-    Cl-  721   3.370   4.117   0.429
   57Cl-    Cl-  722   4.328   0.055   3.676
   58Cl-    Cl-  723   1.036   5.961   7.721
   59Cl-    Cl-  724   1.743   7.555   3.949
   60Cl-    Cl-  725   6.297   9.302   1.985
   61Cl-    Cl-  726   2.768   1.395   1.697
   62Cl-    Cl-  727   3.800   6.771   9.775
   63Cl-    Cl-  728   0.539   3.814   6.347
   64Cl-    Cl-  729   1.371   9.596   4.687
   65Cl-    Cl-  730   5.322   3.052   2.960
   66Cl-    Cl-  731   4.247   8.482   7.113
   67Cl-    Cl-  732   5.714   0.448   6.425
   68Cl-    Cl-  733   6.455   0.265   2.201
   69Cl-    Cl-  734   9.852   6.363   1.230
   70Cl-    Cl-  735   5.399   8.993   9.839
   71Cl-    Cl-  736   8.271   8.611   8.593
   72Cl-    Cl-  737   8.255   0.543   4.893
   73Cl-    Cl-  738   2.014   7.201   8.556
   74Cl-    Cl-  739   9.540   9.196   1.946
   75Cl-    Cl-  740   0.882   5.500   3.601
   76Cl-    Cl-  741   1.436   0.697   2.106
   77Cl-    Cl-  742   9.165   4.645   7.697
   78Cl-    Cl-  743   9.011   6.867   9.747
   79Cl-    Cl-  744   6.837   3.690   1.098
   80Cl-    Cl-  745   0.429   1.939   7.333
   81Cl-    Cl-  746   3.443   7.062   0.153
   82Cl-    Cl-  747   3.685   5.448   9.569
   83Cl-    Cl-  748   5.015   2.448   7.707
   84Cl-    Cl-  749   8.139   1.623   8.400
   85Cl-    Cl-  750   1.230   3.624   4.958
   86Cl-    Cl-  751   4.918   2.862   1.690
   87Cl-    Cl-  752   2.732   6.809   3.191
   88Cl-    Cl-  753   2.498   2.931   1.255
   89Cl-    Cl-  754   4.416   0.574   9.296
   90Cl-    Cl-  755   2.319   5.852   3.798
   91Cl-    Cl-  756   1.299   2.987   6.511
   92Cl-    Cl-  757   5.349   6.142   1.227
   93Cl-    Cl-  758   1.846   7.724   7.398
   94Cl-    Cl-  759   7.665   6.653   4.595
   95Cl-    Cl-  760   9.374   3.588   3.579
   96Cl-    Cl-  761   2.775   8.994   6.481
   97Cl-    Cl-  762   7.038   1.786   5.280
   98Cl-    Cl-  763   9.445   2.736   8.785
   99Cl-    Cl-  764   9.174   8.411   6.152
  100Cl-    Cl-  765   8.586   3.965   5.514
  101Cl-    Cl-  766   3.231   2.611   0.899
  102Cl-    Cl-  767   0.730   6.637   4.005
  103Cl-    Cl-  768   1.522   9.273   0.346
  104Cl-    Cl-  769   0.159   6.598   5.472
  105Cl-    Cl-  770   0.253   9.680   5.040
  106Cl-    Cl-  771   2.320   4.685   8.810
  107K+      K+  772   5.204   4.929   4.386
  108K+      K+  773   8.332   8.745   2.691
  109K+      K+  774   2.635   4.464   5.454
  110K+      K+  775   8.819   0.008   4.268
  111K+      K+  776   3.591   0.257   8.523
  112K+      K+  777   2.031   9.262   5.623
  113K+      K+  778   5.864   5.281   4.723
  114K+      K+  779   9.769   2.770   4.230
  115K+      K+  780   2.520   1.185   2.772
  116K+      K+  781   2.325   8.988   0.333
  117K+      K+  782   1.502   0.761   4.055
  118K+      K+  783   8.975   2.527   7.755
  119K+      K+  784   7.926   1.995   5.700
  120K+      K+  785   3.194   8.932   7.499
  121K+      K+  786   7.723   6.281   8.758
  122K+      K+  787   2.303   9.247   0.674
  123K+      K+  788   6.111   1.206   7.310
  124K+      K+  789   2.167   3.785   0.188
  125K+      K+  790   2.936   1.706   5.730
  126K+      K+  791   1.949   4.363   7.772
  127K+      K+  792   0.919   2.888   1.143
  128K+      K+  793   2.343   3.870   4.828
  129K+      K+  794   0.766   8.824   4.895
  130K+      K+  795   4.831   3.850   9.099
  131K+      K+  796   9.515   0.819   2.464
  132K+      K+  797   6.395   7.264   2.995
  133K+      K+  798   9.804   0.949   0.367
  134K+      K+  799   8.367   3.820   8.009
  135K+      K+  800   4.364   4.394   4.896
  136K+      K+  801   0.903   9.012   6.031
  137K+      K+  802   9.363   9.747   9.633
  138K+      K+  803   7.487   3.268   3.666
  139K+      K+  804   6.170   5.131   4.941
  140K+      K+  805   5.676   1.372   5.827
  141K+      K+  806   7.634   6.808   9.821
  142K+      K+  807   0.903   0.458   6.960
  143K+      K+  808   1.908   7.372   2.714
  144K+      K+  809   2.487   2.409   1.513
  145K+      K+  810   1.236   3.075   6.247
  146K+      K+  811   8.217   5.017   5.118
  147K+      K+  812   1.656   6.277   2.408
  148K+      K+  813   7.863   2.233   9.250
  149K+      K+  814   5.876   1.896   7.499
  150K+      K+  815   5.943   4.223   0.610
  151K+      K+  816   2.699   3.075   6.511
  152K+      K+  817   6.631   2.805   4.943
  153K+      K+  818   7.435   5.061   4.186
  154K+      K+  819   0.605   8.161   4.894
  155K+      K+  820   6.376   5.579   5.819
  156K+      K+  821   3.815   4.629   5.093
  157K+      K+  822   2.944   2.628   1.143
  158K+      K+  823   2.024   2.487   9.488
  159K+      K+  824   2.930   4.891   5.687
  160K+      K+  825   3.150   8.549   1.554
  161K+      K+  826   4.377   6.471   5.777
  162K+      K+  827   0.821   4.516   1.842
  163K+      K+  828   7.325   4.329   2.533
  164K+      K+  829   1.817   8.676   8.749
  165K+      K+  830   2.907   3.509   3.743
  166K+      K+  831   9.320   7.295   4.393
  167K+      K+  832   5.433   5.841   4.245
  168K+      K+  833   8.752   6.935   2.906
  169K+      K+  834   3.070   4.965   7.717
  170K+      K+  835   4.326   4.869   4.911
  171K+      K+  836   5.230   0.548   3.656
  172K+      K+  837   7.146   0.058   3.814
  173K+      K+  838   3.007   2.148   4.593
  174K+      K+  839   5.724   0.768   5.776
  175K+      K+  840   9.234   1.615   6.092
  176K+      K+  841   4.491   0.747   2.926
  177K+      K+  842   5.532   4.973   4.126
  178K+      K+  843   9.041   7.814   5.097
  179K+      K+  844   7.717   6.919   6.577
  180K+      K+  845   4.151   7.806   3.227
  181K+      K+  846   7.822   6.001   4.812
  182K+      K+  847   5.728   9.007   7.432
  183K+      K+  848   7.315   3.054   5.485
  184K+      K+  849   6.869   5.249   4.680
  185K+      K+  850   8.418   0.313   5.673
  186K+      K+  851   1.842   8.741   6.925
  187K+      K+  852   7.113   3.822   8.532
  188K+      K+  853   5.673   7.737   1.646
  189K+      K+  854   0.010   0.702   3.955
  190K+      K+  855   0.465   6.936   1.977
  191K+      K+  856   0.169   7.773   4.145
  192K+      K+  857   4.078   8.576   0.238
  193K+      K+  858   0.047   7.095   8.237
  194K+      K+  859   5.379   7.431   9.431
  195K+      K+  860   6.616   3.645   4.603
  196K+      K+  861   7.117   5.946   0.333
  197K+      K+  862   4.193   0.767   9.346
  198K+      K+  863   6.616   2.481   0.995
  199K+      K+  864   5.161   1.914   6.706
  200K+      K+  865   9.415   8.784   9.473
  201K+      K+  866   2.743   0.057   3.769
  202K+      K+  867   0.901   6.345   6.330
  203K+      K+  868   4.114   6.892   8.335
  204K+      K+  869   4.079   4.991   5.186
  205K+      K+  870   5.276   8.797   4.837
  206K+      K+  871   1.144   4.645   3.380
  207K+      K+  872   6.351   0.513   3.488
  208K+      K+  873   5.694   5.051   4.474
  209K+      K+  874   5.832   5.117   5.676
  210K+      K+  875   9.656   9.827   8.046
  211K+      K+  876   1.136   6.928   1.603
  212WAT      O  877   0.973   4.066   3.584
  212WAT     H1  878   0.893   4.033   3.535
  212WAT     H2  879   0.988   4.010   3.666
  213WAT      O  880   3.444   5.060   9.789
  213WAT     H1  881   3.536   5.049   9.751
  213WAT     H2  882   3.450   5.089   9.884
  214WAT      O  883   5.848   0.870   0.651
  214WAT     H1  884   5.799   0.926   0.584
  214WAT     H2  885   5.921   0.924   0.693
  215WAT      O  886   7.459   9.035   9.535
  215WAT     H1  887   7.446   9.094   9.614
  215WAT     H2  888   7.553   9.046   9.501
  216WAT      O  889   2.598   2.916   7.049
  216WAT     H1  890   2.597   2.846   7.121
  216WAT     H2  891   2.506   2.925   7.011
  217WAT      O  892   3.606   5.597   9.829
  217WAT     H1  893   3.550   5.678   9.813
  217WAT     H2  894   3.631   5.555   9.742
  218WAT      O  895   8.724   0.723   0.116
  218WAT     H1  896   8.725   0.630   0.077
  218WAT     H2  897   8.809   0.769   0.092
  219WAT      O  898   9.857   7.764   6.353
  219WAT     H1  899   9.948   7.771   6.393
  219WAT     H2  900   9.841   7.842   6.293
  220WAT      O  901   6.986   3.243   0.565
  220WAT     H1  902   6.946   3.317   0.512
  220WAT     H2  903   7.085   3.239   0.547
  221WAT      O  904   1.184   4.960   9.319
  221WAT     H1  905   1.219   5.053   9.305
  221WAT     H2  906   1.111   4.941   9.254
  222WAT      O  907   9.814   4.971   1.257
  222WAT     H1  908   9.913   4.966   1.249
  222WAT     H2  909   9.774   4.993   1.168
  223WAT      O  910   8.114   2.233   3.771
  223WAT     H1  911   8.085   2.311   3.715
  223WAT     H2  912   8.198   2.194   3.733
  224WAT      O  913   4.115   2.203   0.964
  224WAT     H1  914   4.116   2.253   1.051
  224WAT     H2  915   4.132   2.266   0.889
  225WAT      O  916   7.206   0.977   6.862
  225WAT     H1  917   7.278   1.030   6.819
  225WAT     H2  918   7.166   0.913   6.796
  226WAT      O  919   4.781   7.779   2.936
  226WAT     H1  920   4.731   7.737   2.860
  226WAT     H2  921   4.784   7.878   2.924
  227WAT      O  922   4.710   1.966   7.313
  227WAT     H1  923   4.788   1.941   7.256
  227WAT     H2  924   4.741   2.015   7.395
  228WAT      O  925   1.775   3.626   4.228
  228WAT     H1  926   1.815   3.707   4.185
  228WAT     H2  927   1.781   3.634   4.328
  229WAT      O  928   4.308   4.719   7.128
  229WAT     H1  929   4.232   4.739   7.191
  229WAT     H2  930   4.364   4.801   7.119
  230WAT      O  931   0.490   2.340   6.207
  230WAT     H1  932   0.579   2.362   6.168
  230WAT     H2  933   0.427   2.312   6.133
  231WAT      O  934   1.071   3.905   8.288
  231WAT     H1  935   0.997   3.971   8.276
  231WAT     H2  936   1.151   3.935   8.236
  232WAT      O  937   6.360   4.061   8.547
  232WAT     H1  938   6.290   4.113   8.596
  232WAT     H2  939   6.450   4.093   8.575
  233WAT      O  940   3.681   0.818   0.520
  233WAT     H1  941   3.711   0.754   0.449
  233WAT     H2  942   3.641   0.767   0.596
  234WAT      O  943   8.944   8.223   5.999
  234WAT     H1  944   9.025   8.280   5.987
  234WAT     H2  945   8.927   8.209   6.097
  235WAT      O  946   7.156   1.670   5.892
  235WAT     H1  947   7.179   1.637   5.801
  235WAT     H2  948   7.179   1.768   5.899
  236WAT      O  949   2.492   1.603   2.820
  236WAT     H1  950   2.467   1.628   2.727
  236WAT     H2  951   2.581   1.557   2.819
  237WAT      O  952   5.300   3.515   3.555
  237WAT     H1  953   5.203   3.527   3.577
  237WAT     H2  954   5.348   3.602   3.565
  238WAT      O  955   3.871   4.154   5.977
  238WAT     H1  956   3.885   4.203   6.063
  238WAT     H2  957   3.956   4.154   5.924
  239WAT      O  958   6.854   9.113   2.276
  239WAT     H1  959   6.755   9.100   2.269
  239WAT     H2  960   6.884   9.179   2.208
  240WAT      O  961   0.582   2.109   8.728
  240WAT     H1  962   0.536   2.170   8.792
  240WAT     H2  963   0.527   2.026   8.715
  241WAT      O  964   5.315   3.272   8.668
  241WAT     H1  965   5.375   3.292   8.591
  241WAT     H2  966   5.369   3.257   8.751
  242WAT      O  967   8.538   2.743   1.465
  242WAT     H1  968   8.593   2.765   1.546
  242WAT     H2  969   8.563   2.804   1.390
  243WAT      O  970   3.885   9.590   6.164
  243WAT     H1  971   3.962   9.602   6.227
  243WAT     H2  972   3.850   9.680   6.137
  244WAT      O  973   9.464   3.839   8.842
  244WAT     H1  974   9.409   3.921   8.860
  244WAT     H2  975   9.554   3.866   8.807
  245WAT      O  976   2.082   6.995   0.527
  245WAT     H1  977   2.178   7.012   0.504
  245WAT     H2  978   2.077   6.947   0.614
  246WAT      O  979   7.288   0.917   8.294
  246WAT     H1  980   7.339   0.832   8.289
  246WAT     H2  981   7.258   0.945   8.203
  247WAT      O  982   7.711   3.976   4.347
  247WAT     H1  983   7.724   4.069   4.383
  247WAT     H2  984   7.614   3.958   4.336
  248WAT      O  985   0.590   2.319   8.541
  248WAT     H1  986   0.517   2.371   8.584
  248WAT     H2  987   0.621   2.247   8.603
  249WAT      O  988   0.690   1.774   7.003
  249WAT     H1  989   0.754   1.846   6.975
  249WAT     H2  990   0.609   1.815   7.044
  250WAT      O  991   8.963   0.957   4.159
  250WAT     H1  992   9.019   0.897   4.103
  250WAT     H2  993   8.873   0.915   4.175
  251WAT      O  994   8.558   1.664   3.140
  251WAT     H1  995   8.591   1.679   3.047
  251WAT     H2  996   8.460   1.681   3.144
  252WAT      O  997   4.613   2.813   1.760
  252WAT     H1  998   4.563   2.887   1.804
  252WAT     H2  999   4.700   2.847   1.724
  253WAT      O 1000   8.985   9.353   8.387
  253WAT     H1 1001   8.914   9.355   8.457
  253WAT     H2 1002   9.053   9.283   8.410
  254WAT      O 1003   3.738   3.575   1.603
  254WAT     H1 1004   3.669   3.534   1.663
  254WAT     H2 1005   3.829   3.546   1.633
  255WAT      O 1006   5.144   8.616   8.048
  255WAT     H1 1007   5.047   8.637   8.047
  255WAT     H2 1008   5.196   8.702   8.056
  256WAT      O 1009   0.035   0.868   1.116
  256WAT     H1 1010   0.073   0.796   1.059
  256WAT     H2 1011   0.108   0.931   1.142
  257WAT      O 1012   0.366   3.163   9.420
  257WAT     H1 1013   0.450   3.176   9.368
  257WAT     H2 1014   0.387   3.166   9.518
  258WAT      O 1015   2.892   1.011   7.692
  258WAT     H1 1016   2.863   1.103   7.716
  258WAT     H2 1017   2.924   0.963   7.774
  259WAT      O 1018   5.683   4.106   4.148
  259WAT     H1 1019   5.635   4.190   4.173
  259WAT     H2 1020   5.630   4.027   4.178
  260WAT      O 1021   0.422   3.535   7.925
  260WAT     H1 1022   0.491   3.510   7.856
  260WAT     H2 1023   0.335   3.492   7.902
  261WAT      O 1024   2.137   0.098   1.448
  261WAT     H1 1025   2.128   0.171   1.380
  261WAT     H2 1026   2.152   0.011   1.402
  262WAT      O 1027   7.894   1.500   0.357
  262WAT     H1 1028   7.946   1.427   0.313
  262WAT     H2 1029   7.862   1.469   0.447
  263WAT      O 1030   1.778   4.830   0.248
  263WAT     H1 1031   1.707   4.815   0.317
  263WAT     H2 1032   1.769   4.761   0.175
  264WAT      O 1033   0.808   1.987   2.116
  264WAT     H1 1034   0.764   2.040   2.189
  264WAT     H2 1035   0.906   1.985   2.132
  265WAT      O 1036   5.349   3.635   2.048
  265WAT     H1 1037   5.408   3.556   2.066
  265WAT     H2 1038   5.260   3.603   2.017
  266WAT      O 1039   9.083   5.911   8.822
  266WAT     H1 1040   9.104   5.867   8.735
  266WAT     H2 1041   8.998   5.873   8.859
  267WAT      O 1042   4.850   3.650   8.265
  267WAT     H1 1043   4.876   3.571   8.322
  267WAT     H2 1044   4.779   3.702   8.312
  268WAT      O 1045   7.956   5.005   8.956
  268WAT     H1 1046   8.052   4.982   8.972
  268WAT     H2 1047   7.938   5.005   8.857
  269WAT      O 1048   7.489   1.770   1.026
  269WAT     H1 1049   7.458   1.772   1.122
  269WAT     H2 1050   7.588   1.758   1.024
  270WAT      O 1051   2.005   8.892   0.909
  270WAT     H1 1052   1.972   8.813   0.960
  270WAT     H2 1053   2.104   8.884   0.898
  271WAT      O 1054   4.670   4.986   2.346
  271WAT     H1 1055   4.722   5.025   2.422
  271WAT     H2 1056   4.585   5.038   2.333
  272WAT      O 1057   2.502   1.993   0.602
  272WAT     H1 1058   2.452   1.997   0.515
  272WAT     H2 1059   2.442   1.958   0.673
  273WAT      O 1060   7.445   4.215   6.990
  273WAT     H1 1061   7.426   4.118   7.007
  273WAT     H2 1062   7.428   4.267   7.073
  274WAT      O 1063   7.763   1.859   0.761
  274WAT     H1 1064   7.701   1.933   0.785
  274WAT     H2 1065   7.847   1.897   0.722
  275WAT      O 1066   6.330   1.531   0.359
  275WAT     H1 1067   6.305   1.478   0.278
  275WAT     H2 1068   6.247   1.550   0.412
  276WAT      O 1069   1.380   5.350   9.559
  276WAT     H1 1070   1.386   5.330   9.657
  276WAT     H2 1071   1.388   5.265   9.507
  277WAT      O 1072   1.617   8.922   7.324
  277WAT     H1 1073   1.570   8.856   7.382
  277WAT     H2 1074   1.551   8.991   7.291
  278WAT      O 1075   9.437   2.684   2.207
  278WAT     H1 1076   9.352   2.721   2.169
  278WAT     H2 1077   9.450   2.719   2.300
  279WAT      O 1078   3.529   3.942   3.250
  279WAT     H1 1079   3.499   4.021   3.196
  279WAT     H2 1080   3.614   3.906   3.212
  280WAT      O 1081   2.684   7.078   6.630
  280WAT     H1 1082   2.736   7.000   6.666
  280WAT     H2 1083   2.677   7.148   6.700
  281WAT      O 1084   3.726   1.468   7.649
  281WAT     H1 1085   3.673   1.448   7.731
  281WAT     H2 1086   3.786   1.390   7.628
  282WAT      O 1087   2.850   1.271   9.158
  282WAT     H1 1088   2.859   1.368   9.182
  282WAT     H2 1089   2.790   1.262   9.078
  283WAT      O 1090   3.708   4.599   3.961
  283WAT     H1 1091   3.705   4.625   3.865
  283WAT     H2 1092   3.771   4.659   4.010
  284WAT      O 1093   2.341   4.976   3.799
  284WAT     H1 1094   2.266   4.953   3.736
  284WAT     H2 1095   2.314   4.951   3.892
  285WAT      O 1096   7.730   3.660   8.846
  285WAT     H1 1097   7.712   3.562   8.849
  285WAT     H2 1098   7.697   3.697   8.759
  286WAT      O 1099   7.613   5.641   4.469
  286WAT     H1 1100   7.538   5.654   4.404
  286WAT     H2 1101   7.575   5.623   4.560
  287WAT      O 1102   5.818   2.341   1.019
  287WAT     H1 1103   5.769   2.297   0.944
  287WAT     H2 1104   5.841   2.273   1.088
  288WAT      O 1105   7.196   9.208   0.550
  288WAT     H1 1106   7.193   9.128   0.609
  288WAT     H2 1107   7.245   9.186   0.466
  289WAT      O 1108   5.753   8.019   1.257
  289WAT     H1 1109   5.797   8.025   1.167
  289WAT     H2 1110   5.822   8.019   1.329
  290WAT      O 1111   3.817   4.077   3.325
  290WAT     H1 1112   3.789   4.143   3.256
  290WAT     H2 1113   3.782   4.105   3.415
  291WAT      O 1114   3.313   8.279   3.134
  291WAT     H1 1115   3.282   8.245   3.222
  291WAT     H2 1116   3.325   8.202   3.071
  292WAT      O 1117   7.827   0.845   4.254
  292WAT     H1 1118   7.852   0.910   4.326
  292WAT     H2 1119   7.835   0.752   4.288
  293WAT      O 1120   0.157   1.085   8.184
  293WAT     H1 1121   0.077   1.142   8.165
  293WAT     H2 1122   0.129   1.006   8.238
  294WAT      O 1123   3.773   6.575   4.512
  294WAT     H1 1124   3.753   6.489   4.558
  294WAT     H2 1125   3.704   6.643   4.537
  295WAT      O 1126   4.049   8.294   6.952
  295WAT     H1 1127   4.090   8.268   6.864
  295WAT     H2 1128   4.108   8.360   6.998
  296WAT      O 1129   4.535   2.291   7.111
  296WAT     H1 1130   4.580   2.238   7.039
  296WAT     H2 1131   4.437   2.292   7.095
  297WAT      O 1132   8.702   2.219   6.845
  297WAT     H1 1133   8.671   2.233   6.752
  297WAT     H2 1134   8.624   2.204   6.905
  298WAT      O 1135   8.398   6.835   8.652
  298WAT     H1 1136   8.374   6.796   8.563
  298WAT     H2 1137   8.494   6.863   8.653
  299WAT      O 1138   2.894   3.627   3.508
  299WAT     H1 1139   2.992   3.640   3.502
  299WAT     H2 1140   2.850   3.658   3.424
  300WAT      O 1141   0.029   1.274   6.286
  300WAT     H1 1142  -0.001   1.282   6.191
  300WAT     H2 1143  -0.003   1.187   6.324
  301WAT      O 1144   6.019   2.537   4.776
  301WAT     H1 1145   5.974   2.603   4.716
  301WAT     H2 1146   6.000   2.444   4.743
  302WAT      O 1147   6.909   8.827   7.174
  302WAT     H1 1148   6.977   8.795   7.108
  302WAT     H2 1149   6.819   8.794   7.148
  303WAT      O 1150   2.465   9.798   1.179
  303WAT     H1 1151   2.535   9.740   1.137
  303WAT     H2 1152   2.490   9.816   1.275
  304WAT      O 1153   6.972   5.959   6.918
  304WAT     H1 1154   6.969   6.013   7.002
  304WAT     H2 1155   6.886   5.971   6.868
  305WAT      O 1156   9.605   0.777   3.898
  305WAT     H1 1157   9.562   0.757   3.986
  305WAT     H2 1158   9.588   0.873   3.874
  306WAT      O 1159   1.203   6.191   5.246
  306WAT     H1 1160   1.220   6.096   5.219
  306WAT     H2 1161   1.282   6.248   5.221
  307WAT      O 1162   0.393   0.599   0.837
  307WAT     H1 1163   0.455   0.640   0.770
  307WAT     H2 1164   0.424   0.506   0.859
  308WAT      O 1165   3.570   2.734   0.845
  308WAT     H1 1166   3.578   2.768   0.751
  308WAT     H2 1167   3.474   2.710   0.863
  309WAT      O 1168   0.530   5.372   7.614
  309WAT     H1 1169   0.594   5.431   7.564
  309WAT     H2 1170   0.464   5.428   7.664
  310WAT      O 1171   3.487   0.886   1.098
  310WAT     H1 1172   3.503   0.905   1.195
  310WAT     H2 1173   3.546   0.945   1.042
  311WAT      O 1174   0.713   5.401   0.896
  311WAT     H1 1175   0.803   5.375   0.860
  311WAT     H2 1176   0.665   5.318   0.925
  312WAT      O 1177   4.549   1.378   9.086
  312WAT     H1 1178   4.601   1.426   9.155
  312WAT     H2 1179   4.594   1.386   8.997
  313WAT      O 1180   3.956   6.736   8.193
  313WAT     H1 1181   3.978   6.639   8.196
  313WAT     H2 1182   3.874   6.750   8.138
  314WAT      O 1183   6.996   6.676   1.988
  314WAT     H1 1184   6.939   6.746   2.031
  314WAT     H2 1185   7.084   6.716   1.963
  315WAT      O 1186   4.739   6.396   9.078
  315WAT     H1 1187   4.670   6.410   9.007
  315WAT     H2 1188   4.706   6.327   9.143
  316WAT      O 1189   8.057   6.650   3.675
  316WAT     H1 1190   8.081   6.557   3.647
  316WAT     H2 1191   8.110   6.675   3.756
  317WAT      O 1192   4.100   3.564   5.118
  317WAT     H1 1193   4.192   3.601   5.111
  317WAT     H2 1194   4.103   3.465   5.121
  318WAT      O 1195   4.786   6.773   6.045
  318WAT     H1 1196   4.853   6.838   6.079
  318WAT     H2 1197   4.752   6.717   6.121
  319WAT      O 1198   2.209   6.188   4.547
  319WAT     H1 1199   2.299   6.147   4.559
  319WAT     H2 1200   2.213   6.259   4.477
  320WAT      O 1201   9.544   3.574   2.923
  320WAT     H1 1202   9.523   3.599   3.018
  320WAT     H2 1203   9.633   3.611   2.898
  321WAT      O 1204   2.093   7.501   0.425
  321WAT     H1 1205   2.160   7.495   0.351
  321WAT     H2 1206   2.024   7.569   0.401
  322WAT      O 1207   3.401   8.905   8.385
  322WAT     H1 1208   3.399   8.997   8.348
  322WAT     H2 1209   3.316   8.887   8.435
  323WAT      O 1210   6.842   5.959   3.551
  323WAT     H1 1211   6.849   5.953   3.451
  323WAT     H2 1212   6.925   6.001   3.588
  324WAT      O 1213   6.535   4.387   1.148
  324WAT     H1 1214   6.624   4.349   1.172
  324WAT     H2 1215   6.465   4.316   1.157
  325WAT      O 1216   1.185   6.941   4.694
  325WAT     H1 1217   1.140   6.887   4.766
  325WAT     H2 1218   1.283   6.922   4.694
  326WAT      O 1219   5.091   1.911   9.544
  326WAT     H1 1220   5.060   2.004   9.562
  326WAT     H2 1221   5.012   1.851   9.535
  327WAT      O 1222   2.396   7.304   8.256
  327WAT     H1 1223   2.373   7.370   8.327
  327WAT     H2 1224   2.329   7.308   8.183
  328WAT      O 1225   7.818   8.933   5.202
  328WAT     H1 1226   7.881   8.856   5.209
  328WAT     H2 1227   7.857   9.003   5.143
  329WAT      O 1228   5.562   4.794   0.208
  329WAT     H1 1229   5.635   4.731   0.234
  329WAT     H2 1230   5.501   4.808   0.286
  330WAT      O 1231   4.021   9.575   0.931
  330WAT     H1 1232   3.947   9.518   0.894
  330WAT     H2 1233   4.102   9.518   0.948
  331WAT      O 1234   9.248   0.984   0.112
  331WAT     H1 1235   9.330   1.041   0.108
  331WAT     H2 1236   9.176   1.033   0.161
  332WAT      O 1237   1.609   9.341   7.739
  332WAT     H1 1238   1.684   9.302   7.685
  332WAT     H2 1239   1.631   9.336   7.836
  333WAT      O 1240   0.428   7.875   2.808
  333WAT     H1 1241   0.391   7.830   2.889
  333WAT     H2 1242   0.520   7.908   2.828
  334WAT      O 1243   5.953   6.460   8.779
  334WAT     H1 1244   6.007   6.404   8.716
  334WAT     H2 1245   5.888   6.515   8.726
  335WAT      O 1246   5.909   5.002   6.724
  335WAT     H1 1247   5.856   5.033   6.803
  335WAT     H2 1248   5.995   4.961   6.757
  336WAT      O 1249   6.169   0.315   3.314
  336WAT     H1 1250   6.148   0.314   3.216
  336WAT     H2 1251   6.181   0.221   3.346
  337WAT      O 1252   4.719   3.662   5.326
  337WAT     H1 1253   4.769   3.591   5.376
  337WAT     H2 1254   4.651   3.703   5.386
  338WAT      O 1255   4.293   5.154   1.296
  338WAT     H1 1256   4.240   5.112   1.370
  338WAT     H2 1257   4.384   5.113   1.293
  339WAT      O 1258   7.211   7.232   0.610
  339WAT     H1 1259   7.142   7.205   0.677
  339WAT     H2 1260   7.302   7.202   0.641
  340WAT      O 1261   4.052   7.726   0.355
  340WAT     H1 1262   4.146   7.718   0.320
  340WAT     H2 1263   3.996   7.655   0.313
  341WAT      O 1264   7.670   5.619   3.055
  341WAT     H1 1265   7.684   5.573   3.143
  341WAT     H2 1266   7.599   5.572   3.003
  342WAT      O 1267   6.650   0.130   9.454
  342WAT     H1 1268   6.744   0.140   9.485
  342WAT     H2 1269   6.604   0.219   9.459
  343WAT      O 1270   1.239   6.509   5.159
  343WAT     H1 1271   1.300   6.433   5.139
  343WAT     H2 1272   1.184   6.487   5.240
  344WAT      O 1273   6.427   3.118   3.055
  344WAT     H1 1274   6.463   3.207   3.082
  344WAT     H2 1275   6.340   3.102   3.101
  345WAT      O 1276   1.906   9.569   0.584
  345WAT     H1 1277   2.002   9.559   0.609
  345WAT     H2 1278   1.851   9.583   0.666
  346WAT      O 1279   7.944   5.667   6.059
  346WAT     H1 1280   7.971   5.624   6.145
  346WAT     H2 1281   7.844   5.670   6.053
  347WAT      O 1282   6.429   0.625   1.220
  347WAT     H1 1283   6.424   0.577   1.308
  347WAT     H2 1284   6.515   0.603   1.174
  348WAT      O 1285   5.777   3.949   7.546
  348WAT     H1 1286   5.744   3.997   7.627
  348WAT     H2 1287   5.723   3.866   7.532
  349WAT      O 1288   4.265   4.684   3.678
  349WAT     H1 1289   4.243   4.648   3.588
  349WAT     H2 1290   4.358   4.721   3.678
  350WAT      O 1291   0.716   2.713   3.033
  350WAT     H1 1292   0.755   2.709   2.941
  350WAT     H2 1293   0.722   2.807   3.067
  351WAT      O 1294   9.777   9.715   7.659
  351WAT     H1 1295   9.751   9.713   7.563
  351WAT     H2 1296   9.759   9.625   7.700
  352WAT      O 1297   0.676   0.326   1.988
  352WAT     H1 1298   0.714   0.357   2.075
  352WAT     H2 1299   0.749   0.287   1.932
  353WAT      O 1300   8.491   8.622   7.833
  353WAT     H1 1301   8.572   8.664   7.792
  353WAT     H2 1302   8.516   8.532   7.868
  354WAT      O 1303   1.482   9.056   9.828
  354WAT     H1 1304   1.499   9.072   9.730
  354WAT     H2 1305   1.489   9.143   9.877
  355WAT      O 1306   8.815   8.378   7.546
  355WAT     H1 1307   8.867   8.448   7.595
  355WAT     H2 1308   8.751   8.334   7.610
  356WAT      O 1309   6.386   1.441   3.607
  356WAT     H1 1310   6.461   1.504   3.628
  356WAT     H2 1311   6.300   1.478   3.643
  357WAT      O 1312   5.621   1.365   3.084
  357WAT     H1 1313   5.697   1.357   3.020
  357WAT     H2 1314   5.654   1.400   3.172
  358WAT      O 1315   2.177   5.144   1.406
  358WAT     H1 1316   2.225   5.058   1.392
  358WAT     H2 1317   2.230   5.203   1.467
  359WAT      O 1318   8.018   0.969   5.144
  359WAT     H1 1319   7.944   0.985   5.209
  359WAT     H2 1320   8.013   1.035   5.069
  360WAT      O 1321   3.680   0.527   3.658
  360WAT     H1 1322   3.745   0.451   3.656
  360WAT     H2 1323   3.724   0.608   3.696
  361WAT      O 1324   2.354   0.375   8.852
  361WAT     H1 1325   2.390   0.311   8.784
  361WAT     H2 1326   2.403   0.364   8.938
  362WAT      O 1327   6.221   2.556   6.510
  362WAT     H1 1328   6.147   2.574   6.575
  362WAT     H2 1329   6.283   2.634   6.508
  363WAT      O 1330   6.056   2.723   5.532
  363WAT     H1 1331   6.072   2.650   5.466
  363WAT     H2 1332   6.003   2.796   5.489
  364WAT      O 1333   5.543   8.569   7.342
  364WAT     H1 1334   5.589   8.508   7.277
  364WAT     H2 1335   5.450   8.537   7.358
  365WAT      O 1336   4.653   1.532   4.583
  365WAT     H1 1337   4.735   1.488   4.618
  365WAT     H2 1338   4.646   1.516   4.484
  366WAT      O 1339   5.531   6.772   4.037
  366WAT     H1 1340   5.628   6.778   4.011
  366WAT     H2 1341   5.503   6.859   4.079
  367WAT      O 1342   7.623   0.950   2.056
  367WAT     H1 1343   7.694   1.021   2.055
  367WAT     H2 1344   7.533   0.994   2.053
  368WAT      O 1345   3.653   8.367   8.522
  368WAT     H1 1346   3.603   8.373   8.608
  368WAT     H2 1347   3.659   8.271   8.494
  369WAT      O 1348   5.780   9.189   5.861
  369WAT     H1 1349   5.761   9.121   5.789
  369WAT     H2 1350   5.859   9.244   5.834
  370WAT      O 1351   4.900   9.380   3.381
  370WAT     H1 1352   4.928   9.448   3.449
  370WAT     H2 1353   4.823   9.417   3.328
  371WAT      O 1354   3.161   2.957   3.811
  371WAT     H1 1355   3.075   2.992   3.774
  371WAT     H2 1356   3.145   2.868   3.854
  372WAT      O 1357   1.490   1.900   1.254
  372WAT     H1 1358   1.577   1.929   1.214
  372WAT     H2 1359   1.466   1.960   1.330
  373WAT      O 1360   2.043   3.589   2.162
  373WAT     H1 1361   2.118   3.527   2.137
  373WAT     H2 1362   2.074   3.652   2.233
  374WAT      O 1363   6.464   6.116   5.486
  374WAT     H1 1364   6.458   6.187   5.416
  374WAT     H2 1365   6.559   6.087   5.497
  375WAT      O 1366   8.677   6.334   3.415
  375WAT     H1 1367   8.675   6.394   3.335
  375WAT     H2 1368   8.613   6.369   3.484
  376WAT      O 1369   3.862   7.708   6.829
  376WAT     H1 1370   3.768   7.695   6.798
  376WAT     H2 1371   3.865   7.782   6.896
  377WAT      O 1372   7.269   2.302   1.351
  377WAT     H1 1373   7.282   2.302   1.252
  377WAT     H2 1374   7.193   2.362   1.375
  378WAT      O 1375   6.838   3.368   5.219
  378WAT     H1 1376   6.893   3.404   5.143
  378WAT     H2 1377   6.883   3.288   5.258
  379WAT      O 1378   1.232   6.625   2.825
  379WAT     H1 1379   1.166   6.558   2.790
  379WAT     H2 1380   1.321   6.580   2.839
  380WAT      O 1381   7.433   8.057   4.706
  380WAT     H1 1382   7.411   7.982   4.644
  380WAT     H2 1383   7.349   8.091   4.749
  381WAT      O 1384   6.967   6.526   4.386
  381WAT     H1 1385   7.001   6.533   4.292
  381WAT     H2 1386   6.940   6.432   4.405
  382WAT      O 1387   8.670   2.101   8.320
  382WAT     H1 1388   8.656   2.200   8.322
  382WAT     H2 1389   8.598   2.059   8.264
  383WAT      O 1390   3.410   4.349   3.528
  383WAT     H1 1391   3.335   4.282   3.522
  383WAT     H2 1392   3.484   4.312   3.584
  384WAT      O 1393   7.104   0.581   2.655
  384WAT     H1 1394   7.032   0.633   2.610
  384WAT     H2 1395   7.126   0.624   2.743
  385WAT      O 1396   3.128   5.266   6.630
  385WAT     H1 1397   3.066   5.189   6.616
  385WAT     H2 1398   3.116   5.303   6.722
  386WAT      O 1399   9.464   2.412   7.576
  386WAT     H1 1400   9.556   2.451   7.565
  386WAT     H2 1401   9.408   2.474   7.629
  387WAT      O 1402   7.190   8.286   2.426
  387WAT     H1 1403   7.263   8.347   2.455
  387WAT     H2 1404   7.174   8.296   2.328
  388WAT      O 1405   5.658   3.914   9.814
  388WAT     H1 1406   5.624   3.852   9.885
  388WAT     H2 1407   5.751   3.889   9.789
  389WAT      O 1408   8.518   3.943   4.273
  389WAT     H1 1409   8.554   3.940   4.366
  389WAT     H2 1410   8.592   3.923   4.209
  390WAT      O 1411   6.498   6.381   5.373
  390WAT     H1 1412   6.534   6.431   5.295
  390WAT     H2 1413   6.573   6.355   5.434
  391WAT      O 1414   9.068   0.161   0.894
  391WAT     H1 1415   9.102   0.067   0.895
  391WAT     H2 1416   9.044   0.189   0.987
  392WAT      O 1417   9.260   6.382   2.009
  392WAT     H1 1418   9.277   6.455   1.943
  392WAT     H2 1419   9.323   6.306   1.993
  393WAT      O 1420   4.419   5.789   3.566
  393WAT     H1 1421   4.396   5.827   3.655
  393WAT     H2 1422   4.518   5.774   3.560
  394WAT      O 1423   5.641   1.695   7.594
  394WAT     H1 1424   5.599   1.650   7.515
  394WAT     H2 1425   5.664   1.626   7.663
  395WAT      O 1426   1.441   8.101   2.014
  395WAT     H1 1427   1.380   8.038   1.967
  395WAT     H2 1428   1.389   8.179   2.048
  396WAT      O 1429   1.587   7.751   7.722
  396WAT     H1 1430   1.516   7.683   7.702
  396WAT     H2 1431   1.674   7.719   7.687
  397WAT      O 1432   6.511   1.245   9.855
  397WAT     H1 1433   6.442   1.286   9.914
  397WAT     H2 1434   6.473   1.161   9.814
  398WAT      O 1435   8.418   4.900   0.300
  398WAT     H1 1436   8.473   4.978   0.268
  398WAT     H2 1437   8.442   4.879   0.395
  399WAT      O 1438   4.490   7.100   5.390
  399WAT     H1 1439   4.499   7.156   5.308
  399WAT     H2 1440   4.487   7.003   5.365
  400WAT      O 1441   6.194   4.155   2.341
  400WAT     H1 1442   6.168   4.058   2.340
  400WAT     H2 1443   6.111   4.211   2.345
  401WAT      O 1444   3.389   5.702   1.573
  401WAT     H1 1445   3.303   5.651   1.588
  401WAT     H2 1446   3.425   5.681   1.483
  402WAT      O 1447   5.706   1.753   0.419
  402WAT     H1 1448   5.792   1.709   0.443
  402WAT     H2 1449   5.726   1.844   0.381
  403WAT      O 1450   8.805   6.983   1.175
  403WAT     H1 1451   8.862   6.927   1.236
  403WAT     H2 1452   8.843   6.981   1.083
  404WAT      O 1453   8.627   2.661   5.409
  404WAT     H1 1454   8.657   2.755   5.429
  404WAT     H2 1455   8.555   2.664   5.339
  405WAT      O 1456   9.612   2.110   6.452
  405WAT     H1 1457   9.597   2.162   6.535
  405WAT     H2 1458   9.655   2.022   6.475
  406WAT      O 1459   0.926   6.051   0.687
  406WAT     H1 1460   0.954   6.089   0.776
  406WAT     H2 1461   0.827   6.055   0.679
  407WAT      O 1462   2.441   7.125   6.556
  407WAT     H1 1463   2.536   7.096   6.571
  407WAT     H2 1464   2.396   7.137   6.645
  408WAT      O 1465   5.879   3.535   2.675
  408WAT     H1 1466   5.979   3.522   2.671
  408WAT     H2 1467   5.858   3.631   2.661
  409WAT      O 1468   8.139   2.648   4.035
  409WAT     H1 1469   8.091   2.651   4.123
  409WAT     H2 1470   8.165   2.554   4.014
  410WAT      O 1471   1.094   6.245   9.031
  410WAT     H1 1472   1.018   6.258   9.094
  410WAT     H2 1473   1.134   6.154   9.046
  411WAT      O 1474   0.442   1.908   8.607
  411WAT     H1 1475   0.433   1.812   8.632
  411WAT     H2 1476   0.487   1.916   8.518
  412WAT      O 1477   2.468   2.240   8.810
  412WAT     H1 1478   2.420   2.293   8.740
  412WAT     H2 1479   2.548   2.292   8.841
  413WAT      O 1480   8.091   6.994   7.530
  413WAT     H1 1481   8.000   7.032   7.544
  413WAT     H2 1482   8.086   6.913   7.471
  414WAT      O 1483   2.582   6.492   6.405
  414WAT     H1 1484   2.628   6.457   6.323
  414WAT     H2 1485   2.483   6.496   6.388
  415WAT      O 1486   6.615   5.160   9.600
  415WAT     H1 1487   6.649   5.250   9.628
  415WAT     H2 1488   6.585   5.110   9.682
  416WAT      O 1489   7.972   7.640   1.435
  416WAT     H1 1490   7.993   7.632   1.337
  416WAT     H2 1491   7.966   7.737   1.460
  417WAT      O 1492   8.453   3.253   4.916
  417WAT     H1 1493   8.483   3.298   5.000
  417WAT     H2 1494   8.420   3.322   4.851
  418WAT      O 1495   9.515   7.326   8.391
  418WAT     H1 1496   9.497   7.410   8.442
  418WAT     H2 1497   9.466   7.250   8.434
  419WAT      O 1498   8.971   9.841   9.680
  419WAT     H1 1499   8.916   9.871   9.758
  419WAT     H2 1500   8.998   9.746   9.693
  420WAT      O 1501   8.865   7.355   0.729
  420WAT     H1 1502   8.882   7.259   0.705
  420WAT     H2 1503   8.812   7.359   0.814
  421WAT      O 1504   1.857   9.294   9.283
  421WAT     H1 1505   1.947   9.279   9.242
  421WAT     H2 1506   1.824   9.385   9.260
  422WAT      O 1507   4.479   3.150   5.748
  422WAT     H1 1508   4.524   3.078   5.801
  422WAT     H2 1509   4.545   3.191   5.685
  423WAT      O 1510   7.359   9.162   0.323
  423WAT     H1 1511   7.346   9.248   0.274
  423WAT     H2 1512   7.308   9.090   0.277
  424WAT      O 1513   5.882   3.423   3.676
  424WAT     H1 1514   5.808   3.473   3.720
  424WAT     H2 1515   5.849   3.333   3.646
  425WAT      O 1516   1.127   6.394   9.859
  425WAT     H1 1517   1.117   6.494   9.855
  425WAT     H2 1518   1.164   6.368   9.948
  426WAT      O 1519   8.599   2.299   0.110
  426WAT     H1 1520   8.652   2.358   0.170
  426WAT     H2 1521   8.660   2.256   0.043
  427WAT      O 1522   7.358   7.637   1.866
  427WAT     H1 1523   7.280   7.641   1.929
  427WAT     H2 1524   7.442   7.661   1.914
  428WAT      O 1525   5.798   3.967   8.544
  428WAT     H1 1526   5.825   4.026   8.621
  428WAT     H2 1527   5.728   3.903   8.574
  429WAT      O 1528   1.230   2.489   7.682
  429WAT     H1 1529   1.329   2.499   7.695
  429WAT     H2 1530   1.182   2.541   7.753
  430WAT      O 1531   0.623   4.857   1.555
  430WAT     H1 1532   0.666   4.906   1.478
  430WAT     H2 1533   0.566   4.921   1.607
  431WAT      O 1534   3.226   9.111   9.736
  431WAT     H1 1535   3.246   9.191   9.680
  431WAT     H2 1536   3.139   9.125   9.784
  432WAT      O 1537   3.562   2.313   8.170
  432WAT     H1 1538   3.639   2.260   8.203
  432WAT     H2 1539   3.543   2.389   8.232
  433WAT      O 1540   7.950   1.893   6.237
  433WAT     H1 1541   7.860   1.852   6.227
  433WAT     H2 1542   7.997   1.853   6.315
  434WAT      O 1543   2.049   3.743   9.508
  434WAT     H1 1544   2.081   3.723   9.416
  434WAT     H2 1545   2.126   3.734   9.572
  435WAT      O 1546   2.545   2.042   4.029
  435WAT     H1 1547   2.511   2.135   4.014
  435WAT     H2 1548   2.617   2.022   3.963
  436WAT      O 1549   0.411   0.302   4.859
  436WAT     H1 1550   0.370   0.221   4.900
  436WAT     H2 1551   0.489   0.332   4.914
  437WAT      O 1552   3.656   1.196   1.231
  437WAT     H1 1553   3.589   1.194   1.304
  437WAT     H2 1554   3.742   1.235   1.265
  438WAT      O 1555   8.005   5.572   7.254
  438WAT     H1 1556   8.016   5.667   7.284
  438WAT     H2 1557   7.942   5.568   7.177
  439WAT      O 1558   4.005   9.525   1.876
  439WAT     H1 1559   3.988   9.448   1.814
  439WAT     H2 1560   3.981   9.498   1.969
  440WAT      O 1561   1.917   2.972   9.770
  440WAT     H1 1562   1.905   3.061   9.727
  440WAT     H2 1563   1.939   2.984   9.867
  441WAT      O 1564   6.628   9.770   6.346
  441WAT     H1 1565   6.583   9.719   6.420
  441WAT     H2 1566   6.693   9.710   6.300
  442WAT      O 1567   3.864   2.289   9.635
  442WAT     H1 1568   3.820   2.199   9.641
  442WAT     H2 1569   3.806   2.357   9.680
  443WAT      O 1570   7.195   3.357   0.875
  443WAT     H1 1571   7.265   3.374   0.944
  443WAT     H2 1572   7.198   3.261   0.846
  444WAT      O 1573   0.438   7.827   6.304
  444WAT     H1 1574   0.363   7.761   6.302
  444WAT     H2 1575   0.519   7.787   6.261
  445WAT      O 1576   3.599   9.023   2.558
  445WAT     H1 1577   3.575   9.096   2.621
  445WAT     H2 1578   3.636   8.945   2.608
  446WAT      O 1579   0.377   2.237   0.170
  446WAT     H1 1580   0.314   2.213   0.244
  446WAT     H2 1581   0.461   2.274   0.209
  447WAT      O 1582   5.744   7.291   5.194
  447WAT     H1 1583   5.841   7.288   5.218
  447WAT     H2 1584   5.690   7.262   5.272
  448WAT      O 1585   9.436   9.208   4.299
  448WAT     H1 1586   9.488   9.135   4.256
  448WAT     H2 1587   9.496   9.286   4.317
  449WAT      O 1588   3.245   5.706   8.690
  449WAT     H1 1589   3.344   5.717   8.683
  449WAT     H2 1590   3.210   5.764   8.763
  450WAT      O 1591   4.876   2.565   7.448
  450WAT     H1 1592   4.783   2.529   7.434
  450WAT     H2 1593   4.911   2.533   7.536
  451WAT      O 1594   2.601   4.279   2.311
  451WAT     H1 1595   2.636   4.333   2.388
  451WAT     H2 1596   2.599   4.336   2.229
  452WAT      O 1597   8.152   7.670   1.726
  452WAT     H1 1598   8.206   7.634   1.650
  452WAT     H2 1599   8.089   7.599   1.759
  453WAT      O 1600   5.354   5.245   8.197
  453WAT     H1 1601   5.382   5.156   8.160
  453WAT     H2 1602   5.265   5.235   8.242
  454WAT      O 1603   0.305   4.194   4.391
  454WAT     H1 1604   0.387   4.251   4.392
  454WAT     H2 1605   0.331   4.099   4.369
  455WAT      O 1606   7.942   6.990   3.383
  455WAT     H1 1607   7.925   7.005   3.286
  455WAT     H2 1608   7.929   7.076   3.433
  456WAT      O 1609   6.751   8.609   9.798
  456WAT     H1 1610   6.765   8.706   9.815
  456WAT     H2 1611   6.654   8.592   9.779
  457WAT      O 1612   9.443   3.929   2.816
  457WAT     H1 1613   9.358   3.942   2.764
  457WAT     H2 1614   9.421   3.907   2.911
  458WAT      O 1615   6.687   2.367   1.605
  458WAT     H1 1616   6.707   2.418   1.689
  458WAT     H2 1617   6.734   2.279   1.608
  459WAT      O 1618   5.590   8.666   6.561
  459WAT     H1 1619   5.672   8.723   6.571
  459WAT     H2 1620   5.509   8.723   6.568
  460WAT      O 1621   5.741   7.887   3.117
  460WAT     H1 1622   5.808   7.925   3.054
  460WAT     H2 1623   5.781   7.810   3.165
  461WAT      O 1624   4.154   5.366   4.460
  461WAT     H1 1625   4.176   5.398   4.552
  461WAT     H2 1626   4.113   5.274   4.466
  462WAT      O 1627   1.626   3.967   5.186
  462WAT     H1 1628   1.568   4.036   5.229
  462WAT     H2 1629   1.570   3.888   5.161
  463WAT      O 1630   3.439   5.623   0.385
  463WAT     H1 1631   3.518   5.682   0.402
  463WAT     H2 1632   3.459   5.562   0.309
  464WAT      O 1633   3.937   7.128   4.646
  464WAT     H1 1634   3.930   7.217   4.600
  464WAT     H2 1635   3.892   7.058   4.590
  465WAT      O 1636   0.358   4.398   5.480
  465WAT     H1 1637   0.439   4.432   5.432
  465WAT     H2 1638   0.381   4.315   5.531
  466WAT      O 1639   8.299   0.136   4.171
  466WAT     H1 1640   8.264   0.062   4.227
  466WAT     H2 1641   8.247   0.220   4.190
  467WAT      O 1642   9.871   1.094   2.715
  467WAT     H1 1643   9.800   1.165   2.710
  467WAT     H2 1644   9.833   1.007   2.686
  468WAT      O 1645   6.557   1.509   2.571
  468WAT     H1 1646   6.488   1.521   2.642
  468WAT     H2 1647   6.648   1.519   2.612
  469WAT      O 1648   2.036   8.770   0.067
  469WAT     H1 1649   1.936   8.778   0.071
  469WAT     H2 1650   2.061   8.675   0.047
  470WAT      O 1651   9.642   3.746   6.871
  470WAT     H1 1652   9.547   3.772   6.855
  470WAT     H2 1653   9.672   3.683   6.799
  471WAT      O 1654   4.031   8.954   8.139
  471WAT     H1 1655   4.008   9.050   8.122
  471WAT     H2 1656   4.122   8.948   8.180
  472WAT      O 1657   3.662   0.590   2.341
  472WAT     H1 1658   3.651   0.690   2.345
  472WAT     H2 1659   3.719   0.566   2.262
  473WAT      O 1660   5.918   0.343   6.894
  473WAT     H1 1661   5.823   0.322   6.916
  473WAT     H2 1662   5.922   0.411   6.821
  474WAT      O 1663   2.574   8.601   4.416
  474WAT     H1 1664   2.613   8.655   4.342
  474WAT     H2 1665   2.477   8.623   4.425
  475WAT      O 1666   7.399   7.560   0.600
  475WAT     H1 1667   7.442   7.639   0.644
  475WAT     H2 1668   7.470   7.502   0.561
  476WAT      O 1669   2.783   3.473   4.223
  476WAT     H1 1670   2.861   3.411   4.229
  476WAT     H2 1671   2.699   3.424   4.246
  477WAT      O 1672   0.094   9.720   8.954
  477WAT     H1 1673   0.037   9.737   9.034
  477WAT     H2 1674   0.122   9.624   8.953
  478WAT      O 1675   7.020   1.393   6.734
  478WAT     H1 1676   6.980   1.301   6.735
  478WAT     H2 1677   6.996   1.438   6.648
  479WAT      O 1678   0.227   7.719   1.353
  479WAT     H1 1679   0.263   7.797   1.302
  479WAT     H2 1680   0.215   7.744   1.449
  480WAT      O 1681   0.008   9.407   2.318
  480WAT     H1 1682   0.072   9.339   2.352
  480WAT     H2 1683  -0.057   9.364   2.256
  481WAT      O 1684   1.659   6.644   2.658
  481WAT     H1 1685   1.721   6.718   2.632
  481WAT     H2 1686   1.597   6.624   2.582
  482WAT      O 1687   0.332   2.308   1.414
  482WAT     H1 1688   0.336   2.226   1.357
  482WAT     H2 1689   0.274   2.377   1.370
  483WAT      O 1690   7.579   6.317   9.184
  483WAT     H1 1691   7.630   6.397   9.215
  483WAT     H2 1692   7.635   6.262   9.123
  484WAT      O 1693   1.061   4.636   9.332
  484WAT     H1 1694   1.063   4.693   9.251
  484WAT     H2 1695   1.038   4.542   9.307
  485WAT      O 1696   0.321   6.755   2.398
  485WAT     H1 1697   0.353   6.771   2.492
  485WAT     H2 1698   0.392   6.783   2.334
  486WAT      O 1699   1.880   8.766   8.467
  486WAT     H1 1700   1.955   8.801   8.523
  486WAT     H2 1701   1.908   8.762   8.372
  487WAT      O 1702   0.489   5.581   6.971
  487WAT     H1 1703   0.451   5.645   6.905
  487WAT     H2 1704   0.473   5.487   6.939
  488WAT      O 1705   7.130   4.106   0.647
  488WAT     H1 1706   7.137   4.051   0.564
  488WAT     H2 1707   7.138   4.203   0.623
  489WAT      O 1708   9.831   5.225   6.075
  489WAT     H1 1709   9.770   5.176   6.137
  489WAT     H2 1710   9.921   5.180   6.075
  490WAT      O 1711   7.974   4.515   7.019
  490WAT     H1 1712   7.952   4.486   7.112
  490WAT     H2 1713   7.907   4.477   6.955
  491WAT      O 1714   7.446   4.508   5.819
  491WAT     H1 1715   7.531   4.525   5.769
  491WAT     H2 1716   7.452   4.422   5.869
  492WAT      O 1717   1.509   4.319   6.419
  492WAT     H1 1718   1.411   4.314   6.439
  492WAT     H2 1719   1.558   4.250   6.473
  493WAT      O 1720   5.189   8.067   2.160
  493WAT     H1 1721   5.178   8.058   2.259
  493WAT     H2 1722   5.200   8.163   2.136
  494WAT      O 1723   9.426   1.944   4.279
  494WAT     H1 1724   9.485   1.996   4.217
  494WAT     H2 1725   9.463   1.947   4.372
  495WAT      O 1726   4.576   0.284   5.260
  495WAT     H1 1727   4.616   0.335   5.336
  495WAT     H2 1728   4.493   0.330   5.229
  496WAT      O 1729   6.631   1.787   8.954
  496WAT     H1 1730   6.618   1.704   8.900
  496WAT     H2 1731   6.728   1.802   8.972
  497WAT      O 1732   7.597   4.269   0.827
  497WAT     H1 1733   7.579   4.190   0.768
  497WAT     H2 1734   7.597   4.240   0.923
  498WAT      O 1735   6.517   1.512   9.637
  498WAT     H1 1736   6.432   1.530   9.686
  498WAT     H2 1737   6.524   1.414   9.617
  499WAT      O 1738   4.483   3.321   8.196
  499WAT     H1 1739   4.503   3.414   8.168
  499WAT     H2 1740   4.479   3.316   8.296
  500WAT      O 1741   5.697   6.581   3.660
  500WAT     H1 1742   5.605   6.590   3.622
  500WAT     H2 1743   5.758   6.540   3.592
  501WAT      O 1744   4.707   0.472   0.971
  501WAT     H1 1745   4.723   0.519   0.884
  501WAT     H2 1746   4.668   0.382   0.953
  502WAT      O 1747   5.228   8.310   7.591
  502WAT     H1 1748   5.175   8.248   7.533
  502WAT     H2 1749   5.190   8.308   7.684
  503WAT      O 1750   0.001   9.003   2.279
  503WAT     H1 1751   0.025   8.919   2.326
  503WAT     H2 1752   0.082   9.041   2.234
  504WAT      O 1753   6.867   8.898   9.627
  504WAT     H1 1754   6.824   8.808   9.614
  504WAT     H2 1755   6.821   8.965   9.568
  505WAT      O 1756   3.524   1.975   0.722
  505WAT     H1 1757   3.431   1.943   0.738
  505WAT     H2 1758   3.579   1.901   0.685
  506WAT      O 1759   5.458   6.284   4.275
  506WAT     H1 1760   5.393   6.269   4.349
  506WAT     H2 1761   5.519   6.359   4.299
  507WAT      O 1762   4.903   5.415   8.392
  507WAT     H1 1763   4.911   5.471   8.310
  507WAT     H2 1764   4.831   5.452   8.452
  508WAT      O 1765   0.314   0.714   3.989
  508WAT     H1 1766   0.368   0.655   4.049
  508WAT     H2 1767   0.309   0.806   4.027
  509WAT      O 1768   2.922   9.000   7.461
  509WAT     H1 1769   2.915   9.043   7.370
  509WAT     H2 1770   2.840   9.022   7.514
  510WAT      O 1771   6.582   2.590   0.367
  510WAT     H1 1772   6.633   2.511   0.401
  510WAT     H2 1773   6.486   2.565   0.355
  511WAT      O 1774   1.429   2.768   4.110
  511WAT     H1 1775   1.372   2.816   4.043
  511WAT     H2 1776   1.506   2.827   4.136
  512WAT      O 1777   5.175   1.517   4.603
  512WAT     H1 1778   5.171   1.578   4.682
  512WAT     H2 1779   5.267   1.517   4.565
  513WAT      O 1780   0.076   5.871   2.024
  513WAT     H1 1781   0.072   5.919   2.112
  513WAT     H2 1782   0.155   5.904   1.972
  514WAT      O 1783   0.586   5.429   3.653
  514WAT     H1 1784   0.679   5.462   3.636
  514WAT     H2 1785   0.539   5.490   3.717
  515WAT      O 1786   0.554   9.547   9.870
  515WAT     H1 1787   0.537   9.534   9.772
  515WAT     H2 1788   0.534   9.641   9.895
  516WAT      O 1789   7.635   2.150   0.537
  516WAT     H1 1790   7.661   2.066   0.584
  516WAT     H2 1791   7.569   2.129   0.464
  517WAT      O 1792   3.934   4.113   8.864
  517WAT     H1 1793   3.995   4.135   8.787
  517WAT     H2 1794   3.977   4.141   8.950
  518WAT      O 1795   8.856   7.754   9.260
  518WAT     H1 1796   8.889   7.840   9.298
  518WAT     H2 1797   8.866   7.681   9.328
  519WAT      O 1798   7.662   2.493   3.161
  519WAT     H1 1799   7.619   2.578   3.189
  519WAT     H2 1800   7.661   2.487   3.061
  520WAT      O 1801   4.290   6.023   9.405
  520WAT     H1 1802   4.195   6.039   9.380
  520WAT     H2 1803   4.329   5.953   9.346
  521WAT      O 1804   3.413   5.098   1.973
  521WAT     H1 1805   3.420   4.998   1.980
  521WAT     H2 1806   3.475   5.140   2.040
  522WAT      O 1807   4.971   6.915   7.554
  522WAT     H1 1808   4.992   6.916   7.652
  522WAT     H2 1809   4.902   6.845   7.535
  523WAT      O 1810   8.024   7.902   1.045
  523WAT     H1 1811   8.050   7.926   0.951
  523WAT     H2 1812   7.988   7.983   1.091
  524WAT      O 1813   2.884   3.531   2.225
  524WAT     H1 1814   2.789   3.546   2.251
  524WAT     H2 1815   2.907   3.589   2.147
  525WAT      O 1816   7.869   9.390   0.912
  525WAT     H1 1817   7.910   9.458   0.851
  525WAT     H2 1818   7.845   9.434   0.999
  526WAT      O 1819   6.244   4.035   5.579
  526WAT     H1 1820   6.337   4.067   5.563
  526WAT     H2 1821   6.179   4.109   5.558
  527WAT      O 1822   1.917   4.947   9.359
  527WAT     H1 1823   1.990   4.961   9.426
  527WAT     H2 1824   1.956   4.947   9.267
  528WAT      O 1825   4.495   7.955   6.662
  528WAT     H1 1826   4.527   7.981   6.571
  528WAT     H2 1827   4.476   8.038   6.716
  529WAT      O 1828   0.150   7.437   9.081
  529WAT     H1 1829   0.223   7.385   9.037
  529WAT     H2 1830   0.098   7.376   9.142
  530WAT      O 1831   4.831   0.260   6.870
  530WAT     H1 1832   4.801   0.166   6.860
  530WAT     H2 1833   4.821   0.308   6.782
  531WAT      O 1834   2.227   8.930   5.482
  531WAT     H1 1835   2.254   8.834   5.474
  531WAT     H2 1836   2.161   8.941   5.556
  532WAT      O 1837   1.904   2.941   4.947
  532WAT     H1 1838   1.966   2.872   4.908
  532WAT     H2 1839   1.958   3.019   4.979
  533WAT      O 1840   5.817   2.349   1.649
  533WAT     H1 1841   5.795   2.392   1.561
  533WAT     H2 1842   5.752   2.275   1.666
  534WAT      O 1843   8.195   2.828   3.824
  534WAT     H1 1844   8.263   2.878   3.878
  534WAT     H2 1845   8.155   2.755   3.879
  535WAT      O 1846   7.886   0.292   4.217
  535WAT     H1 1847   7.849   0.374   4.173
  535WAT     H2 1848   7.970   0.315   4.267
  536WAT      O 1849   9.832   3.498   9.773
  536WAT     H1 1850   9.870   3.420   9.723
  536WAT     H2 1851   9.810   3.571   9.708
  537WAT      O 1852   3.777   4.946   2.297
  537WAT     H1 1853   3.865   4.969   2.337
  537WAT     H2 1854   3.792   4.910   2.205
  538WAT      O 1855   9.287   1.689   5.211
  538WAT     H1 1856   9.337   1.614   5.168
  538WAT     H2 1857   9.350   1.764   5.230
  539WAT      O 1858   1.805   9.012   3.585
  539WAT     H1 1859   1.834   9.105   3.564
  539WAT     H2 1860   1.717   9.013   3.633
  540WAT      O 1861   1.242   4.600   1.815
  540WAT     H1 1862   1.309   4.634   1.750
  540WAT     H2 1863   1.158   4.653   1.808
  541WAT      O 1864   4.411   8.027   7.457
  541WAT     H1 1865   4.342   7.999   7.524
  541WAT     H2 1866   4.389   8.118   7.422
  542WAT      O 1867   1.498   0.652   4.528
  542WAT     H1 1868   1.536   0.561   4.517
  542WAT     H2 1869   1.506   0.681   4.623
  543WAT      O 1870   2.037   6.952   4.129
  543WAT     H1 1871   2.063   6.990   4.040
  543WAT     H2 1872   2.058   6.854   4.131
  544WAT      O 1873   8.382   7.058   7.516
  544WAT     H1 1874   8.384   7.084   7.419
  544WAT     H2 1875   8.290   7.029   7.541
  545WAT      O 1876   0.872   8.483   6.370
  545WAT     H1 1877   0.936   8.498   6.295
  545WAT     H2 1878   0.858   8.568   6.420
  546WAT      O 1879   1.446   5.789   2.195
  546WAT     H1 1880   1.491   5.734   2.125
  546WAT     H2 1881   1.480   5.763   2.285
  547WAT      O 1882   0.765   3.237   2.131
  547WAT     H1 1883   0.668   3.217   2.142
  547WAT     H2 1884   0.816   3.152   2.117
  548WAT      O 1885   1.278   8.518   3.710
  548WAT     H1 1886   1.223   8.591   3.751
  548WAT     H2 1887   1.375   8.540   3.720
  549WAT      O 1888   8.776   1.218   8.655
  549WAT     H1 1889   8.710   1.289   8.633
  549WAT     H2 1890   8.812   1.233   8.747
  550WAT      O 1891   3.551   1.006   2.825
  550WAT     H1 1892   3.454   1.012   2.849
  550WAT     H2 1893   3.593   0.930   2.875
  551WAT      O 1894   1.950   3.063   3.064
  551WAT     H1 1895   2.005   3.100   3.139
  551WAT     H2 1896   1.971   2.966   3.053
  552WAT      O 1897   1.671   9.236   1.768
  552WAT     H1 1898   1.611   9.289   1.707
  552WAT     H2 1899   1.759   9.283   1.778
  553WAT      O 1900   4.726   5.646   0.262
  553WAT     H1 1901   4.673   5.729   0.279
  553WAT     H2 1902   4.805   5.643   0.323
  554WAT      O 1903   3.105   3.970   8.857
  554WAT     H1 1904   3.029   3.926   8.809
  554WAT     H2 1905   3.077   4.060   8.890
  555WAT      O 1906   2.750   7.148   3.084
  555WAT     H1 1907   2.745   7.083   3.159
  555WAT     H2 1908   2.775   7.100   2.999
  556WAT      O 1909   0.241   5.297   1.113
  556WAT     H1 1910   0.299   5.240   1.170
  556WAT     H2 1911   0.273   5.392   1.116
  557WAT      O 1912   2.426   0.998   8.752
  557WAT     H1 1913   2.453   0.973   8.845
  557WAT     H2 1914   2.488   1.068   8.717
  558WAT      O 1915   6.139   8.513   3.987
  558WAT     H1 1916   6.040   8.519   3.977
  558WAT     H2 1917   6.177   8.458   3.913
  559WAT      O 1918   6.097   4.661   1.792
  559WAT     H1 1919   6.151   4.706   1.862
  559WAT     H2 1920   6.016   4.716   1.771
  560WAT      O 1921   8.582   4.981   3.341
  560WAT     H1 1922   8.511   5.021   3.283
  560WAT     H2 1923   8.541   4.915   3.403
  561WAT      O 1924   6.707   0.770   5.878
  561WAT     H1 1925   6.780   0.766   5.946
  561WAT     H2 1926   6.744   0.744   5.789
  562WAT      O 1927   1.222   6.034   2.480
  562WAT     H1 1928   1.177   6.121   2.462
  562WAT     H2 1929   1.176   5.987   2.555
  563WAT      O 1930   8.838   1.817   6.479
  563WAT     H1 1931   8.740   1.799   6.478
  563WAT     H2 1932   8.860   1.881   6.552
  564WAT      O 1933   2.780   3.036   9.421
  564WAT     H1 1934   2.700   3.083   9.459
  564WAT     H2 1935   2.768   2.937   9.432
  565WAT      O 1936   5.297   7.398   4.368
  565WAT     H1 1937   5.354   7.465   4.321
  565WAT     H2 1938   5.206   7.437   4.386
  566WAT      O 1939   7.629   4.138   6.599
  566WAT     H1 1940   7.703   4.136   6.532
  566WAT     H2 1941   7.658   4.094   6.683
  567WAT      O 1942   4.415   8.047   2.562
  567WAT     H1 1943   4.486   8.022   2.496
  567WAT     H2 1944   4.373   8.133   2.536
  568WAT      O 1945   3.687   7.706   6.460
  568WAT     H1 1946   3.757   7.637   6.478
  568WAT     H2 1947   3.714   7.792   6.502
  569WAT      O 1948   7.240   9.476   0.668
  569WAT     H1 1949   7.215   9.390   0.624
  569WAT     H2 1950   7.158   9.534   0.676
  570WAT      O 1951   3.237   6.917   1.712
  570WAT     H1 1952   3.314   6.964   1.756
  570WAT     H2 1953   3.179   6.985   1.666
  571WAT      O 1954   0.656   9.262   4.162
  571WAT     H1 1955   0.721   9.236   4.234
  571WAT     H2 1956   0.573   9.299   4.203
  572WAT      O 1957   5.101   1.560   1.758
  572WAT     H1 1958   5.188   1.605   1.777
  572WAT     H2 1959   5.035   1.628   1.725
  573WAT      O 1960   2.089   4.283   7.077
  573WAT     H1 1961   2.064   4.268   7.173
  573WAT     H2 1962   2.060   4.204   7.023
  574WAT      O 1963   2.706   4.850   6.993
  574WAT     H1 1964   2.678   4.946   6.984
  574WAT     H2 1965   2.720   4.829   7.090
  575WAT      O 1966   0.779   9.780   3.238
  575WAT     H1 1967   0.697   9.835   3.219
  575WAT     H2 1968   0.752   9.686   3.258
  576WAT      O 1969   9.227   8.289   2.927
  576WAT     H1 1970   9.272   8.344   2.997
  576WAT     H2 1971   9.134   8.265   2.957
  577WAT      O 1972   0.727   6.785   8.898
  577WAT     H1 1973   0.651   6.803   8.961
  577WAT     H2 1974   0.725   6.852   8.824
  578WAT      O 1975   0.788   4.117   0.930
  578WAT     H1 1976   0.783   4.217   0.927
  578WAT     H2 1977   0.763   4.080   0.841
  579WAT      O 1978   7.014   0.175   8.764
  579WAT     H1 1979   6.976   0.262   8.798
  579WAT     H2 1980   7.016   0.177   8.664
  580WAT      O 1981   2.886   5.396   1.784
  580WAT     H1 1982   2.823   5.437   1.718
  580WAT     H2 1983   2.938   5.468   1.830
  581WAT      O 1984   5.663   4.019   1.743
  581WAT     H1 1985   5.755   3.992   1.771
  581WAT     H2 1986   5.595   3.968   1.796
  582WAT      O 1987   0.722   9.322   8.799
  582WAT     H1 1988   0.757   9.325   8.893
  582WAT     H2 1989   0.786   9.371   8.738
  583WAT      O 1990   3.762   0.233   7.117
  583WAT     H1 1991   3.706   0.261   7.194
  583WAT     H2 1992   3.858   0.256   7.135
  584WAT      O 1993   1.760   1.843   1.140
  584WAT     H1 1994   1.689   1.816   1.075
  584WAT     H2 1995   1.850   1.823   1.102
  585WAT      O 1996   5.826   2.701   7.310
  585WAT     H1 1997   5.789   2.722   7.400
  585WAT     H2 1998   5.798   2.609   7.283
  586WAT      O 1999   5.425   3.084   5.181
  586WAT     H1 2000   5.403   3.131   5.095
  586WAT     H2 2001   5.405   2.987   5.172
  587WAT      O 2002   2.089   3.945   7.162
  587WAT     H1 2003   2.073   3.983   7.071
  587WAT     H2 2004   2.004   3.949   7.215
  588WAT      O 2005   1.884   0.913   9.759
  588WAT     H1 2006   1.859   0.896   9.854
  588WAT     H2 2007   1.821   0.979   9.718
  589WAT      O 2008   2.322   1.846   2.236
  589WAT     H1 2009   2.381   1.797   2.171
  589WAT     H2 2010   2.252   1.897   2.186
  590WAT      O 2011   3.971   1.672   8.002
  590WAT     H1 2012   3.890   1.614   7.999
  590WAT     H2 2013   4.035   1.642   7.931
  591WAT      O 2014   7.880   0.091   2.650
  591WAT     H1 2015   7.822   0.105   2.731
  591WAT     H2 2016   7.975   0.080   2.679
  592WAT      O 2017   6.413   3.382   7.380
  592WAT     H1 2018   6.365   3.351   7.298
  592WAT     H2 2019   6.488   3.319   7.400
  593WAT      O 2020   5.129   7.244   3.060
  593WAT     H1 2021   5.061   7.188   3.108
  593WAT     H2 2022   5.197   7.184   3.018
  594WAT      O 2023   4.724   9.289   1.117
  594WAT     H1 2024   4.744   9.361   1.050
  594WAT     H2 2025   4.737   9.200   1.075
  595WAT      O 2026   6.605   3.184   7.609
  595WAT     H1 2027   6.513   3.147   7.624
  595WAT     H2 2028   6.613   3.272   7.656
  596WAT      O 2029   0.195   4.144   5.763
  596WAT     H1 2030   0.158   4.083   5.832
  596WAT     H2 2031   0.150   4.233   5.769
  597WAT      O 2032   8.655   6.960   8.238
  597WAT     H1 2033   8.712   7.009   8.172
  597WAT     H2 2034   8.618   6.878   8.195
  598WAT      O 2035   3.706   5.813   6.475
  598WAT     H1 2036   3.698   5.749   6.552
  598WAT     H2 2037   3.683   5.905   6.507
  599WAT      O 2038   3.341   2.403   4.939
  599WAT     H1 2039   3.436   2.386   4.963
  599WAT     H2 2040   3.282   2.337   4.985
  600WAT      O 2041   0.868   2.298   0.531
  600WAT     H1 2042   0.874   2.324   0.627
  600WAT     H2 2043   0.896   2.375   0.473
  601WAT      O 2044   8.103   4.203   9.024
  601WAT     H1 2045   8.195   4.235   9.044
  601WAT     H2 2046   8.051   4.193   9.109
  602WAT      O 2047   3.451   3.281   6.094
  602WAT     H1 2048   3.550   3.274   6.106
  602WAT     H2 2049   3.429   3.368   6.049
  603WAT      O 2050   2.852   5.139   7.968
  603WAT     H1 2051   2.802   5.203   8.027
  603WAT     H2 2052   2.883   5.061   8.023
  604WAT      O 2053   2.502   4.952   6.055
  604WAT     H1 2054   2.516   5.030   5.994
  604WAT     H2 2055   2.480   4.985   6.147
  605WAT      O 2056   0.055   1.409   8.914
  605WAT     H1 2057   0.067   1.310   8.920
  605WAT     H2 2058  -0.042   1.430   8.904
  606WAT      O 2059   2.094   1.290   2.887
  606WAT     H1 2060   2.133   1.379   2.863
  606WAT     H2 2061   2.109   1.272   2.984
  607WAT      O 2062   6.523   7.989   1.024
  607WAT     H1 2063   6.572   7.950   1.102
  607WAT     H2 2064   6.534   7.929   0.945
  608WAT      O 2065   8.779   4.995   9.460
  608WAT     H1 2066   8.847   5.033   9.523
  608WAT     H2 2067   8.691   5.040   9.476
  609WAT      O 2068   9.587   7.226   2.852
  609WAT     H1 2069   9.645   7.265   2.923
  609WAT     H2 2070   9.550   7.300   2.796
  610WAT      O 2071   9.558   9.122   3.094
  610WAT     H1 2072   9.593   9.068   3.171
  610WAT     H2 2073   9.464   9.094   3.074
  611WAT      O 2074   5.694   0.392   0.023
  611WAT     H1 2075   5.695   0.435  -0.068
  611WAT     H2 2076   5.741   0.452   0.088
  612WAT      O 2077   5.541   4.082   1.509
  612WAT     H1 2078   5.592   4.049   1.588
  612WAT     H2 2079   5.460   4.132   1.539
  613WAT      O 2080   7.829   2.706   6.483
  613WAT     H1 2081   7.771   2.624   6.484
  613WAT     H2 2082   7.784   2.777   6.429
  614WAT      O 2083   4.348   8.241   3.469
  614WAT     H1 2084   4.399   8.306   3.412
  614WAT     H2 2085   4.250   8.264   3.466
  615WAT      O 2086   6.083   7.985   6.595
  615WAT     H1 2087   5.996   8.022   6.628
  615WAT     H2 2088   6.090   8.000   6.497
  616WAT      O 2089   6.379   6.077   6.378
  616WAT     H1 2090   6.394   6.172   6.350
  616WAT     H2 2091   6.442   6.017   6.328
  617WAT      O 2092   8.031   9.681   6.258
  617WAT     H1 2093   8.062   9.637   6.342
  617WAT     H2 2094   8.110   9.708   6.203
  618WAT      O 2095   5.845   3.040   6.383
  618WAT     H1 2096   5.789   3.077   6.457
  618WAT     H2 2097   5.788   2.985   6.322
  619WAT      O 2098   0.584   7.925   8.443
  619WAT     H1 2099   0.521   7.929   8.520
  619WAT     H2 2100   0.602   8.017   8.409
  620WAT      O 2101   6.323   0.642   0.881
  620WAT     H1 2102   6.409   0.680   0.917
  620WAT     H2 2103   6.294   0.566   0.938
  621WAT      O 2104   5.722   8.092   8.428
  621WAT     H1 2105   5.796   8.058   8.487
  621WAT     H2 2106   5.724   8.192   8.427
  622WAT      O 2107   0.732   1.296   3.937
  622WAT     H1 2108   0.695   1.363   4.001
  622WAT     H2 2109   0.815   1.255   3.975
  623WAT      O 2110   5.590   9.553   0.174
  623WAT     H1 2111   5.655   9.524   0.104
  623WAT     H2 2112   5.638   9.603   0.246
  624WAT      O 2113   1.567   5.753   2.446
  624WAT     H1 2114   1.545   5.721   2.538
  624WAT     H2 2115   1.663   5.736   2.427
  625WAT      O 2116   2.140   4.002   5.788
  625WAT     H1 2117   2.087   4.070   5.738
  625WAT     H2 2118   2.147   3.919   5.732
  626WAT      O 2119   7.860   9.672   9.465
  626WAT     H1 2120   7.840   9.671   9.367
  626WAT     H2 2121   7.778   9.646   9.516
  627WAT      O 2122   9.744   2.966   3.189
  627WAT     H1 2123   9.731   2.985   3.092
  627WAT     H2 2124   9.667   2.913   3.224
  628WAT      O 2125   6.842   2.255   7.805
  628WAT     H1 2126   6.890   2.168   7.797
  628WAT     H2 2127   6.816   2.287   7.714
  629WAT      O 2128   8.352   1.013   6.341
  629WAT     H1 2129   8.427   1.075   6.320
  629WAT     H2 2130   8.381   0.948   6.411
  630WAT      O 2131   8.077   2.534   2.199
  630WAT     H1 2132   8.104   2.586   2.118
  630WAT     H2 2133   7.979   2.545   2.214
  631WAT      O 2134   8.303   4.362   9.079
  631WAT     H1 2135   8.252   4.447   9.070
  631WAT     H2 2136   8.338   4.354   9.172
  632WAT      O 2137   1.115   0.267   2.010
  632WAT     H1 2138   1.029   0.248   1.961
  632WAT     H2 2139   1.101   0.343   2.074
  633WAT      O 2140   8.903   4.007   5.557
  633WAT     H1 2141   8.805   3.986   5.551
  633WAT     H2 2142   8.949   3.936   5.609
  634WAT      O 2143   7.301   0.087   2.268
  634WAT     H1 2144   7.321   0.122   2.177
  634WAT     H2 2145   7.229   0.142   2.310
  635WAT      O 2146   6.028   3.750   4.508
  635WAT     H1 2147   5.971   3.812   4.454
  635WAT     H2 2148   6.119   3.791   4.519
  636WAT      O 2149   4.373   8.899   1.535
  636WAT     H1 2150   4.296   8.933   1.589
  636WAT     H2 2151   4.352   8.910   1.438
  637WAT      O 2152   8.169   4.490   7.628
  637WAT     H1 2153   8.146   4.530   7.539
  637WAT     H2 2154   8.268   4.487   7.639
  638WAT      O 2155   7.779   1.213   6.757
  638WAT     H1 2156   7.802   1.310   6.761
  638WAT     H2 2157   7.851   1.163   6.709
  639WAT      O 2158   4.970   0.139   9.613
  639WAT     H1 2159   4.917   0.203   9.558
  639WAT     H2 2160   5.048   0.187   9.654
  640WAT      O 2161   0.945   6.785   6.405
  640WAT     H1 2162   0.878   6.803   6.477
  640WAT     H2 2163   0.976   6.872   6.366
  641WAT      O 2164   9.349   7.439   5.684
  641WAT     H1 2165   9.302   7.361   5.642
  641WAT     H2 2166   9.376   7.416   5.777
  642WAT      O 2167   8.691   7.342   8.911
  642WAT     H1 2168   8.740   7.428   8.925
  642WAT     H2 2169   8.643   7.345   8.824
  643WAT      O 2170   3.945   6.527   7.841
  643WAT     H1 2171   3.991   6.475   7.769
  643WAT     H2 2172   4.009   6.591   7.884
  644WAT      O 2173   2.447   1.842   1.728
  644WAT     H1 2174   2.480   1.891   1.647
  644WAT     H2 2175   2.384   1.770   1.700
  645WAT      O 2176   4.427   6.439   0.114
  645WAT     H1 2177   4.437   6.349   0.071
  645WAT     H2 2178   4.515   6.469   0.150
  646WAT      O 2179   1.254   2.924   7.033
  646WAT     H1 2180   1.157   2.920   7.008
  646WAT     H2 2181   1.305   2.973   6.962
  647WAT      O 2182   7.351   5.527   8.422
  647WAT     H1 2183   7.440   5.487   8.445
  647WAT     H2 2184   7.303   5.466   8.359
  648WAT      O 2185   1.675   6.933   7.342
  648WAT     H1 2186   1.670   7.010   7.405
  648WAT     H2 2187   1.605   6.944   7.271
  649WAT      O 2188   7.461   2.482   4.834
  649WAT     H1 2189   7.495   2.442   4.919
  649WAT     H2 2190   7.510   2.444   4.756
  650WAT      O 2191   6.979   0.099   0.011
  650WAT     H1 2192   6.906   0.058   0.067
  650WAT     H2 2193   7.013   0.032  -0.055
  651WAT      O 2194   2.159   2.458   0.213
  651WAT     H1 2195   2.128   2.453   0.308
  651WAT     H2 2196   2.257   2.478   0.211
  652WAT      O 2197   7.220   9.339   1.503
  652WAT     H1 2198   7.245   9.248   1.470
  652WAT     H2 2199   7.131   9.335   1.548
  653WAT      O 2200   7.557   3.112   6.707
  653WAT     H1 2201   7.458   3.108   6.691
  653WAT     H2 2202   7.604   3.129   6.621
  654WAT      O 2203   4.876   6.611   4.815
  654WAT     H1 2204   4.838   6.647   4.900
  654WAT     H2 2205   4.818   6.537   4.781
  655WAT      O 2206   1.537   6.468   6.346
  655WAT     H1 2207   1.589   6.392   6.384
  655WAT     H2 2208   1.592   6.516   6.277
  656WAT      O 2209   5.826   3.507   8.175
  656WAT     H1 2210   5.925   3.492   8.181
  656WAT     H2 2211   5.784   3.432   8.125
  657WAT      O 2212   2.280   9.324   3.113
  657WAT     H1 2213   2.350   9.396   3.122
  657WAT     H2 2214   2.272   9.299   3.016
  658WAT      O 2215   7.754   3.545   4.898
  658WAT     H1 2216   7.801   3.519   4.814
  658WAT     H2 2217   7.701   3.467   4.932
  659WAT      O 2218   3.865   0.614   2.510
  659WAT     H1 2219   3.933   0.666   2.460
  659WAT     H2 2220   3.796   0.579   2.447
  660WAT      O 2221   7.323   8.448   7.514
  660WAT     H1 2222   7.317   8.546   7.528
  660WAT     H2 2223   7.336   8.429   7.416
  661WAT      O 2224   8.253   5.894   8.979
  661WAT     H1 2225   8.256   5.812   9.037
  661WAT     H2 2226   8.337   5.947   8.992
  662WAT      O 2227   2.101   9.451   5.898
  662WAT     H1 2228   2.146   9.531   5.938
  662WAT     H2 2229   2.141   9.368   5.937
  663WAT      O 2230   3.480   7.730   9.396
  663WAT     H1 2231   3.420   7.785   9.454
  663WAT     H2 2232   3.475   7.634   9.425
  664WAT      O 2233   6.849   1.088   2.411
  664WAT     H1 2234   6.809   1.013   2.358
  664WAT     H2 2235   6.822   1.175   2.370
  665WAT      O 2236   8.096   8.196   6.206
  665WAT     H1 2237   8.159   8.269   6.179
  665WAT     H2 2238   8.127   8.109   6.168
  666WAT      O 2239   5.217   6.099   5.140
  666WAT     H1 2240   5.223   6.113   5.239
  666WAT     H2 2241   5.285   6.032   5.112
  667WAT      O 2242   9.662   9.688   7.422
  667WAT     H1 2243   9.600   9.690   7.344
  667WAT     H2 2244   9.756   9.689   7.390
  668WAT      O 2245   5.666   9.270   7.423
  668WAT     H1 2246   5.658   9.298   7.518
  668WAT     H2 2247   5.708   9.344   7.370
  669WAT      O 2248   3.540   4.315   6.194
  669WAT     H1 2249   3.575   4.271   6.277
  669WAT     H2 2250   3.505   4.245   6.132
  670WAT      O 2251   3.077   2.308   8.130
  670WAT     H1 2252   3.150   2.368   8.096
  670WAT     H2 2253   3.011   2.292   8.057
  671WAT      O 2254   5.155   9.044   3.202
  671WAT     H1 2255   5.190   8.951   3.193
  671WAT     H2 2256   5.133   9.063   3.298
  672WAT      O 2257   7.168   9.231   3.552
  672WAT     H1 2258   7.118   9.242   3.638
  672WAT     H2 2259   7.166   9.134   3.525
  673WAT      O 2260   8.636   0.703   6.546
  673WAT     H1 2261   8.560   0.768   6.543
  673WAT     H2 2262   8.619   0.635   6.617
  674WAT      O 2263   9.310   9.131   2.894
  674WAT     H1 2264   9.310   9.229   2.872
  674WAT     H2 2265   9.336   9.079   2.812
  675WAT      O 2266   7.729   0.808   9.031
  675WAT     H1 2267   7.644   0.757   9.045
  675WAT     H2 2268   7.734   0.882   9.098
  676WAT      O 2269   3.348   9.196   5.266
  676WAT     H1 2270   3.248   9.201   5.255
  676WAT     H2 2271   3.386   9.288   5.268
  677WAT      O 2272   7.119   5.842   2.209
  677WAT     H1 2273   7.147   5.909   2.141
  677WAT     H2 2274   7.187   5.770   2.215
  678WAT      O 2275   5.171   0.445   2.509
  678WAT     H1 2276   5.183   0.346   2.498
  678WAT     H2 2277   5.243   0.493   2.459
  679WAT      O 2278   6.823   1.265   5.045
  679WAT     H1 2279   6.737   1.237   5.086
  679WAT     H2 2280   6.843   1.360   5.070
  680WAT      O 2281   0.108   4.012   8.358
  680WAT     H1 2282   0.107   3.975   8.265
  680WAT     H2 2283   0.092   4.110   8.355
  681WAT      O 2284   2.832   9.484   2.249
  681WAT     H1 2285   2.901   9.556   2.250
  681WAT     H2 2286   2.748   9.518   2.292
  682WAT      O 2287   7.291   5.599   6.385
  682WAT     H1 2288   7.323   5.555   6.301
  682WAT     H2 2289   7.278   5.531   6.457
  683WAT      O 2290   7.690   4.187   8.609
  683WAT     H1 2291   7.781   4.204   8.646
  683WAT     H2 2292   7.691   4.100   8.559
  684WAT      O 2293   0.058   2.282   0.016
  684WAT     H1 2294  -0.019   2.245  -0.035
  684WAT     H2 2295   0.026   2.351   0.080
  685WAT      O 2296   6.456   2.426   5.549
  685WAT     H1 2297   6.552   2.410   5.526
  685WAT     H2 2298   6.398   2.388   5.476
  686WAT      O 2299   4.356   6.020   5.388
  686WAT     H1 2300   4.377   5.999   5.483
  686WAT     H2 2301   4.311   5.941   5.346
  687WAT      O 2302   0.684   8.136   6.258
  687WAT     H1 2303   0.586   8.121   6.245
  687WAT     H2 2304   0.720   8.069   6.323
  688WAT      O 2305   2.031   1.550   6.104
  688WAT     H1 2306   1.941   1.517   6.131
  688WAT     H2 2307   2.101   1.506   6.161
  689WAT      O 2308   8.824   2.409   0.289
  689WAT     H1 2309   8.868   2.360   0.364
  689WAT     H2 2310   8.884   2.409   0.209
  690WAT      O 2311   9.119   4.755   6.967
  690WAT     H1 2312   9.092   4.706   6.883
  690WAT     H2 2313   9.043   4.813   6.997
  691WAT      O 2314   2.766   3.250   8.829
  691WAT     H1 2315   2.755   3.180   8.759
  691WAT     H2 2316   2.857   3.243   8.870
  692WAT      O 2317   5.936   5.235   3.552
  692WAT     H1 2318   5.854   5.196   3.594
  692WAT     H2 2319   5.948   5.197   3.460
  693WAT      O 2320   9.448   8.420   4.811
  693WAT     H1 2321   9.547   8.407   4.822
  693WAT     H2 2322   9.430   8.455   4.719
  694WAT      O 2323   4.142   8.726   1.865
  694WAT     H1 2324   4.106   8.702   1.955
  694WAT     H2 2325   4.241   8.712   1.865
  695WAT      O 2326   3.590   3.388   2.119
  695WAT     H1 2327   3.596   3.469   2.060
  695WAT     H2 2328   3.528   3.407   2.195
  696WAT      O 2329   9.497   7.901   2.711
  696WAT     H1 2330   9.519   7.830   2.778
  696WAT     H2 2331   9.579   7.952   2.687
  697WAT      O 2332   5.825   5.930   4.325
  697WAT     H1 2333   5.909   5.955   4.372
  697WAT     H2 2334   5.806   5.996   4.252
  698WAT      O 2335   0.654   9.274   6.709
  698WAT     H1 2336   0.701   9.199   6.661
  698WAT     H2 2337   0.618   9.339   6.642
  699WAT      O 2338   2.906   4.989   4.402
  699WAT     H1 2339   2.998   4.994   4.362
  699WAT     H2 2340   2.847   4.936   4.340
  700WAT      O 2341   5.889   9.032   5.071
  700WAT     H1 2342   5.860   9.117   5.025
  700WAT     H2 2343   5.887   8.957   5.005
  701WAT      O 2344   1.097   4.346   8.998
  701WAT     H1 2345   1.064   4.440   9.012
  701WAT     H2 2346   1.026   4.282   9.027
  702WAT      O 2347   4.693   4.234   2.796
  702WAT     H1 2348   4.685   4.196   2.888
  702WAT     H2 2349   4.603   4.238   2.753
  703WAT      O 2350   7.838   0.468   4.527
  703WAT     H1 2351   7.911   0.419   4.574
  703WAT     H2 2352   7.770   0.402   4.493
  704WAT      O 2353   9.327   6.152   0.420
  704WAT     H1 2354   9.338   6.056   0.447
  704WAT     H2 2355   9.235   6.183   0.445
  705WAT      O 2356   2.652   9.292   4.540
  705WAT     H1 2357   2.618   9.386   4.545
  705WAT     H2 2358   2.728   9.287   4.476
  706WAT      O 2359   6.427   9.335   6.324
  706WAT     H1 2360   6.378   9.423   6.325
  706WAT     H2 2361   6.392   9.277   6.397
  707WAT      O 2362   1.317   8.201   8.027
  707WAT     H1 2363   1.289   8.272   7.963
  707WAT     H2 2364   1.370   8.131   7.978
  708WAT      O 2365   2.223   2.191   0.568
  708WAT     H1 2366   2.204   2.126   0.494
  708WAT     H2 2367   2.322   2.202   0.577
  709WAT      O 2368   8.279   8.262   2.883
  709WAT     H1 2369   8.274   8.315   2.798
  709WAT     H2 2370   8.351   8.193   2.875
  710WAT      O 2371   1.669   5.944   4.352
  710WAT     H1 2372   1.701   6.027   4.307
  710WAT     H2 2373   1.580   5.961   4.394
  711WAT      O 2374   8.187   2.937   3.331
  711WAT     H1 2375   8.094   2.917   3.362
  711WAT     H2 2376   8.182   2.995   3.249
  712WAT      O 2377   3.238   6.016   0.787
  712WAT     H1 2378   3.287   6.061   0.713
  712WAT     H2 2379   3.229   6.078   0.864
  713WAT      O 2380   2.121   1.697   6.895
  713WAT     H1 2381   2.174   1.693   6.810
  713WAT     H2 2382   2.105   1.605   6.929
  714WAT      O 2383   3.804   4.017   2.976
  714WAT     H1 2384   3.844   4.036   2.886
  714WAT     H2 2385   3.764   4.100   3.013
  715WAT      O 2386   5.118   7.892   5.886
  715WAT     H1 2387   5.201   7.905   5.940
  715WAT     H2 2388   5.063   7.819   5.926
  716WAT      O 2389   2.654   5.831   1.682
  716WAT     H1 2390   2.705   5.917   1.679
  716WAT     H2 2391   2.606   5.818   1.595
  717WAT      O 2392   8.517   1.372   2.799
  717WAT     H1 2393   8.608   1.413   2.788
  717WAT     H2 2394   8.521   1.276   2.772
  718WAT      O 2395   8.285   5.206   7.259
  718WAT     H1 2396   8.233   5.211   7.173
  718WAT     H2 2397   8.233   5.154   7.326
  719WAT      O 2398   1.514   9.546   5.487
  719WAT     H1 2399   1.419   9.516   5.485
  719WAT     H2 2400   1.529   9.614   5.414
  720WAT      O 2401   5.669   9.727   8.258
  720WAT     H1 2402   5.639   9.712   8.352
  720WAT     H2 2403   5.758   9.684   8.245
  721WAT      O 2404   8.781   6.694   9.896
  721WAT     H1 2405   8.691   6.737   9.888
  721WAT     H2 2406   8.847   6.743   9.839
  722WAT      O 2407   8.837   2.670   0.426
  722WAT     H1 2408   8.743   2.701   0.414
  722WAT     H2 2409   8.882   2.664   0.337
  723WAT      O 2410   2.273   1.830   2.493
  723WAT     H1 2411   2.174   1.832   2.508
  723WAT     H2 2412   2.291   1.834   2.395
  724WAT      O 2413   9.429   3.090   8.313
  724WAT     H1 2414   9.405   2.994   8.303
  724WAT     H2 2415   9.506   3.112   8.253
  725WAT      O 2416   4.933   2.138   1.922
  725WAT     H1 2417   4.966   2.053   1.963
  725WAT     H2 2418   5.009   2.202   1.911
  726WAT      O 2419   3.758   8.708   4.111
  726WAT     H1 2420   3.814   8.786   4.140
  726WAT     H2 2421   3.773   8.631   4.173
  727WAT      O 2422   8.978   7.533   5.052
  727WAT     H1 2423   8.909   7.520   4.980
  727WAT     H2 2424   9.067   7.505   5.017
  728WAT      O 2425   1.711   0.209   5.904
  728WAT     H1 2426   1.635   0.168   5.955
  728WAT     H2 2427   1.796   0.197   5.955
  729WAT      O 2428   7.024   9.599   3.668
  729WAT     H1 2429   7.066   9.571   3.582
  729WAT     H2 2430   6.933   9.636   3.650
  730WAT      O 2431   7.078   4.272   5.719
  730WAT     H1 2432   7.102   4.224   5.635
  730WAT     H2 2433   7.016   4.215   5.774
  731WAT      O 2434   4.791   3.133   8.449
  731WAT     H1 2435   4.700   3.145   8.488
  731WAT     H2 2436   4.820   3.038   8.462
  732WAT      O 2437   9.355   0.487   1.077
  732WAT     H1 2438   9.384   0.582   1.063
  732WAT     H2 2439   9.320   0.450   0.991
  733WAT      O 2440   2.969   0.333   9.154
  733WAT     H1 2441   3.032   0.272   9.202
  733WAT     H2 2442   3.015   0.421   9.137
  734WAT      O 2443   1.050   6.494   6.774
  734WAT     H1 2444   1.135   6.547   6.777
  734WAT     H2 2445   1.045   6.436   6.855
  735WAT      O 2446   6.396   6.798   0.114
  735WAT     H1 2447   6.475   6.844   0.154
  735WAT     H2 2448   6.346   6.861   0.055
  736WAT      O 2449   1.406   7.757   1.756
  736WAT     H1 2450   1.347   7.695   1.703
  736WAT     H2 2451   1.354   7.838   1.782
  737WAT      O 2452   7.245   9.276   3.159
  737WAT     H1 2453   7.315   9.341   3.130
  737WAT     H2 2454   7.157   9.322   3.167
  738WAT      O 2455   7.677   8.099   4.084
  738WAT     H1 2456   7.730   8.070   4.004
  738WAT     H2 2457   7.728   8.077   4.167
  739WAT      O 2458   4.086   6.979   5.995
  739WAT     H1 2459   4.094   7.011   5.900
  739WAT     H2 2460   4.006   7.021   6.037
  740WAT      O 2461   4.916   2.127   7.995
  740WAT     H1 2462   4.862   2.170   7.923
  740WAT     H2 2463   5.009   2.110   7.962
  741WAT      O 2464   0.685   4.274   5.927
  741WAT     H1 2465   0.638   4.356   5.960
  741WAT     H2 2466   0.733   4.230   6.003
  742WAT      O 2467   6.261   5.901   5.497
  742WAT     H1 2468   6.314   5.986   5.505
  742WAT     H2 2469   6.178   5.918   5.444
  743WAT      O 2470   0.811   3.084   7.938
  743WAT     H1 2471   0.720   3.101   7.899
  743WAT     H2 2472   0.823   2.986   7.951
  744WAT      O 2473   7.894   8.431   5.115
  744WAT     H1 2474   7.970   8.438   5.050
  744WAT     H2 2475   7.807   8.426   5.065
  745WAT      O 2476   0.166   2.511   8.366
  745WAT     H1 2477   0.215   2.534   8.450
  745WAT     H2 2478   0.082   2.563   8.360
  746WAT      O 2479   4.861   4.725   8.864
  746WAT     H1 2480   4.950   4.709   8.821
  746WAT     H2 2481   4.860   4.685   8.955
  747WAT      O 2482   8.112   0.944   8.488
  747WAT     H1 2483   8.085   0.933   8.392
  747WAT     H2 2484   8.202   0.903   8.502
  748WAT      O 2485   3.154   3.400   9.804
  748WAT     H1 2486   3.135   3.302   9.810
  748WAT     H2 2487   3.160   3.438   9.897
  749WAT      O 2488   9.449   3.026   1.118
  749WAT     H1 2489   9.473   3.034   1.021
  749WAT     H2 2490   9.532   3.013   1.172
  750WAT      O 2491   5.107   9.802   8.931
  750WAT     H1 2492   5.072   9.729   8.989
  750WAT     H2 2493   5.031   9.853   8.891
  751WAT      O 2494   7.253   3.461   7.658
  751WAT     H1 2495   7.153   3.461   7.649
  751WAT     H2 2496   7.280   3.520   7.734
  752WAT      O 2497   8.957   1.291   1.902
  752WAT     H1 2498   8.996   1.374   1.942
  752WAT     H2 2499   8.859   1.304   1.888
  753WAT      O 2500   9.585   9.666   9.283
  753WAT     H1 2501   9.516   9.736   9.298
  753WAT     H2 2502   9.576   9.630   9.190
  754WAT      O 2503   1.193   0.459   1.044
  754WAT     H1 2504   1.181   0.515   0.962
  754WAT     H2 2505   1.240   0.513   1.115
  755WAT      O 2506   9.601   8.815   4.904
  755WAT     H1 2507   9.676   8.750   4.916
  755WAT     H2 2508   9.631   8.890   4.846
  756WAT      O 2509   3.219   8.831   7.081
  756WAT     H1 2510   3.221   8.782   7.169
  756WAT     H2 2511   3.182   8.770   7.011
  757WAT      O 2512   7.653   7.305   7.590
  757WAT     H1 2513   7.584   7.243   7.627
  757WAT     H2 2514   7.743   7.262   7.593
  758WAT      O 2515   9.009   2.301   8.939
  758WAT     H1 2516   9.054   2.266   8.857
  758WAT     H2 2517   9.076   2.310   9.013
  759WAT      O 2518   8.775   0.599   9.149
  759WAT     H1 2519   8.753   0.538   9.073
  759WAT     H2 2520   8.822   0.547   9.220
  760WAT      O 2521   3.171   2.302   1.999
  760WAT     H1 2522   3.194   2.246   1.919
  760WAT     H2 2523   3.124   2.246   2.067
  761WAT      O 2524   7.787   3.331   7.346
  761WAT     H1 2525   7.701   3.362   7.385
  761WAT     H2 2526   7.800   3.372   7.256
  762WAT      O 2527   6.372   6.854   6.531
  762WAT     H1 2528   6.383   6.805   6.617
  762WAT     H2 2529   6.289   6.910   6.535
  763WAT      O 2530   3.589   9.370   9.640
  763WAT     H1 2531   3.492   9.395   9.647
  763WAT     H2 2532   3.634   9.384   9.728
  764WAT      O 2533   9.219   3.151   1.178
  764WAT     H1 2534   9.247   3.245   1.158
  764WAT     H2 2535   9.300   3.092   1.176
  765WAT      O 2536   9.209   5.263   3.756
  765WAT     H1 2537   9.211   5.238   3.659
  765WAT     H2 2538   9.281   5.213   3.805
  766WAT      O 2539   2.590   5.318   8.829
  766WAT     H1 2540   2.505   5.320   8.882
  766WAT     H2 2541   2.580   5.251   8.755
  767WAT      O 2542   0.610   8.050   5.786
  767WAT     H1 2543   0.573   8.142   5.777
  767WAT     H2 2544   0.708   8.056   5.807
  768WAT      O 2545   9.282   1.574   8.115
  768WAT     H1 2546   9.250   1.668   8.107
  768WAT     H2 2547   9.345   1.567   8.193
  769WAT      O 2548   8.047   8.204   7.289
  769WAT     H1 2549   8.046   8.220   7.387
  769WAT     H2 2550   8.080   8.112   7.270
  770WAT      O 2551   8.427   2.082   3.983
  770WAT     H1 2552   8.386   2.145   3.917
  770WAT     H2 2553   8.502   2.128   4.031
  771WAT      O 2554   8.426   4.559   8.694
  771WAT     H1 2555   8.348   4.498   8.708
  771WAT     H2 2556   8.510   4.505   8.693
  772WAT      O 2557   9.084   5.668   7.708
  772WAT     H1 2558   9.159   5.713   7.660
  772WAT     H2 2559   9.103   5.570   7.715
  773WAT      O 2560   5.210   6.126   7.867
  773WAT     H1 2561   5.145   6.112   7.792
  773WAT     H2 2562   5.246   6.038   7.897
  774WAT      O 2563   9.776   4.604   3.151
  774WAT     H1 2564   9.829   4.527   3.116
  774WAT     H2 2565   9.829   4.650   3.223
  775WAT      O 2566   8.179   4.469   2.557
  775WAT     H1 2567   8.271   4.509   2.548
  775WAT     H2 2568   8.182   4.393   2.621
  776WAT      O 2569   9.487   5.740   5.466
  776WAT     H1 2570   9.557   5.677   5.500
  776WAT     H2 2571   9.506   5.764   5.371
  777WAT      O 2572   4.041   5.465   2.303
  777WAT     H1 2573   4.107   5.523   2.256
  777WAT     H2 2574   3.979   5.523   2.357
  778WAT      O 2575   6.618   7.537   8.954
  778WAT     H1 2576   6.574   7.454   8.987
  778WAT     H2 2577   6.579   7.562   8.865
  779WAT      O 2578   9.592   7.369   8.918
  779WAT     H1 2579   9.585   7.303   8.992
  779WAT     H2 2580   9.529   7.344   8.844
  780WAT      O 2581   1.860   4.460   0.367
  780WAT     H1 2582   1.834   4.366   0.390
  780WAT     H2 2583   1.802   4.492   0.292
  781WAT      O 2584   4.836   0.463   2.098
  781WAT     H1 2585   4.916   0.412   2.066
  781WAT     H2 2586   4.839   0.470   2.198
  782WAT      O 2587   7.993   6.623   9.509
  782WAT     H1 2588   7.947   6.542   9.472
  782WAT     H2 2589   7.934   6.703   9.498
  783WAT      O 2590   6.737   5.810   3.089
  783WAT     H1 2591   6.674   5.732   3.085
  783WAT     H2 2592   6.831   5.777   3.088
  784WAT      O 2593   6.286   6.706   4.241
  784WAT     H1 2594   6.348   6.762   4.297
  784WAT     H2 2595   6.275   6.748   4.151
  785WAT      O 2596   4.635   0.308   2.009
  785WAT     H1 2597   4.706   0.375   2.032
  785WAT     H2 2598   4.660   0.261   1.925
  786WAT      O 2599   7.811   5.233   3.574
  786WAT     H1 2600   7.768   5.316   3.609
  786WAT     H2 2601   7.900   5.220   3.617
  787WAT      O 2602   1.249   7.579   8.001
  787WAT     H1 2603   1.329   7.566   8.060
  787WAT     H2 2604   1.255   7.517   7.923
  788WAT      O 2605   4.906   8.450   9.520
  788WAT     H1 2606   4.833   8.399   9.476
  788WAT     H2 2607   4.917   8.539   9.475
  789WAT      O 2608   0.918   3.412   2.016
  789WAT     H1 2609   0.841   3.356   2.047
  789WAT     H2 2610   0.909   3.505   2.051
  790WAT      O 2611   7.378   0.564   0.527
  790WAT     H1 2612   7.327   0.649   0.509
  790WAT     H2 2613   7.469   0.572   0.487
  791WAT      O 2614   5.019   6.588   6.054
  791WAT     H1 2615   4.986   6.564   6.145
  791WAT     H2 2616   4.997   6.684   6.034
  792WAT      O 2617   9.611   1.113   4.951
  792WAT     H1 2618   9.590   1.017   4.972
  792WAT     H2 2619   9.676   1.117   4.875
  793WAT      O 2620   4.683   7.591   7.471
  793WAT     H1 2621   4.615   7.663   7.455
  793WAT     H2 2622   4.771   7.620   7.434
  794WAT      O 2623   6.893   7.894   1.138
  794WAT     H1 2624   6.806   7.849   1.156
  794WAT     H2 2625   6.888   7.989   1.167
  795WAT      O 2626   2.746   7.625   2.168
  795WAT     H1 2627   2.749   7.708   2.114
  795WAT     H2 2628   2.673   7.565   2.133
  796WAT      O 2629   6.083   5.689   2.986
  796WAT     H1 2630   6.071   5.756   3.060
  796WAT     H2 2631   6.068   5.597   3.022
  797WAT      O 2632   1.425   5.533   7.800
  797WAT     H1 2633   1.476   5.618   7.815
  797WAT     H2 2634   1.428   5.509   7.703
  798WAT      O 2635   1.468   2.635   2.938
  798WAT     H1 2636   1.410   2.583   3.002
  798WAT     H2 2637   1.472   2.730   2.967
  799WAT      O 2638   2.938   6.250   5.537
  799WAT     H1 2639   3.035   6.247   5.563
  799WAT     H2 2640   2.889   6.177   5.583
  800WAT      O 2641   5.522   5.073   8.758
  800WAT     H1 2642   5.539   5.032   8.848
  800WAT     H2 2643   5.424   5.087   8.746
  801WAT      O 2644   8.738   6.163   8.993
  801WAT     H1 2645   8.708   6.255   8.967
  801WAT     H2 2646   8.833   6.168   9.025
  802WAT      O 2647   3.420   2.407   4.019
  802WAT     H1 2648   3.499   2.421   4.079
  802WAT     H2 2649   3.407   2.487   3.961
  803WAT      O 2650   0.781   6.418   6.087
  803WAT     H1 2651   0.725   6.491   6.128
  803WAT     H2 2652   0.726   6.335   6.079
  804WAT      O 2653   6.342   7.746   3.065
  804WAT     H1 2654   6.435   7.726   3.094
  804WAT     H2 2655   6.340   7.833   3.015
  805WAT      O 2656   9.741   6.642   2.573
  805WAT     H1 2657   9.781   6.664   2.484
  805WAT     H2 2658   9.813   6.616   2.637
  806WAT      O 2659   3.641   3.554   3.982
  806WAT     H1 2660   3.606   3.639   4.022
  806WAT     H2 2661   3.691   3.503   4.052
  807WAT      O 2662   3.862   6.419   2.740
  807WAT     H1 2663   3.815   6.331   2.745
  807WAT     H2 2664   3.961   6.405   2.741
  808WAT      O 2665   6.638   1.975   7.054
  808WAT     H1 2666   6.589   2.062   7.061
  808WAT     H2 2667   6.586   1.904   7.102
  809WAT      O 2668   2.204   1.218   4.208
  809WAT     H1 2669   2.166   1.173   4.127
  809WAT     H2 2670   2.221   1.315   4.187
  810WAT      O 2671   7.896   0.064   0.476
  810WAT     H1 2672   7.886   0.095   0.382
  810WAT     H2 2673   7.989   0.085   0.509
  811WAT      O 2674   4.494   6.575   3.656
  811WAT     H1 2675   4.416   6.569   3.593
  811WAT     H2 2676   4.518   6.671   3.669
  812WAT      O 2677   6.856   3.494   9.536
  812WAT     H1 2678   6.834   3.574   9.591
  812WAT     H2 2679   6.776   3.468   9.481
  813WAT      O 2680   2.286   5.407   2.241
  813WAT     H1 2681   2.362   5.424   2.304
  813WAT     H2 2682   2.207   5.462   2.268
  814WAT      O 2683   2.381   2.178   9.212
  814WAT     H1 2684   2.353   2.124   9.133
  814WAT     H2 2685   2.405   2.117   9.287
  815WAT      O 2686   5.527   5.697   9.173
  815WAT     H1 2687   5.540   5.680   9.271
  815WAT     H2 2688   5.456   5.766   9.161
  816WAT      O 2689   7.481   1.930   9.149
  816WAT     H1 2690   7.419   1.999   9.184
  816WAT     H2 2691   7.480   1.850   9.210
  817WAT      O 2692   2.484   9.226   2.882
  817WAT     H1 2693   2.528   9.279   2.809
  817WAT     H2 2694   2.385   9.241   2.879
  818WAT      O 2695   0.865   3.075   9.288
  818WAT     H1 2696   0.896   3.122   9.370
  818WAT     H2 2697   0.938   3.072   9.221
  819WAT      O 2698   3.743   6.799   3.135
  819WAT     H1 2699   3.798   6.717   3.121
  819WAT     H2 2700   3.802   6.879   3.135
  820WAT      O 2701   2.160   4.399   1.838
  820WAT     H1 2702   2.088   4.364   1.778
  820WAT     H2 2703   2.143   4.496   1.857
  821WAT      O 2704   7.570   4.857   3.072
  821WAT     H1 2705   7.657   4.807   3.071
  821WAT     H2 2706   7.501   4.800   3.117
  822WAT      O 2707   3.137   5.531   8.514
  822WAT     H1 2708   3.058   5.499   8.565
  822WAT     H2 2709   3.192   5.592   8.572
  823WAT      O 2710   3.077   4.152   7.773
  823WAT     H1 2711   2.991   4.151   7.723
  823WAT     H2 2712   3.133   4.074   7.745
  824WAT      O 2713   0.904   6.008   5.790
  824WAT     H1 2714   0.975   6.077   5.773
  824WAT     H2 2715   0.844   6.001   5.710
  825WAT      O 2716   7.170   1.661   1.396
  825WAT     H1 2717   7.166   1.735   1.330
  825WAT     H2 2718   7.077   1.627   1.414
  826WAT      O 2719   6.203   7.296   1.218
  826WAT     H1 2720   6.217   7.228   1.146
  826WAT     H2 2721   6.216   7.388   1.181
  827WAT      O 2722   9.615   3.979   8.669
  827WAT     H1 2723   9.695   4.017   8.716
  827WAT     H2 2724   9.554   4.054   8.644
  828WAT      O 2725   8.741   7.280   9.784
  828WAT     H1 2726   8.824   7.242   9.824
  828WAT     H2 2727   8.668   7.280   9.853
  829WAT      O 2728   5.829   2.983   9.249
  829WAT     H1 2729   5.835   3.077   9.284
  829WAT     H2 2730   5.876   2.978   9.161
  830WAT      O 2731   1.239   6.800   7.358
  830WAT     H1 2732   1.144   6.810   7.329
  830WAT     H2 2733   1.293   6.762   7.283
  831WAT      O 2734   0.263   8.347   4.682
  831WAT     H1 2735   0.264   8.403   4.599
  831WAT     H2 2736   0.193   8.381   4.745
  832WAT      O 2737   6.965   7.503   2.804
  832WAT     H1 2738   6.911   7.578   2.765
  832WAT     H2 2739   6.949   7.420   2.751
  833WAT      O 2740   6.084   2.054   6.900
  833WAT     H1 2741   6.174   2.048   6.856
  833WAT     H2 2742   6.096   2.044   6.999
  834WAT      O 2743   8.584   8.865   5.589
  834WAT     H1 2744   8.541   8.775   5.599
  834WAT     H2 2745   8.617   8.895   5.679
  835WAT      O 2746   5.943   6.956   8.802
  835WAT     H1 2747   5.878   6.895   8.849
  835WAT     H2 2748   5.987   7.016   8.868
  836WAT      O 2749   8.519   5.741   3.025
  836WAT     H1 2750   8.587   5.712   3.093
  836WAT     H2 2751   8.528   5.839   3.008
  837WAT      O 2752   4.050   6.980   1.872
  837WAT     H1 2753   4.042   6.972   1.773
  837WAT     H2 2754   3.999   6.905   1.915
  838WAT      O 2755   0.480   5.706   5.542
  838WAT     H1 2756   0.473   5.608   5.558
  838WAT     H2 2757   0.575   5.730   5.522
  839WAT      O 2758   7.160   0.975   3.569
  839WAT     H1 2759   7.093   0.953   3.640
  839WAT     H2 2760   7.222   0.897   3.558
  840WAT      O 2761   5.035   7.599   5.039
  840WAT     H1 2762   5.017   7.696   5.024
  840WAT     H2 2763   5.075   7.585   5.129
  841WAT      O 2764   5.627   9.783   9.208
  841WAT     H1 2765   5.652   9.727   9.288
  841WAT     H2 2766   5.528   9.776   9.193
  842WAT      O 2767   5.419   0.275   4.764
  842WAT     H1 2768   5.413   0.228   4.676
  842WAT     H2 2769   5.499   0.242   4.814
  843WAT      O 2770   5.978   0.023   3.109
  843WAT     H1 2771   5.889   0.064   3.127
  843WAT     H2 2772   5.976  -0.074   3.131
  844WAT      O 2773   2.583   1.003   3.128
  844WAT     H1 2774   2.677   1.037   3.133
  844WAT     H2 2775   2.558   0.986   3.032
  845WAT      O 2776   4.985   9.281   4.310
  845WAT     H1 2777   5.056   9.342   4.343
  845WAT     H2 2778   4.895   9.325   4.320
  846WAT      O 2779   2.628   2.882   7.555
  846WAT     H1 2780   2.655   2.786   7.542
  846WAT     H2 2781   2.701   2.941   7.520
  847WAT      O 2782   6.932   8.259   2.671
  847WAT     H1 2783   6.926   8.161   2.654
  847WAT     H2 2784   6.942   8.308   2.584
  848WAT      O 2785   0.684   0.831   4.320
  848WAT     H1 2786   0.755   0.788   4.377
  848WAT     H2 2787   0.606   0.769   4.311
  849WAT      O 2788   3.271   3.470   9.213
  849WAT     H1 2789   3.355   3.438   9.257
  849WAT     H2 2790   3.256   3.420   9.128
  850WAT      O 2791   4.613   0.777   4.048
  850WAT     H1 2792   4.657   0.862   4.079
  850WAT     H2 2793   4.683   0.710   4.023
  851WAT      O 2794   9.273   0.867   4.299
  851WAT     H1 2795   9.242   0.831   4.387
  851WAT     H2 2796   9.225   0.819   4.225
  852WAT      O 2797   3.409   7.551   5.253
  852WAT     H1 2798   3.346   7.482   5.287
  852WAT     H2 2799   3.359   7.632   5.224
  853WAT      O 2800   8.989   9.754   3.082
  853WAT     H1 2801   9.003   9.656   3.073
  853WAT     H2 2802   8.990   9.779   3.179
  854WAT      O 2803   2.808   8.180   7.600
  854WAT     H1 2804   2.858   8.204   7.517
  854WAT     H2 2805   2.794   8.262   7.656
  855WAT      O 2806   2.470   2.210   1.698
  855WAT     H1 2807   2.463   2.190   1.795
  855WAT     H2 2808   2.503   2.128   1.649
  856WAT      O 2809   7.964   1.072   6.537
  856WAT     H1 2810   8.033   1.117   6.480
  856WAT     H2 2811   7.879   1.062   6.484
  857WAT      O 2812   5.533   0.251   2.990
  857WAT     H1 2813   5.549   0.350   2.986
  857WAT     H2 2814   5.571   0.208   2.908
  858WAT      O 2815   8.939   5.276   4.603
  858WAT     H1 2816   8.905   5.367   4.627
  858WAT     H2 2817   8.881   5.206   4.645
  859WAT      O 2818   6.963   3.340   6.068
  859WAT     H1 2819   6.994   3.245   6.062
  859WAT     H2 2820   7.028   3.399   6.019
  860WAT      O 2821   3.734   8.110   2.840
  860WAT     H1 2822   3.771   8.152   2.758
  860WAT     H2 2823   3.636   8.093   2.828
  861WAT      O 2824   4.089   1.441   9.428
  861WAT     H1 2825   4.000   1.419   9.386
  861WAT     H2 2826   4.086   1.534   9.465
  862WAT      O 2827   5.206   6.571   8.403
  862WAT     H1 2828   5.133   6.601   8.464
  862WAT     H2 2829   5.295   6.589   8.446
  863WAT      O 2830   2.621   9.510   5.536
  863WAT     H1 2831   2.642   9.439   5.469
  863WAT     H2 2832   2.526   9.501   5.565
  864WAT      O 2833   4.606   9.075   1.696
  864WAT     H1 2834   4.616   9.071   1.796
  864WAT     H2 2835   4.573   8.987   1.663
  865WAT      O 2836   0.346   2.238   9.365
  865WAT     H1 2837   0.444   2.239   9.345
  865WAT     H2 2838   0.319   2.147   9.394
  866WAT      O 2839   4.195   9.825   0.204
  866WAT     H1 2840   4.103   9.813   0.166
  866WAT     H2 2841   4.221   9.921   0.196
  867WAT      O 2842   8.802   4.176   4.037
  867WAT     H1 2843   8.796   4.173   3.937
  867WAT     H2 2844   8.781   4.086   4.075
  868WAT      O 2845   1.236   8.510   8.886
  868WAT     H1 2846   1.158   8.510   8.949
  868WAT     H2 2847   1.236   8.596   8.834
  869WAT      O 2848   3.608   0.884   4.494
  869WAT     H1 2849   3.705   0.900   4.475
  869WAT     H2 2850   3.589   0.904   4.591
  870WAT      O 2851   9.606   2.513   8.428
  870WAT     H1 2852   9.624   2.567   8.510
  870WAT     H2 2853   9.507   2.507   8.413
  871WAT      O 2854   4.510   9.432   4.896
  871WAT     H1 2855   4.514   9.498   4.970
  871WAT     H2 2856   4.603   9.405   4.869
  872WAT      O 2857   9.627   3.590   0.440
  872WAT     H1 2858   9.674   3.512   0.400
  872WAT     H2 2859   9.528   3.578   0.429
  873WAT      O 2860   8.218   1.786   5.140
  873WAT     H1 2861   8.206   1.790   5.041
  873WAT     H2 2862   8.178   1.868   5.182
  874WAT      O 2863   7.396   9.306   8.296
  874WAT     H1 2864   7.487   9.275   8.269
  874WAT     H2 2865   7.348   9.231   8.344
  875WAT      O 2866   9.648   2.318   6.311
  875WAT     H1 2867   9.640   2.236   6.369
  875WAT     H2 2868   9.576   2.383   6.336
  876WAT      O 2869   5.141   4.632   6.300
  876WAT     H1 2870   5.109   4.538   6.295
  876WAT     H2 2871   5.086   4.689   6.239
  877WAT      O 2872   7.476   2.952   8.571
  877WAT     H1 2873   7.456   3.000   8.486
  877WAT     H2 2874   7.450   2.856   8.562
  878WAT      O 2875   1.006   4.788   8.095
  878WAT     H1 2876   0.986   4.876   8.051
  878WAT     H2 2877   0.992   4.796   8.194
  879WAT      O 2878   1.896   4.350   4.196
  879WAT     H1 2879   1.987   4.311   4.180
  879WAT     H2 2880   1.877   4.418   4.125
  880WAT      O 2881   2.090   0.793   6.074
  880WAT     H1 2882   2.044   0.704   6.074
  880WAT     H2 2883   2.184   0.782   6.042
  881WAT      O 2884   3.483   6.048   4.593
  881WAT     H1 2885   3.400   6.005   4.557
  881WAT     H2 2886   3.458   6.108   4.669
  882WAT      O 2887   9.616   7.039   1.898
  882WAT     H1 2888   9.614   7.138   1.892
  882WAT     H2 2889   9.626   7.011   1.994
  883WAT      O 2890   5.374   5.104   4.580
  883WAT     H1 2891   5.367   5.194   4.624
  883WAT     H2 2892   5.388   5.034   4.649
  884WAT      O 2893   6.476   5.457   1.295
  884WAT     H1 2894   6.573   5.450   1.320
  884WAT     H2 2895   6.428   5.374   1.324
  885WAT      O 2896   6.396   8.887   1.774
  885WAT     H1 2897   6.494   8.891   1.791
  885WAT     H2 2898   6.377   8.826   1.697
  886WAT      O 2899   5.858   2.800   2.544
  886WAT     H1 2900   5.910   2.842   2.470
  886WAT     H2 2901   5.799   2.728   2.507
  887WAT      O 2902   9.116   4.947   6.518
  887WAT     H1 2903   9.126   5.026   6.579
  887WAT     H2 2904   9.020   4.936   6.494
  888WAT      O 2905   3.203   9.658   0.105
  888WAT     H1 2906   3.237   9.710   0.184
  888WAT     H2 2907   3.115   9.696   0.076
  889WAT      O 2908   0.922   5.880   1.926
  889WAT     H1 2909   0.928   5.975   1.958
  889WAT     H2 2910   0.889   5.822   2.000
  890WAT      O 2911   5.119   1.245   4.431
  890WAT     H1 2912   5.089   1.322   4.488
  890WAT     H2 2913   5.217   1.228   4.447
  891WAT      O 2914   5.625   8.060   5.069
  891WAT     H1 2915   5.538   8.050   5.020
  891WAT     H2 2916   5.630   8.151   5.110
  892WAT      O 2917   7.311   3.829   8.012
  892WAT     H1 2918   7.219   3.848   8.045
  892WAT     H2 2919   7.376   3.838   8.088
  893WAT      O 2920   2.344   4.704   4.470
  893WAT     H1 2921   2.277   4.670   4.404
  893WAT     H2 2922   2.299   4.716   4.559
  894WAT      O 2923   2.478   3.890   6.795
  894WAT     H1 2924   2.532   3.946   6.732
  894WAT     H2 2925   2.464   3.800   6.756
  895WAT      O 2926   8.104   9.515   5.178
  895WAT     H1 2927   8.021   9.545   5.130
  895WAT     H2 2928   8.177   9.501   5.112
  896WAT      O 2929   2.845   7.592   8.235
  896WAT     H1 2930   2.786   7.531   8.183
  896WAT     H2 2931   2.935   7.550   8.247
  897WAT      O 2932   1.184   8.766   6.245
  897WAT     H1 2933   1.117   8.695   6.225
  897WAT     H2 2934   1.272   8.724   6.266
  898WAT      O 2935   5.601   2.381   4.331
  898WAT     H1 2936   5.551   2.312   4.278
  898WAT     H2 2937   5.683   2.408   4.280
  899WAT      O 2938   8.452   4.143   3.766
  899WAT     H1 2939   8.386   4.085   3.815
  899WAT     H2 2940   8.429   4.145   3.669
  900WAT      O 2941   5.454   0.376   8.834
  900WAT     H1 2942   5.406   0.419   8.757
  900WAT     H2 2943   5.394   0.310   8.878
  901WAT      O 2944   8.770   3.293   6.812
  901WAT     H1 2945   8.685   3.344   6.796
  901WAT     H2 2946   8.774   3.265   6.908
  902WAT      O 2947   0.743   7.268   3.847
  902WAT     H1 2948   0.828   7.257   3.796
  902WAT     H2 2949   0.764   7.282   3.944
  903WAT      O 2950   1.963   8.970   2.648
  903WAT     H1 2951   2.028   9.017   2.588
  903WAT     H2 2952   2.002   8.961   2.739
  904WAT      O 2953   9.073   3.588   2.080
  904WAT     H1 2954   9.101   3.570   1.985
  904WAT     H2 2955   9.116   3.672   2.112
  905WAT      O 2956   2.460   3.239   0.019
  905WAT     H1 2957   2.475   3.338   0.017
  905WAT     H2 2958   2.483   3.204   0.110
  906WAT      O 2959   4.521   2.130   5.051
  906WAT     H1 2960   4.481   2.151   4.962
  906WAT     H2 2961   4.513   2.032   5.069
  907WAT      O 2962   8.175   1.615   2.192
  907WAT     H1 2963   8.155   1.708   2.222
  907WAT     H2 2964   8.095   1.557   2.208
  908WAT      O 2965   9.320   2.091   6.621
  908WAT     H1 2966   9.281   2.105   6.712
  908WAT     H2 2967   9.264   2.138   6.553
  909WAT      O 2968   8.015   6.569   0.473
  909WAT     H1 2969   8.027   6.530   0.564
  909WAT     H2 2970   8.019   6.669   0.479
  910WAT      O 2971   6.082   9.784   0.315
  910WAT     H1 2972   6.085   9.747   0.223
  910WAT     H2 2973   5.987   9.805   0.340
  911WAT      O 2974   2.118   2.359   7.761
  911WAT     H1 2975   2.185   2.328   7.694
  911WAT     H2 2976   2.107   2.290   7.832
  912WAT      O 2977   9.253   1.565   1.173
  912WAT     H1 2978   9.237   1.472   1.205
  912WAT     H2 2979   9.261   1.565   1.074
  913WAT      O 2980   8.303   9.825   5.316
  913WAT     H1 2981   8.276   9.754   5.381
  913WAT     H2 2982   8.401   9.819   5.298
  914WAT      O 2983   0.296   8.901   1.695
  914WAT     H1 2984   0.372   8.917   1.633
  914WAT     H2 2985   0.328   8.849   1.774
  915WAT      O 2986   6.877   2.763   2.102
  915WAT     H1 2987   6.976   2.764   2.117
  915WAT     H2 2988   6.829   2.758   2.189
  916WAT      O 2989   6.029   6.156   6.308
  916WAT     H1 2990   6.047   6.058   6.322
  916WAT     H2 2991   5.987   6.194   6.390
  917WAT      O 2992   9.050   0.870   6.529
  917WAT     H1 2993   8.965   0.833   6.566
  917WAT     H2 2994   9.127   0.840   6.585
  918WAT      O 2995   8.421   4.381   1.963
  918WAT     H1 2996   8.396   4.344   2.052
  918WAT     H2 2997   8.465   4.470   1.975
  919WAT      O 2998   4.937   9.175   8.455
  919WAT     H1 2999   4.908   9.101   8.395
  919WAT     H2 3000   4.870   9.249   8.452
  920WAT      O 3001   8.334   7.961   5.928
  920WAT     H1 3002   8.297   7.879   5.884
  920WAT     H2 3003   8.412   7.995   5.875
  921WAT      O 3004   2.828   6.548   1.018
  921WAT     H1 3005   2.783   6.480   1.076
  921WAT     H2 3006   2.834   6.635   1.068
  922WAT      O 3007   6.554   7.287   0.405
  922WAT     H1 3008   6.595   7.367   0.449
  922WAT     H2 3009   6.600   7.204   0.437
  923WAT      O 3010   0.246   0.877   8.849
  923WAT     H1 3011   0.319   0.837   8.795
  923WAT     H2 3012   0.164   0.820   8.842
  924WAT      O 3013   9.463   2.023   4.817
  924WAT     H1 3014   9.389   1.994   4.877
  924WAT     H2 3015   9.551   2.011   4.863
  925WAT      O 3016   4.424   2.300   7.361
  925WAT     H1 3017   4.414   2.258   7.271
  925WAT     H2 3018   4.341   2.352   7.382
  926WAT      O 3019   2.183   3.988   3.679
  926WAT     H1 3020   2.160   3.999   3.775
  926WAT     H2 3021   2.228   3.900   3.665
  927WAT      O 3022   8.775   2.489   5.546
  927WAT     H1 3023   8.844   2.546   5.591
  927WAT     H2 3024   8.703   2.547   5.508
  928WAT      O 3025   8.616   6.870   7.288
  928WAT     H1 3026   8.640   6.830   7.376
  928WAT     H2 3027   8.696   6.869   7.228
  929WAT      O 3028   2.662   9.088   7.514
  929WAT     H1 3029   2.607   9.053   7.438
  929WAT     H2 3030   2.693   9.180   7.492
  930WAT      O 3031   7.455   8.173   5.305
  930WAT     H1 3032   7.435   8.271   5.304
  930WAT     H2 3033   7.545   8.157   5.264
  931WAT      O 3034   0.527   8.919   9.411
  931WAT     H1 3035   0.575   8.964   9.336
  931WAT     H2 3036   0.459   8.856   9.374
  932WAT      O 3037   7.253   2.473   0.979
  932WAT     H1 3038   7.332   2.502   0.925
  932WAT     H2 3039   7.195   2.553   0.997
  933WAT      O 3040   6.126   1.179   0.468
  933WAT     H1 3041   6.168   1.159   0.556
  933WAT     H2 3042   6.174   1.130   0.395
  934WAT      O 3043   6.024   2.770   1.485
  934WAT     H1 3044   5.991   2.864   1.474
  934WAT     H2 3045   5.990   2.733   1.571
  935WAT      O 3046   5.849   8.077   6.384
  935WAT     H1 3047   5.818   8.082   6.479
  935WAT     H2 3048   5.908   8.156   6.364
  936WAT      O 3049   6.784   2.552   4.978
  936WAT     H1 3050   6.722   2.474   4.981
  936WAT     H2 3051   6.817   2.572   5.071
  937WAT      O 3052   5.497   5.348   5.305
  937WAT     H1 3053   5.458   5.260   5.333
  937WAT     H2 3054   5.597   5.342   5.311
  938WAT      O 3055   8.056   2.677   7.858
  938WAT     H1 3056   8.081   2.641   7.768
  938WAT     H2 3057   7.956   2.672   7.869
  939WAT      O 3058   2.615   0.855   6.413
  939WAT     H1 3059   2.705   0.823   6.382
  939WAT     H2 3060   2.626   0.934   6.473
  940WAT      O 3061   1.678   9.162   3.223
  940WAT     H1 3062   1.624   9.128   3.300
  940WAT     H2 3063   1.621   9.217   3.163
  941WAT      O 3064   2.933   5.323   3.736
  941WAT     H1 3065   2.885   5.241   3.705
  941WAT     H2 3066   2.875   5.374   3.799
  942WAT      O 3067   7.683   2.030   4.251
  942WAT     H1 3068   7.682   1.949   4.310
  942WAT     H2 3069   7.774   2.040   4.210
  943WAT      O 3070   4.935   6.403   3.382
  943WAT     H1 3071   4.977   6.486   3.417
  943WAT     H2 3072   4.986   6.323   3.414
  944WAT      O 3073   6.670   0.849   4.149
  944WAT     H1 3074   6.614   0.794   4.211
  944WAT     H2 3075   6.707   0.927   4.198
  945WAT      O 3076   5.557   7.863   1.413
  945WAT     H1 3077   5.640   7.902   1.372
  945WAT     H2 3078   5.532   7.780   1.363
  946WAT      O 3079   2.045   0.764   0.232
  946WAT     H1 3080   2.069   0.683   0.287
  946WAT     H2 3081   2.097   0.763   0.147
  947WAT      O 3082   4.113   6.985   2.362
  947WAT     H1 3083   4.172   6.925   2.308
  947WAT     H2 3084   4.167   7.027   2.435
  948WAT      O 3085   6.585   7.518   1.729
  948WAT     H1 3086   6.552   7.574   1.805
  948WAT     H2 3087   6.518   7.520   1.655
  949WAT      O 3088   2.893   5.767   1.138
  949WAT     H1 3089   2.856   5.682   1.175
  949WAT     H2 3090   2.827   5.806   1.073
  950WAT      O 3091   8.297   6.281   2.829
  950WAT     H1 3092   8.315   6.232   2.914
  950WAT     H2 3093   8.358   6.248   2.757
  951WAT      O 3094   4.361   8.203   7.933
  951WAT     H1 3095   4.338   8.121   7.881
  951WAT     H2 3096   4.430   8.181   8.002
  952WAT      O 3097   0.346   0.842   1.439
  952WAT     H1 3098   0.368   0.798   1.526
  952WAT     H2 3099   0.266   0.798   1.398
  953WAT      O 3100   6.156   2.674   0.019
  953WAT     H1 3101   6.208   2.710  -0.059
  953WAT     H2 3102   6.091   2.743   0.050
  954WAT      O 3103   2.404   5.284   8.015
  954WAT     H1 3104   2.476   5.285   7.946
  954WAT     H2 3105   2.364   5.375   8.024
  955WAT      O 3106   9.472   1.010   6.034
  955WAT     H1 3107   9.466   0.967   6.124
  955WAT     H2 3108   9.453   1.108   6.043
  956WAT      O 3109   9.311   4.848   9.266
  956WAT     H1 3110   9.222   4.859   9.222
  956WAT     H2 3111   9.359   4.935   9.267
  957WAT      O 3112   0.253   4.792   8.993
  957WAT     H1 3113   0.271   4.876   8.942
  957WAT     H2 3114   0.185   4.810   9.064
  958WAT      O 3115   0.133   3.716   5.336
  958WAT     H1 3116   0.101   3.757   5.250
  958WAT     H2 3117   0.137   3.616   5.325
  959WAT      O 3118   6.258   2.520   9.276
  959WAT     H1 3119   6.172   2.471   9.295
  959WAT     H2 3120   6.335   2.461   9.298
  960WAT      O 3121   3.404   2.847   7.213
  960WAT     H1 3122   3.352   2.818   7.133
  960WAT     H2 3123   3.409   2.947   7.215
  961WAT      O 3124   1.649   1.358   6.497
  961WAT     H1 3125   1.739   1.399   6.511
  961WAT     H2 3126   1.589   1.423   6.452
  962WAT      O 3127   8.290   1.673   1.424
  962WAT     H1 3128   8.325   1.750   1.477
  962WAT     H2 3129   8.196   1.653   1.452
  963WAT      O 3130   9.507   0.882   5.078
  963WAT     H1 3131   9.497   0.783   5.090
  963WAT     H2 3132   9.443   0.914   5.008
  964WAT      O 3133   3.814   2.992   8.910
  964WAT     H1 3134   3.907   2.982   8.945
  964WAT     H2 3135   3.748   2.969   8.981
  965WAT      O 3136   6.240   2.716   0.600
  965WAT     H1 3137   6.196   2.727   0.689
  965WAT     H2 3138   6.217   2.793   0.542
  966WAT      O 3139   2.894   4.369   3.742
  966WAT     H1 3140   2.847   4.404   3.823
  966WAT     H2 3141   2.844   4.396   3.660
  967WAT      O 3142   7.943   9.448   3.116
  967WAT     H1 3143   7.951   9.542   3.083
  967WAT     H2 3144   8.016   9.392   3.077
  968WAT      O 3145   4.810   5.818   1.641
  968WAT     H1 3146   4.857   5.827   1.729
  968WAT     H2 3147   4.873   5.780   1.573
  969WAT      O 3148   7.511   3.790   0.366
  969WAT     H1 3149   7.582   3.749   0.308
  969WAT     H2 3150   7.468   3.866   0.317
  970WAT      O 3151   0.473   3.928   0.839
  970WAT     H1 3152   0.492   3.940   0.936
  970WAT     H2 3153   0.527   3.851   0.804
  971WAT      O 3154   1.351   6.686   2.417
  971WAT     H1 3155   1.382   6.727   2.332
  971WAT     H2 3156   1.358   6.586   2.410
  972WAT      O 3157   2.702   0.066   0.354
  972WAT     H1 3158   2.678   0.126   0.277
  972WAT     H2 3159   2.620   0.047   0.408
  973WAT      O 3160   6.134   0.321   7.668
  973WAT     H1 3161   6.053   0.293   7.719
  973WAT     H2 3162   6.115   0.319   7.570
  974WAT      O 3163   8.856   5.463   7.755
  974WAT     H1 3164   8.818   5.441   7.666
  974WAT     H2 3165   8.889   5.558   7.756
  975WAT      O 3166   8.056   3.919   3.754
  975WAT     H1 3167   8.065   3.841   3.692
  975WAT     H2 3168   7.967   3.915   3.799
  976WAT      O 3169   6.445   1.743   6.902
  976WAT     H1 3170   6.474   1.709   6.992
  976WAT     H2 3171   6.505   1.707   6.831
  977WAT      O 3172   1.266   1.455   6.252
  977WAT     H1 3173   1.293   1.551   6.257
  977WAT     H2 3174   1.343   1.401   6.218
  978WAT      O 3175   5.115   1.892   7.225
  978WAT     H1 3176   5.107   1.989   7.200
  978WAT     H2 3177   5.043   1.840   7.179
  979WAT      O 3178   7.976   3.759   9.783
  979WAT     H1 3179   8.044   3.782   9.853
  979WAT     H2 3180   8.021   3.715   9.706
  980WAT      O 3181   9.122   5.374   7.808
  980WAT     H1 3182   9.163   5.323   7.884
  980WAT     H2 3183   9.026   5.392   7.828
  981WAT      O 3184   7.495   0.362   8.042
  981WAT     H1 3185   7.520   0.268   8.019
  981WAT     H2 3186   7.397   0.368   8.060
  982WAT      O 3187   4.071   8.148   6.303
  982WAT     H1 3188   4.147   8.213   6.304
  982WAT     H2 3189   3.991   8.191   6.263
  983WAT      O 3190   4.842   5.882   3.119
  983WAT     H1 3191   4.814   5.948   3.049
  983WAT     H2 3192   4.811   5.790   3.093
  984WAT      O 3193   7.981   6.756   5.515
  984WAT     H1 3194   8.003   6.663   5.485
  984WAT     H2 3195   7.895   6.785   5.472
  985WAT      O 3196   3.857   4.086   6.774
  985WAT     H1 3197   3.805   4.171   6.781
  985WAT     H2 3198   3.885   4.056   6.865
  986WAT      O 3199   4.585   9.474   6.925
  986WAT     H1 3200   4.512   9.411   6.953
  986WAT     H2 3201   4.642   9.495   7.004
  987WAT      O 3202   2.356   8.736   8.812
  987WAT     H1 3203   2.396   8.671   8.748
  987WAT     H2 3204   2.280   8.692   8.860
  988WAT      O 3205   2.944   7.453   4.764
  988WAT     H1 3206   2.872   7.422   4.701
  988WAT     H2 3207   2.996   7.374   4.796
  989WAT      O 3208   2.900   4.901   0.162
  989WAT     H1 3209   2.989   4.887   0.204
  989WAT     H2 3210   2.886   4.835   0.088
  990WAT      O 3211   7.015   2.038   5.554
  990WAT     H1 3212   6.960   1.996   5.482
  990WAT     H2 3213   7.100   1.987   5.566
  991WAT      O 3214   2.604   0.586   5.788
  991WAT     H1 3215   2.588   0.631   5.701
  991WAT     H2 3216   2.676   0.518   5.778
  992WAT      O 3217   7.711   5.764   6.690
  992WAT     H1 3218   7.743   5.821   6.615
  992WAT     H2 3219   7.705   5.669   6.658
  993WAT      O 3220   0.453   1.084   1.571
  993WAT     H1 3221   0.529   1.044   1.623
  993WAT     H2 3222   0.405   1.013   1.521
  994WAT      O 3223   8.505   1.466   5.102
  994WAT     H1 3224   8.551   1.555   5.106
  994WAT     H2 3225   8.538   1.415   5.022
  995WAT      O 3226   8.832   1.279   0.589
  995WAT     H1 3227   8.904   1.303   0.654
  995WAT     H2 3228   8.767   1.216   0.632
  996WAT      O 3229   2.691   0.778   7.788
  996WAT     H1 3230   2.690   0.878   7.784
  996WAT     H2 3231   2.601   0.744   7.816
  997WAT      O 3232   8.741   9.176   2.734
  997WAT     H1 3233   8.747   9.245   2.662
  997WAT     H2 3234   8.650   9.179   2.776
  998WAT      O 3235   6.634   7.732   7.171
  998WAT     H1 3236   6.666   7.640   7.151
  998WAT     H2 3237   6.572   7.762   7.098
  999WAT      O 3238   2.735   0.551   6.637
  999WAT     H1 3239   2.739   0.501   6.723
  999WAT     H2 3240   2.651   0.527   6.589
 1000WAT      O 3241   8.385   2.232   2.525
 1000WAT     H1 3242   8.376   2.137   2.494
 1000WAT     H2 3243   8.314   2.288   2.482
 1001WAT      O 3244   0.471   5.507   4.488
 1001WAT     H1 3245   0.407   5.433   4.471
 1001WAT     H2 3246   0.492   5.511   4.586
 1002WAT      O 3247   7.088   3.994   9.454
 1002WAT     H1 3248   7.163   3.967   9.514
 1002WAT     H2 3249   7.011   3.931   9.467
 1003WAT      O 3250   7.496   9.491   1.958
 1003WAT     H1 3251   7.425   9.489   2.028
 1003WAT     H2 3252   7.462   9.450   1.874
 1004WAT      O 3253   1.792   7.864   3.483
 1004WAT     H1 3254   1.844   7.786   3.449
 1004WAT     H2 3255   1.758   7.844   3.575
 1005WAT      O 3256   1.884   2.502   0.681
 1005WAT     H1 3257   1.851   2.446   0.757
 1005WAT     H2 3258   1.816   2.572   0.660
 1006WAT      O 3259   9.260   5.090   4.091
 1006WAT     H1 3260   9.304   5.079   4.002
 1006WAT     H2 3261   9.328   5.115   4.160
 1007WAT      O 3262   7.670   4.997   9.706
 1007WAT     H1 3263   7.705   4.911   9.741
 1007WAT     H2 3264   7.580   5.015   9.746
 1008WAT      O 3265   4.668   5.599   1.582
 1008WAT     H1 3266   4.684   5.685   1.631
 1008WAT     H2 3267   4.753   5.547   1.578
 1009WAT      O 3268   3.913   9.641   4.172
 1009WAT     H1 3269   3.870   9.657   4.083
 1009WAT     H2 3270   3.914   9.543   4.192
 1010WAT      O 3271   3.687   7.128   3.482
 1010WAT     H1 3272   3.600   7.153   3.524
 1010WAT     H2 3273   3.680   7.036   3.443
 1011WAT      O 3274   1.037   2.884   9.826
 1011WAT     H1 3275   1.123   2.845   9.856
 1011WAT     H2 3276   1.050   2.981   9.803
 1012WAT      O 3277   6.854   5.766   2.168
 1012WAT     H1 3278   6.945   5.798   2.144
 1012WAT     H2 3279   6.831   5.796   2.261
 1013WAT      O 3280   7.699   7.724   4.107
 1013WAT     H1 3281   7.772   7.787   4.136
 1013WAT     H2 3282   7.655   7.686   4.188
 1014WAT      O 3283   1.942   7.380   9.000
 1014WAT     H1 3284   2.006   7.325   9.054
 1014WAT     H2 3285   1.968   7.375   8.904
 1015WAT      O 3286   9.878   3.944   4.690
 1015WAT     H1 3287   9.794   3.937   4.744
 1015WAT     H2 3288   9.893   4.039   4.664
 1016WAT      O 3289   2.712   5.773   8.882
 1016WAT     H1 3290   2.787   5.707   8.887
 1016WAT     H2 3291   2.690   5.792   8.786
 1017WAT      O 3292   8.652   5.016   6.536
 1017WAT     H1 3293   8.724   4.980   6.477
 1017WAT     H2 3294   8.565   4.970   6.516
 1018WAT      O 3295   4.593   9.494   3.004
 1018WAT     H1 3296   4.577   9.543   2.918
 1018WAT     H2 3297   4.613   9.398   2.984
 1019WAT      O 3298   6.968   4.732   8.954
 1019WAT     H1 3299   7.050   4.774   8.994
 1019WAT     H2 3300   6.996   4.665   8.885
 1020WAT      O 3301   6.088   7.605   6.309
 1020WAT     H1 3302   6.071   7.621   6.406
 1020WAT     H2 3303   6.061   7.686   6.257
 1021WAT      O 3304   1.709   3.693   0.690
 1021WAT     H1 3305   1.717   3.597   0.714
 1021WAT     H2 3306   1.615   3.712   0.662
 1022WAT      O 3307   0.001   1.063   1.518
 1022WAT     H1 3308   0.077   1.082   1.457
 1022WAT     H2 3309  -0.012   1.140   1.580
 1023WAT      O 3310   9.151   0.029   2.493
 1023WAT     H1 3311   9.064   0.080   2.489
 1023WAT     H2 3312   9.216   0.071   2.430
 1024WAT      O 3313   3.665   0.864   9.840
 1024WAT     H1 3314   3.672   0.960   9.870
 1024WAT     H2 3315   3.725   0.850   9.761
 1025WAT      O 3316   4.960   7.428   0.371
 1025WAT     H1 3317   4.924   7.496   0.434
 1025WAT     H2 3318   4.887   7.396   0.311
 1026WAT      O 3319   3.174   0.873   8.067
 1026WAT     H1 3320   3.161   0.825   7.980
 1026WAT     H2 3321   3.086   0.881   8.114
 1027WAT      O 3322   8.240   9.451   2.809
 1027WAT     H1 3323   8.202   9.371   2.855
 1027WAT     H2 3324   8.257   9.429   2.713
 1028WAT      O 3325   9.789   2.538   1.706
 1028WAT     H1 3326   9.825   2.558   1.614
 1028WAT     H2 3327   9.866   2.520   1.768
 1029WAT      O 3328   7.459   9.074   7.023
 1029WAT     H1 3329   7.475   9.149   7.087
 1029WAT     H2 3330   7.431   9.112   6.934
 1030WAT      O 3331   1.223   3.576   7.419
 1030WAT     H1 3332   1.140   3.578   7.476
 1030WAT     H2 3333   1.213   3.640   7.344
 1031WAT      O 3334   4.413   6.807   3.962
 1031WAT     H1 3335   4.464   6.817   3.877
 1031WAT     H2 3336   4.445   6.725   4.010
 1032WAT      O 3337   9.547   3.111   7.702
 1032WAT     H1 3338   9.510   3.202   7.717
 1032WAT     H2 3339   9.485   3.043   7.742
 1033WAT      O 3340   8.072   5.620   2.640
 1033WAT     H1 3341   8.037   5.697   2.694
 1033WAT     H2 3342   8.040   5.629   2.546
 1034WAT      O 3343   0.182   3.251   2.832
 1034WAT     H1 3344   0.266   3.268   2.884
 1034WAT     H2 3345   0.205   3.240   2.735
 1035WAT      O 3346   2.337   0.806   5.945
 1035WAT     H1 3347   2.437   0.813   5.943
 1035WAT     H2 3348   2.303   0.787   5.853
 1036WAT      O 3349   7.757   3.688   1.238
 1036WAT     H1 3350   7.760   3.591   1.264
 1036WAT     H2 3351   7.845   3.731   1.258
 1037WAT      O 3352   9.699   2.965   1.228
 1037WAT     H1 3353   9.756   2.917   1.162
 1037WAT     H2 3354   9.648   2.899   1.283
 1038WAT      O 3355   5.174   7.758   4.133
 1038WAT     H1 3356   5.207   7.780   4.041
 1038WAT     H2 3357   5.251   7.726   4.189
 1039WAT      O 3358   4.425   6.952   4.262
 1039WAT     H1 3359   4.457   6.980   4.171
 1039WAT     H2 3360   4.418   7.033   4.321
 1040WAT      O 3361   0.751   3.420   0.899
 1040WAT     H1 3362   0.696   3.382   0.825
 1040WAT     H2 3363   0.696   3.423   0.983
 1041WAT      O 3364   7.390   4.677   1.709
 1041WAT     H1 3365   7.471   4.627   1.681
 1041WAT     H2 3366   7.417   4.758   1.761
 1042WAT      O 3367   5.312   0.276   3.761
 1042WAT     H1 3368   5.228   0.223   3.776
 1042WAT     H2 3369   5.363   0.283   3.847
 1043WAT      O 3370   2.440   4.468   9.771
 1043WAT     H1 3371   2.395   4.449   9.859
 1043WAT     H2 3372   2.524   4.520   9.786
 1044WAT      O 3373   3.866   8.686   5.247
 1044WAT     H1 3374   3.859   8.785   5.239
 1044WAT     H2 3375   3.832   8.657   5.337
 1045WAT      O 3376   6.345   6.423   8.463
 1045WAT     H1 3377   6.255   6.381   8.473
 1045WAT     H2 3378   6.408   6.382   8.529
 1046WAT      O 3379   7.109   6.731   9.477
 1046WAT     H1 3380   7.026   6.758   9.428
 1046WAT     H2 3381   7.165   6.673   9.417
 1047WAT      O 3382   9.887   5.352   9.378
 1047WAT     H1 3383   9.870   5.272   9.435
 1047WAT     H2 3384   9.811   5.366   9.315
 1048WAT      O 3385   3.677   6.237   0.665
 1048WAT     H1 3386   3.700   6.303   0.737
 1048WAT     H2 3387   3.746   6.165   0.662
 1049WAT      O 3388   5.199   2.446   9.005
 1049WAT     H1 3389   5.218   2.369   9.067
 1049WAT     H2 3390   5.105   2.439   8.971
 1050WAT      O 3391   9.700   4.295   9.800
 1050WAT     H1 3392   9.684   4.326   9.893
 1050WAT     H2 3393   9.619   4.246   9.767
 1051WAT      O 3394   1.970   1.410   9.032
 1051WAT     H1 3395   1.898   1.340   9.027
 1051WAT     H2 3396   2.048   1.382   8.976
 1052WAT      O 3397   2.100   5.115   4.004
 1052WAT     H1 3398   2.108   5.171   3.921
 1052WAT     H2 3399   2.135   5.167   4.082
 1053WAT      O 3400   8.024   3.927   7.410
 1053WAT     H1 3401   8.121   3.918   7.387
 1053WAT     H2 3402   7.973   3.850   7.373
 1054WAT      O 3403   3.335   6.344   6.882
 1054WAT     H1 3404   3.396   6.392   6.945
 1054WAT     H2 3405   3.350   6.246   6.890
 1055WAT      O 3406   2.259   8.459   8.849
 1055WAT     H1 3407   2.254   8.419   8.940
 1055WAT     H2 3408   2.297   8.391   8.786
 1056WAT      O 3409   5.206   6.117   3.765
 1056WAT     H1 3410   5.303   6.115   3.791
 1056WAT     H2 3411   5.174   6.024   3.750
 1057WAT      O 3412   7.058   4.831   1.599
 1057WAT     H1 3413   7.080   4.883   1.681
 1057WAT     H2 3414   7.116   4.861   1.524
 1058WAT      O 3415   3.590   2.495   4.238
 1058WAT     H1 3416   3.609   2.419   4.300
 1058WAT     H2 3417   3.567   2.577   4.291
 1059WAT      O 3418   3.738   4.847   6.921
 1059WAT     H1 3419   3.683   4.930   6.914
 1059WAT     H2 3420   3.833   4.871   6.940
 1060WAT      O 3421   1.185   4.774   9.098
 1060WAT     H1 3422   1.223   4.687   9.067
 1060WAT     H2 3423   1.255   4.823   9.151
 1061WAT      O 3424   8.768   3.094   0.525
 1061WAT     H1 3425   8.738   3.036   0.601
 1061WAT     H2 3426   8.781   3.187   0.558
 1062WAT      O 3427   6.995   5.410   7.219
 1062WAT     H1 3428   6.905   5.394   7.178
 1062WAT     H2 3429   7.059   5.440   7.148
 1063WAT      O 3430   2.655   0.117   1.565
 1063WAT     H1 3431   2.723   0.165   1.510
 1063WAT     H2 3432   2.563   0.148   1.541
 1064WAT      O 3433   8.718   4.520   9.086
 1064WAT     H1 3434   8.810   4.551   9.107
 1064WAT     H2 3435   8.670   4.497   9.172
 1065WAT      O 3436   8.127   0.542   8.467
 1065WAT     H1 3437   8.210   0.594   8.486
 1065WAT     H2 3438   8.124   0.517   8.370
 1066WAT      O 3439   1.403   8.755   4.351
 1066WAT     H1 3440   1.312   8.797   4.354
 1066WAT     H2 3441   1.468   8.817   4.308
 1067WAT      O 3442   9.451   0.355   2.501
 1067WAT     H1 3443   9.439   0.276   2.441
 1067WAT     H2 3444   9.540   0.349   2.547
 1068WAT      O 3445   3.261   5.766   6.915
 1068WAT     H1 3446   3.182   5.718   6.953
 1068WAT     H2 3447   3.295   5.832   6.983
 1069WAT      O 3448   7.671   7.457   6.692
 1069WAT     H1 3449   7.606   7.512   6.639
 1069WAT     H2 3450   7.659   7.475   6.789
 1070WAT      O 3451   7.052   5.605   7.836
 1070WAT     H1 3452   7.122   5.654   7.888
 1070WAT     H2 3453   7.094   5.530   7.786
 1071WAT      O 3454   3.117   5.858   3.321
 1071WAT     H1 3455   3.019   5.875   3.334
 1071WAT     H2 3456   3.152   5.804   3.397
 1072WAT      O 3457   9.857   1.468   2.190
 1072WAT     H1 3458   9.870   1.399   2.261
 1072WAT     H2 3459   9.904   1.552   2.216
 1073WAT      O 3460   2.465   8.825   5.631
 1073WAT     H1 3461   2.399   8.751   5.638
 1073WAT     H2 3462   2.504   8.827   5.539
 1074WAT      O 3463   3.391   4.445   8.721
 1074WAT     H1 3464   3.327   4.370   8.734
 1074WAT     H2 3465   3.365   4.499   8.642
 1075WAT      O 3466   9.675   0.302   9.128
 1075WAT     H1 3467   9.584   0.298   9.088
 1075WAT     H2 3468   9.741   0.263   9.063
 1076WAT      O 3469   8.633   5.389   3.633
 1076WAT     H1 3470   8.588   5.345   3.555
 1076WAT     H2 3471   8.651   5.321   3.704
 1077WAT      O 3472   9.647   5.654   8.923
 1077WAT     H1 3473   9.744   5.675   8.912
 1077WAT     H2 3474   9.593   5.711   8.861
 1078WAT      O 3475   8.637   7.329   6.965
 1078WAT     H1 3476   8.671   7.301   7.055
 1078WAT     H2 3477   8.538   7.336   6.967
 1079WAT      O 3478   7.552   8.993   5.838
 1079WAT     H1 3479   7.573   8.990   5.935
 1079WAT     H2 3480   7.622   8.944   5.787
 1080WAT      O 3481   6.779   8.173   5.472
 1080WAT     H1 3482   6.691   8.127   5.458
 1080WAT     H2 3483   6.852   8.118   5.433
 1081WAT      O 3484   7.411   9.077   1.795
 1081WAT     H1 3485   7.433   9.069   1.698
 1081WAT     H2 3486   7.406   9.174   1.820
 1082WAT      O 3487   2.923   8.764   8.589
 1082WAT     H1 3488   2.878   8.848   8.559
 1082WAT     H2 3489   2.879   8.730   8.671
 1083WAT      O 3490   0.662   0.661   3.956
 1083WAT     H1 3491   0.589   0.636   4.019
 1083WAT     H2 3492   0.747   0.617   3.984
 1084WAT      O 3493   7.687   5.980   7.884
 1084WAT     H1 3494   7.756   5.953   7.817
 1084WAT     H2 3495   7.606   6.015   7.837
 1085WAT      O 3496   2.000   2.951   9.408
 1085WAT     H1 3497   2.003   3.004   9.323
 1085WAT     H2 3498   2.072   2.881   9.406
 1086WAT      O 3499   4.732   6.588   2.105
 1086WAT     H1 3500   4.764   6.682   2.118
 1086WAT     H2 3501   4.668   6.585   2.028
 1087WAT      O 3502   4.831   1.152   3.326
 1087WAT     H1 3503   4.879   1.188   3.246
 1087WAT     H2 3504   4.806   1.228   3.387
 1088WAT      O 3505   4.901   0.138   7.962
 1088WAT     H1 3506   4.846   0.054   7.958
 1088WAT     H2 3507   4.844   0.214   7.994
 1089WAT      O 3508   6.195   7.451   6.954
 1089WAT     H1 3509   6.164   7.402   7.036
 1089WAT     H2 3510   6.118   7.461   6.891
 1090WAT      O 3511   8.054   8.261   4.424
 1090WAT     H1 3512   8.018   8.315   4.501
 1090WAT     H2 3513   8.109   8.320   4.366
 1091WAT      O 3514   8.602   1.365   0.107
 1091WAT     H1 3515   8.668   1.294   0.083
 1091WAT     H2 3516   8.622   1.448   0.056
 1092WAT      O 3517   3.741   5.281   7.792
 1092WAT     H1 3518   3.715   5.320   7.703
 1092WAT     H2 3519   3.689   5.325   7.864
 1093WAT      O 3520   0.620   8.705   8.461
 1093WAT     H1 3521   0.532   8.656   8.460
 1093WAT     H2 3522   0.677   8.673   8.386
 1094WAT      O 3523   9.114   1.992   3.408
 1094WAT     H1 3524   9.200   1.943   3.392
 1094WAT     H2 3525   9.058   1.988   3.325
 1095WAT      O 3526   4.845   9.835   9.200
 1095WAT     H1 3527   4.857   9.783   9.284
 1095WAT     H2 3528   4.828   9.773   9.124
 1096WAT      O 3529   5.436   9.444   0.530
 1096WAT     H1 3530   5.448   9.349   0.499
 1096WAT     H2 3531   5.343   9.473   0.511
 1097WAT      O 3532   7.282   1.783   2.293
 1097WAT     H1 3533   7.223   1.856   2.258
 1097WAT     H2 3534   7.269   1.774   2.392
 1098WAT      O 3535   1.294   3.093   0.308
 1098WAT     H1 3536   1.357   3.028   0.264
 1098WAT     H2 3537   1.271   3.166   0.243
 1099WAT      O 3538   5.925   5.019   9.884
 1099WAT     H1 3539   5.900   4.923   9.870
 1099WAT     H2 3540   6.018   5.035   9.849
 1100WAT      O 3541   5.887   3.689   5.572
 1100WAT     H1 3542   5.806   3.747   5.563
 1100WAT     H2 3543   5.963   3.743   5.608
 1101WAT      O 3544   5.914   2.175   8.648
 1101WAT     H1 3545   5.990   2.120   8.614
 1101WAT     H2 3546   5.863   2.214   8.572
 1102WAT      O 3547   9.347   0.738   7.142
 1102WAT     H1 3548   9.268   0.716   7.199
 1102WAT     H2 3549   9.415   0.786   7.197
 1103WAT      O 3550   6.134   8.050   6.327
 1103WAT     H1 3551   6.222   8.002   6.327
 1103WAT     H2 3552   6.067   7.996   6.275
 1104WAT      O 3553   8.247   8.147   7.987
 1104WAT     H1 3554   8.301   8.090   8.049
 1104WAT     H2 3555   8.288   8.144   7.896
 1105WAT      O 3556   0.263   7.330   0.856
 1105WAT     H1 3557   0.289   7.306   0.950
 1105WAT     H2 3558   0.324   7.402   0.822
 1106WAT      O 3559   9.673   4.602   8.090
 1106WAT     H1 3560   9.647   4.590   8.186
 1106WAT     H2 3561   9.772   4.609   8.083
 1107WAT      O 3562   4.605   9.229   3.685
 1107WAT     H1 3563   4.611   9.194   3.779
 1107WAT     H2 3564   4.678   9.190   3.630
 1108WAT      O 3565   2.195   1.443   6.264
 1108WAT     H1 3566   2.256   1.365   6.250
 1108WAT     H2 3567   2.202   1.474   6.359
 1109WAT      O 3568   2.111   1.906   8.217
 1109WAT     H1 3569   2.136   1.833   8.281
 1109WAT     H2 3570   2.088   1.866   8.129
 1110WAT      O 3571   9.580   7.342   4.274
 1110WAT     H1 3572   9.596   7.343   4.175
 1110WAT     H2 3573   9.666   7.355   4.322
 1111WAT      O 3574   6.298   0.840   8.929
 1111WAT     H1 3575   6.345   0.877   8.849
 1111WAT     H2 3576   6.228   0.904   8.959
 1112WAT      O 3577   0.654   1.500   4.112
 1112WAT     H1 3578   0.731   1.549   4.153
 1112WAT     H2 3579   0.573   1.558   4.111
 1113WAT      O 3580   2.469   3.441   4.948
 1113WAT     H1 3581   2.543   3.413   5.010
 1113WAT     H2 3582   2.506   3.503   4.879
 1114WAT      O 3583   4.619   0.493   4.153
 1114WAT     H1 3584   4.529   0.535   4.158
 1114WAT     H2 3585   4.663   0.517   4.067
 1115WAT      O 3586   5.139   3.528   7.861
 1115WAT     H1 3587   5.168   3.594   7.930
 1115WAT     H2 3588   5.057   3.562   7.814
 1116WAT      O 3589   4.507   0.863   9.676
 1116WAT     H1 3590   4.555   0.817   9.751
 1116WAT     H2 3591   4.563   0.939   9.642
 1117WAT      O 3592   3.164   9.105   0.299
 1117WAT     H1 3593   3.093   9.078   0.365
 1117WAT     H2 3594   3.121   9.154   0.223
 1118WAT      O 3595   7.237   2.914   2.968
 1118WAT     H1 3596   7.182   2.979   3.020
 1118WAT     H2 3597   7.251   2.831   3.023
 1119WAT      O 3598   6.851   6.314   0.881
 1119WAT     H1 3599   6.809   6.229   0.850
 1119WAT     H2 3600   6.787   6.390   0.870
 1120WAT      O 3601   5.837   1.548   4.330
 1120WAT     H1 3602   5.819   1.494   4.413
 1120WAT     H2 3603   5.848   1.644   4.355
 1121WAT      O 3604   1.339   0.149   0.777
 1121WAT     H1 3605   1.401   0.071   0.776
 1121WAT     H2 3606   1.339   0.193   0.687
 1122WAT      O 3607   1.849   6.414   3.318
 1122WAT     H1 3608   1.855   6.510   3.347
 1122WAT     H2 3609   1.754   6.391   3.298
 1123WAT      O 3610   0.649   7.709   4.547
 1123WAT     H1 3611   0.553   7.698   4.520
 1123WAT     H2 3612   0.708   7.702   4.467
 1124WAT      O 3613   4.381   9.152   3.530
 1124WAT     H1 3614   4.457   9.150   3.595
 1124WAT     H2 3615   4.322   9.073   3.546
 1125WAT      O 3616   6.643   9.079   9.176
 1125WAT     H1 3617   6.726   9.028   9.154
 1125WAT     H2 3618   6.567   9.046   9.121
 1126WAT      O 3619   6.646   0.648   3.574
 1126WAT     H1 3620   6.672   0.589   3.650
 1126WAT     H2 3621   6.722   0.708   3.551
 1127WAT      O 3622   0.587   8.089   3.472
 1127WAT     H1 3623   0.658   8.123   3.534
 1127WAT     H2 3624   0.616   8.103   3.377
 1128WAT      O 3625   0.661   0.851   5.518
 1128WAT     H1 3626   0.628   0.941   5.548
 1128WAT     H2 3627   0.680   0.855   5.420
 1129WAT      O 3628   8.008   7.814   3.924
 1129WAT     H1 3629   7.968   7.810   3.833
 1129WAT     H2 3630   8.034   7.723   3.954
 1130WAT      O 3631   0.731   2.159   0.322
 1130WAT     H1 3632   0.774   2.207   0.399
 1130WAT     H2 3633   0.687   2.076   0.356
 1131WAT      O 3634   1.047   2.556   3.909
 1131WAT     H1 3635   1.117   2.556   3.980
 1131WAT     H2 3636   1.084   2.518   3.825
 1132WAT      O 3637   1.379   5.839   7.548
 1132WAT     H1 3638   1.374   5.860   7.646
 1132WAT     H2 3639   1.435   5.909   7.502
 1133WAT      O 3640   7.673   0.955   1.224
 1133WAT     H1 3641   7.682   0.920   1.131
 1133WAT     H2 3642   7.748   1.019   1.243
 1134WAT      O 3643   4.285   3.950   2.284
 1134WAT     H1 3644   4.337   3.882   2.233
 1134WAT     H2 3645   4.312   3.947   2.381
 1135WAT      O 3646   3.610   4.214   9.407
 1135WAT     H1 3647   3.622   4.226   9.506
 1135WAT     H2 3648   3.527   4.162   9.389
 1136WAT      O 3649   3.593   6.242   4.050
 1136WAT     H1 3650   3.644   6.246   3.964
 1136WAT     H2 3651   3.607   6.152   4.092
 1137WAT      O 3652   5.362   7.273   0.605
 1137WAT     H1 3653   5.287   7.206   0.609
 1137WAT     H2 3654   5.327   7.363   0.629
 1138WAT      O 3655   2.049   7.168   6.190
 1138WAT     H1 3656   2.124   7.168   6.124
 1138WAT     H2 3657   2.087   7.166   6.283
 1139WAT      O 3658   6.430   1.198   5.483
 1139WAT     H1 3659   6.363   1.148   5.428
 1139WAT     H2 3660   6.475   1.135   5.545
 1140WAT      O 3661   5.935   7.892   1.967
 1140WAT     H1 3662   5.846   7.873   2.009
 1140WAT     H2 3663   5.962   7.986   1.988
 1141WAT      O 3664   2.028   4.274   4.697
 1141WAT     H1 3665   1.988   4.190   4.661
 1141WAT     H2 3666   1.974   4.353   4.665
 1142WAT      O 3667   1.506   1.350   2.124
 1142WAT     H1 3668   1.477   1.255   2.138
 1142WAT     H2 3669   1.597   1.363   2.163
 1143WAT      O 3670   1.128   9.803   2.582
 1143WAT     H1 3671   1.120   9.704   2.593
 1143WAT     H2 3672   1.224   9.828   2.567
 1144WAT      O 3673   4.580   2.479   5.016
 1144WAT     H1 3674   4.652   2.548   5.025
 1144WAT     H2 3675   4.612   2.403   4.960
 1145WAT      O 3676   8.180   3.854   8.441
 1145WAT     H1 3677   8.170   3.783   8.510
 1145WAT     H2 3678   8.186   3.944   8.485
 1146WAT      O 3679   2.721   4.452   7.050
 1146WAT     H1 3680   2.659   4.521   7.013
 1146WAT     H2 3681   2.719   4.456   7.150
 1147WAT      O 3682   1.184   7.720   6.374
 1147WAT     H1 3683   1.251   7.787   6.405
 1147WAT     H2 3684   1.215   7.678   6.288
 1148WAT      O 3685   2.073   3.295   7.329
 1148WAT     H1 3686   1.989   3.288   7.384
 1148WAT     H2 3687   2.075   3.385   7.284
 1149WAT      O 3688   3.179   5.054   3.389
 1149WAT     H1 3689   3.276   5.037   3.371
 1149WAT     H2 3690   3.167   5.079   3.485
 1150WAT      O 3691   3.949   6.765   8.873
 1150WAT     H1 3692   3.894   6.804   8.947
 1150WAT     H2 3693   3.975   6.671   8.896
 1151WAT      O 3694   5.748   1.227   2.462
 1151WAT     H1 3695   5.785   1.318   2.447
 1151WAT     H2 3696   5.722   1.186   2.374
 1152WAT      O 3697   3.402   4.192   3.112
 1152WAT     H1 3698   3.417   4.284   3.148
 1152WAT     H2 3699   3.306   4.181   3.088
 1153WAT      O 3700   7.726   2.849   3.230
 1153WAT     H1 3701   7.646   2.790   3.239
 1153WAT     H2 3702   7.799   2.815   3.290
 1154WAT      O 3703   6.058   4.939   8.100
 1154WAT     H1 3704   6.141   4.971   8.146
 1154WAT     H2 3705   6.035   5.003   8.026
 1155WAT      O 3706   8.995   5.281   2.678
 1155WAT     H1 3707   8.920   5.250   2.620
 1155WAT     H2 3708   9.050   5.348   2.627
 1156WAT      O 3709   1.881   1.288   3.542
 1156WAT     H1 3710   1.810   1.269   3.474
 1156WAT     H2 3711   1.870   1.381   3.577
 1157WAT      O 3712   1.098   6.209   9.622
 1157WAT     H1 3713   1.196   6.198   9.634
 1157WAT     H2 3714   1.067   6.290   9.672
 1158WAT      O 3715   9.849   7.954   7.344
 1158WAT     H1 3716   9.807   7.885   7.403
 1158WAT     H2 3717   9.822   7.937   7.249
 1159WAT      O 3718   6.353   0.565   8.652
 1159WAT     H1 3719   6.274   0.618   8.622
 1159WAT     H2 3720   6.437   0.617   8.632
 1160WAT      O 3721   6.030   5.494   1.163
 1160WAT     H1 3722   6.111   5.541   1.199
 1160WAT     H2 3723   6.013   5.411   1.216
 1161WAT      O 3724   8.028   0.614   8.015
 1161WAT     H1 3725   8.100   0.564   8.064
 1161WAT     H2 3726   8.068   0.696   7.973
 1162WAT      O 3727   9.482   4.516   4.179
 1162WAT     H1 3728   9.565   4.537   4.232
 1162WAT     H2 3729   9.419   4.594   4.185
 1163WAT      O 3730   0.566   2.863   4.333
 1163WAT     H1 3731   0.552   2.889   4.428
 1163WAT     H2 3732   0.663   2.850   4.316
 1164WAT      O 3733   9.176   8.038   2.021
 1164WAT     H1 3734   9.146   8.014   2.114
 1164WAT     H2 3735   9.258   7.986   1.998
 1165WAT      O 3736   4.946   8.351   9.200
 1165WAT     H1 3737   5.046   8.343   9.190
 1165WAT     H2 3738   4.918   8.444   9.179
 1166WAT      O 3739   1.586   5.633   9.592
 1166WAT     H1 3740   1.490   5.620   9.565
 1166WAT     H2 3741   1.640   5.657   9.512
 1167WAT      O 3742   7.186   7.113   1.187
 1167WAT     H1 3743   7.249   7.051   1.234
 1167WAT     H2 3744   7.177   7.197   1.240
 1168WAT      O 3745   9.152   6.065   0.185
 1168WAT     H1 3746   9.237   6.090   0.231
 1168WAT     H2 3747   9.081   6.133   0.205
 1169WAT      O 3748   2.950   4.104   2.375
 1169WAT     H1 3749   2.962   4.201   2.354
 1169WAT     H2 3750   2.852   4.083   2.383
 1170WAT      O 3751   9.577   8.670   5.560
 1170WAT     H1 3752   9.675   8.687   5.570
 1170WAT     H2 3753   9.547   8.602   5.626
 1171WAT      O 3754   9.027   6.537   3.598
 1171WAT     H1 3755   8.975   6.465   3.644
 1171WAT     H2 3756   8.963   6.604   3.560
 1172WAT      O 3757   7.705   2.132   4.575
 1172WAT     H1 3758   7.621   2.078   4.585
 1172WAT     H2 3759   7.687   2.212   4.517
 1173WAT      O 3760   3.720   6.624   3.757
 1173WAT     H1 3761   3.732   6.703   3.818
 1173WAT     H2 3762   3.626   6.592   3.761
 1174WAT      O 3763   2.760   9.063   2.841
 1174WAT     H1 3764   2.751   8.969   2.808
 1174WAT     H2 3765   2.670   9.107   2.840
 1175WAT      O 3766   8.307   8.092   4.490
 1175WAT     H1 3767   8.228   8.111   4.432
 1175WAT     H2 3768   8.391   8.104   4.436
 1176WAT      O 3769   0.885   4.272   8.482
 1176WAT     H1 3770   0.903   4.280   8.580
 1176WAT     H2 3771   0.971   4.265   8.432
 1177WAT      O 3772   2.638   8.822   2.798
 1177WAT     H1 3773   2.656   8.787   2.890
 1177WAT     H2 3774   2.668   8.754   2.730
 1178WAT      O 3775   0.924   5.007   0.352
 1178WAT     H1 3776   0.832   5.046   0.352
 1178WAT     H2 3777   0.991   5.080   0.362
 1179WAT      O 3778   5.446   9.353   8.371
 1179WAT     H1 3779   5.420   9.411   8.448
 1179WAT     H2 3780   5.544   9.361   8.355
 1180WAT      O 3781   4.116   4.502   8.006
 1180WAT     H1 3782   4.037   4.514   7.946
 1180WAT     H2 3783   4.101   4.548   8.093
 1181WAT      O 3784   6.424   1.774   7.658
 1181WAT     H1 3785   6.345   1.775   7.719
 1181WAT     H2 3786   6.474   1.860   7.665
 1182WAT      O 3787   7.844   4.835   4.203
 1182WAT     H1 3788   7.912   4.806   4.136
 1182WAT     H2 3789   7.795   4.915   4.167
 1183WAT      O 3790   2.268   6.400   8.095
 1183WAT     H1 3791   2.169   6.393   8.103
 1183WAT     H2 3792   2.293   6.407   7.998
 1184WAT      O 3793   3.350   1.426   8.369
 1184WAT     H1 3794   3.252   1.414   8.356
 1184WAT     H2 3795   3.369   1.437   8.467
 1185WAT      O 3796   7.517   2.408   3.868
 1185WAT     H1 3797   7.527   2.416   3.769
 1185WAT     H2 3798   7.422   2.384   3.890
 1186WAT      O 3799   8.639   4.033   5.823
 1186WAT     H1 3800   8.587   4.114   5.850
 1186WAT     H2 3801   8.619   4.012   5.727
 1187WAT      O 3802   4.906   7.825   4.171
 1187WAT     H1 3803   4.915   7.915   4.214
 1187WAT     H2 3804   4.996   7.783   4.163
 1188WAT      O 3805   9.257   4.532   7.981
 1188WAT     H1 3806   9.302   4.458   7.932
 1188WAT     H2 3807   9.220   4.597   7.916
 1189WAT      O 3808   2.368   4.526   0.892
 1189WAT     H1 3809   2.311   4.487   0.820
 1189WAT     H2 3810   2.321   4.604   0.933
 1190WAT      O 3811   1.163   6.794   6.904
 1190WAT     H1 3812   1.131   6.718   6.961
 1190WAT     H2 3813   1.186   6.760   6.813
 1191WAT      O 3814   4.071   6.904   9.112
 1191WAT     H1 3815   3.981   6.871   9.138
 1191WAT     H2 3816   4.083   6.894   9.013
 1192WAT      O 3817   8.770   6.083   9.882
 1192WAT     H1 3818   8.847   6.019   9.888
 1192WAT     H2 3819   8.757   6.110   9.787
 1193WAT      O 3820   4.389   9.640   5.143
 1193WAT     H1 3821   4.343   9.610   5.226
 1193WAT     H2 3822   4.439   9.725   5.161
 1194WAT      O 3823   2.585   7.604   0.252
 1194WAT     H1 3824   2.603   7.653   0.167
 1194WAT     H2 3825   2.557   7.510   0.231
 1195WAT      O 3826   0.747   3.548   7.793
 1195WAT     H1 3827   0.748   3.637   7.747
 1195WAT     H2 3828   0.700   3.556   7.881
 1196WAT      O 3829   2.563   4.001   8.500
 1196WAT     H1 3830   2.549   3.949   8.584
 1196WAT     H2 3831   2.654   4.044   8.502
 1197WAT      O 3832   1.774   4.754   5.733
 1197WAT     H1 3833   1.846   4.748   5.801
 1197WAT     H2 3834   1.745   4.850   5.724
 1198WAT      O 3835   5.629   0.384   0.646
 1198WAT     H1 3836   5.709   0.337   0.610
 1198WAT     H2 3837   5.548   0.326   0.635
 1199WAT      O 3838   1.609   4.336   8.438
 1199WAT     H1 3839   1.576   4.331   8.532
 1199WAT     H2 3840   1.544   4.388   8.383
 1200WAT      O 3841   5.937   1.469   4.887
 1200WAT     H1 3842   6.017   1.476   4.946
 1200WAT     H2 3843   5.964   1.433   4.797
 1201WAT      O 3844   8.181   0.053   0.162
 1201WAT     H1 3845   8.263   0.020   0.116
 1201WAT     H2 3846   8.126  -0.025   0.193
 1202WAT      O 3847   0.745   1.430   0.199
 1202WAT     H1 3848   0.695   1.503   0.245
 1202WAT     H2 3849   0.719   1.428   0.102
 1203WAT      O 3850   5.026   9.403   9.719
 1203WAT     H1 3851   5.063   9.433   9.807
 1203WAT     H2 3852   5.035   9.303   9.711
 1204WAT      O 3853   2.451   9.427   3.482
 1204WAT     H1 3854   2.543   9.407   3.516
 1204WAT     H2 3855   2.452   9.511   3.428
 1205WAT      O 3856   4.195   1.907   9.548
 1205WAT     H1 3857   4.174   1.984   9.608
 1205WAT     H2 3858   4.245   1.940   9.468
 1206WAT      O 3859   8.825   9.386   8.600
 1206WAT     H1 3860   8.879   9.426   8.674
 1206WAT     H2 3861   8.734   9.362   8.634
 1207WAT      O 3862   4.139   3.255   5.138
 1207WAT     H1 3863   4.211   3.252   5.069
 1207WAT     H2 3864   4.179   3.268   5.228
 1208WAT      O 3865   8.877   6.280   0.180
 1208WAT     H1 3866   8.821   6.210   0.136
 1208WAT     H2 3867   8.905   6.348   0.112
 1209WAT      O 3868   1.286   8.838   0.052
 1209WAT     H1 3869   1.288   8.862  -0.045
 1209WAT     H2 3870   1.321   8.914   0.106
 1210WAT      O 3871   0.550   0.905   8.930
 1210WAT     H1 3872   0.526   0.819   8.886
 1210WAT     H2 3873   0.649   0.908   8.946
 1211WAT      O 3874   2.474   7.154   2.993
 1211WAT     H1 3875   2.478   7.055   3.003
 1211WAT     H2 3876   2.566   7.189   2.976
 1212WAT      O 3877   4.333   3.687   0.674
 1212WAT     H1 3878   4.276   3.605   0.680
 1212WAT     H2 3879   4.384   3.699   0.759
 1213WAT      O 3880   3.519   8.230   7.178
 1213WAT     H1 3881   3.423   8.243   7.203
 1213WAT     H2 3882   3.540   8.286   7.098
 1214WAT      O 3883   2.594   1.256   8.970
 1214WAT     H1 3884   2.525   1.234   9.039
 1214WAT     H2 3885   2.555   1.316   8.901
 1215WAT      O 3886   1.416   4.384   1.233
 1215WAT     H1 3887   1.476   4.416   1.306
 1215WAT     H2 3888   1.465   4.315   1.178
 1216WAT      O 3889   3.913   8.944   5.323
 1216WAT     H1 3890   3.853   8.983   5.253
 1216WAT     H2 3891   4.008   8.947   5.290
 1217WAT      O 3892   2.799   8.831   1.752
 1217WAT     H1 3893   2.800   8.917   1.804
 1217WAT     H2 3894   2.758   8.759   1.808
 1218WAT      O 3895   5.311   1.437   3.628
 1218WAT     H1 3896   5.411   1.435   3.618
 1218WAT     H2 3897   5.285   1.391   3.712
 1219WAT      O 3898   6.891   7.869   5.194
 1219WAT     H1 3899   6.834   7.807   5.141
 1219WAT     H2 3900   6.890   7.960   5.151
 1220WAT      O 3901   0.216   8.293   9.543
 1220WAT     H1 3902   0.284   8.246   9.599
 1220WAT     H2 3903   0.129   8.243   9.547
 1221WAT      O 3904   2.009   8.303   6.636
 1221WAT     H1 3905   2.019   8.215   6.589
 1221WAT     H2 3906   1.914   8.333   6.632
 1222WAT      O 3907   3.443   8.805   8.099
 1222WAT     H1 3908   3.379   8.729   8.099
 1222WAT     H2 3909   3.460   8.835   8.193
 1223WAT      O 3910   3.592   4.322   2.181
 1223WAT     H1 3911   3.552   4.258   2.116
 1223WAT     H2 3912   3.677   4.360   2.143
 1224WAT      O 3913   6.890   4.893   4.555
 1224WAT     H1 3914   6.816   4.826   4.551
 1224WAT     H2 3915   6.854   4.984   4.533
 1225WAT      O 3916   6.469   1.156   9.502
 1225WAT     H1 3917   6.455   1.139   9.405
 1225WAT     H2 3918   6.558   1.199   9.516
 1226WAT      O 3919   3.791   5.934   7.906
 1226WAT     H1 3920   3.771   5.982   7.992
 1226WAT     H2 3921   3.859   5.986   7.855
 1227WAT      O 3922   4.939   9.459   7.341
 1227WAT     H1 3923   5.020   9.517   7.348
 1227WAT     H2 3924   4.872   9.487   7.410
 1228WAT      O 3925   9.501   6.680   7.065
 1228WAT     H1 3926   9.578   6.722   7.112
 1228WAT     H2 3927   9.436   6.645   7.132
 1229WAT      O 3928   6.502   8.433   4.225
 1229WAT     H1 3929   6.551   8.370   4.285
 1229WAT     H2 3930   6.524   8.412   4.130
 1230WAT      O 3931   2.735   8.171   0.419
 1230WAT     H1 3932   2.832   8.153   0.437
 1230WAT     H2 3933   2.681   8.149   0.500
 1231WAT      O 3934   3.272   7.584   7.613
 1231WAT     H1 3935   3.308   7.602   7.705
 1231WAT     H2 3936   3.179   7.619   7.606
 1232WAT      O 3937   3.496   5.281   6.386
 1232WAT     H1 3938   3.455   5.327   6.465
 1232WAT     H2 3939   3.427   5.265   6.317
 1233WAT      O 3940   9.267   0.203   3.815
 1233WAT     H1 3941   9.200   0.251   3.871
 1233WAT     H2 3942   9.264   0.239   3.721
 1234WAT      O 3943   3.789   8.191   3.080
 1234WAT     H1 3944   3.770   8.150   2.991
 1234WAT     H2 3945   3.710   8.179   3.140
 1235WAT      O 3946   9.197   9.610   9.458
 1235WAT     H1 3947   9.251   9.534   9.421
 1235WAT     H2 3948   9.113   9.574   9.499
 1236WAT      O 3949   9.453   8.401   7.962
 1236WAT     H1 3950   9.408   8.487   7.937
 1236WAT     H2 3951   9.552   8.411   7.954
 1237WAT      O 3952   9.671   7.707   4.785
 1237WAT     H1 3953   9.632   7.760   4.859
 1237WAT     H2 3954   9.631   7.615   4.784
 1238WAT      O 3955   6.793   1.492   0.636
 1238WAT     H1 3956   6.706   1.517   0.593
 1238WAT     H2 3957   6.790   1.519   0.733
 1239WAT      O 3958   3.587   8.155   0.163
 1239WAT     H1 3959   3.624   8.244   0.190
 1239WAT     H2 3960   3.579   8.151   0.063
 1240WAT      O 3961   8.844   1.797   7.914
 1240WAT     H1 3962   8.819   1.715   7.964
 1240WAT     H2 3963   8.881   1.772   7.825
 1241WAT      O 3964   7.694   6.272   1.083
 1241WAT     H1 3965   7.752   6.233   1.012
 1241WAT     H2 3966   7.745   6.344   1.131
 1242WAT      O 3967   2.886   9.202   0.866
 1242WAT     H1 3968   2.928   9.291   0.848
 1242WAT     H2 3969   2.925   9.134   0.804
 1243WAT      O 3970   5.474   0.438   1.777
 1243WAT     H1 3971   5.418   0.494   1.715
 1243WAT     H2 3972   5.476   0.344   1.744
 1244WAT      O 3973   1.486   1.427   2.456
 1244WAT     H1 3974   1.486   1.340   2.505
 1244WAT     H2 3975   1.571   1.436   2.405
 1245WAT      O 3976   0.948   9.046   7.193
 1245WAT     H1 3977   0.959   9.003   7.104
 1245WAT     H2 3978   0.852   9.072   7.206
 1246WAT      O 3979   3.603   6.962   2.666
 1246WAT     H1 3980   3.595   6.951   2.567
 1246WAT     H2 3981   3.563   6.883   2.712
 1247WAT      O 3982   4.232   5.870   1.221
 1247WAT     H1 3983   4.266   5.841   1.131
 1247WAT     H2 3984   4.306   5.912   1.273
 1248WAT      O 3985   8.071   0.708   7.622
 1248WAT     H1 3986   8.014   0.641   7.670
 1248WAT     H2 3987   8.167   0.695   7.651
 1249WAT      O 3988   9.595   7.586   9.110
 1249WAT     H1 3989   9.589   7.521   9.033
 1249WAT     H2 3990   9.549   7.547   9.189
 1250WAT      O 3991   0.272   9.250   2.538
 1250WAT     H1 3992   0.318   9.338   2.526
 1250WAT     H2 3993   0.246   9.213   2.449
 1251WAT      O 3994   2.421   4.169   8.829
 1251WAT     H1 3995   2.335   4.151   8.878
 1251WAT     H2 3996   2.486   4.096   8.847
 1252WAT      O 3997   8.665   6.427   8.975
 1252WAT     H1 3998   8.641   6.487   8.899
 1252WAT     H2 3999   8.685   6.482   9.056
 1253WAT      O 4000   5.065   5.478   3.902
 1253WAT     H1 4001   5.115   5.392   3.915
 1253WAT     H2 4002   5.071   5.532   3.986
 1254WAT      O 4003   7.089   8.702   8.661
 1254WAT     H1 4004   7.066   8.770   8.591
 1254WAT     H2 4005   7.026   8.625   8.654
 1255WAT      O 4006   0.417   2.173   7.717
 1255WAT     H1 4007   0.362   2.188   7.799
 1255WAT     H2 4008   0.403   2.249   7.653
 1256WAT      O 4009   1.976   6.996   9.670
 1256WAT     H1 4010   1.934   7.077   9.712
 1256WAT     H2 4011   1.949   6.991   9.574
 1257WAT      O 4012   6.414   8.847   3.401
 1257WAT     H1 4013   6.380   8.801   3.319
 1257WAT     H2 4014   6.451   8.779   3.465
 1258WAT      O 4015   5.680   6.476   4.315
 1258WAT     H1 4016   5.635   6.561   4.287
 1258WAT     H2 4017   5.757   6.458   4.254
 1259WAT      O 4018   4.161   6.113   0.212
 1259WAT     H1 4019   4.183   6.198   0.259
 1259WAT     H2 4020   4.140   6.042   0.279
 1260WAT      O 4021   6.325   3.311   1.211
 1260WAT     H1 4022   6.314   3.306   1.311
 1260WAT     H2 4023   6.381   3.391   1.188
 1261WAT      O 4024   0.555   3.416   1.542
 1261WAT     H1 4025   0.456   3.413   1.530
 1261WAT     H2 4026   0.579   3.487   1.608
 1262WAT      O 4027   5.934   4.300   7.926
 1262WAT     H1 4028   5.934   4.200   7.926
 1262WAT     H2 4029   5.841   4.333   7.912
 1263WAT      O 4030   2.527   5.260   0.020
 1263WAT     H1 4031   2.478   5.346   0.011
 1263WAT     H2 4032   2.491   5.194  -0.045
 1264WAT      O 4033   3.908   7.915   6.992
 1264WAT     H1 4034   3.932   7.994   7.049
 1264WAT     H2 4035   3.949   7.832   7.031
 1265WAT      O 4036   7.998   5.704   6.355
 1265WAT     H1 4037   8.020   5.610   6.383
 1265WAT     H2 4038   7.935   5.744   6.421
 1266WAT      O 4039   4.098   7.141   5.139
 1266WAT     H1 4040   4.027   7.103   5.080
 1266WAT     H2 4041   4.183   7.090   5.125
 1267WAT      O 4042   9.774   9.449   2.769
 1267WAT     H1 4043   9.858   9.394   2.770
 1267WAT     H2 4044   9.758   9.485   2.677
 1268WAT      O 4045   3.044   0.735   1.554
 1268WAT     H1 4046   3.047   0.678   1.636
 1268WAT     H2 4047   2.961   0.715   1.502
 1269WAT      O 4048   1.034   8.012   8.368
 1269WAT     H1 4049   1.080   8.022   8.279
 1269WAT     H2 4050   0.981   8.095   8.387
 1270WAT      O 4051   6.075   6.386   2.878
 1270WAT     H1 4052   6.013   6.461   2.853
 1270WAT     H2 4053   6.081   6.321   2.803
 1271WAT      O 4054   3.315   8.285   1.012
 1271WAT     H1 4055   3.402   8.259   0.970
 1271WAT     H2 4056   3.331   8.356   1.081
 1272WAT      O 4057   3.744   3.810   3.115
 1272WAT     H1 4058   3.778   3.897   3.078
 1272WAT     H2 4059   3.795   3.786   3.197
 1273WAT      O 4060   9.345   3.774   1.238
 1273WAT     H1 4061   9.323   3.855   1.183
 1273WAT     H2 4062   9.428   3.790   1.289
 1274WAT      O 4063   6.211   2.633   6.945
 1274WAT     H1 4064   6.277   2.706   6.926
 1274WAT     H2 4065   6.213   2.612   7.043
 1275WAT      O 4066   0.074   4.892   6.541
 1275WAT     H1 4067   0.086   4.799   6.576
 1275WAT     H2 4068   0.021   4.889   6.456
 1276WAT      O 4069   8.016   0.576   3.048
 1276WAT     H1 4070   8.022   0.634   3.129
 1276WAT     H2 4071   8.017   0.634   2.966
 1277WAT      O 4072   0.026   1.108   8.654
 1277WAT     H1 4073  -0.059   1.099   8.601
 1277WAT     H2 4074   0.006   1.096   8.751
 1278WAT      O 4075   2.603   1.200   6.814
 1278WAT     H1 4076   2.661   1.277   6.841
 1278WAT     H2 4077   2.548   1.171   6.892
 1279WAT      O 4078   9.693   3.990   1.148
 1279WAT     H1 4079   9.644   4.066   1.106
 1279WAT     H2 4080   9.786   4.019   1.172
 1280WAT      O 4081   1.561   6.893   6.880
 1280WAT     H1 4082   1.654   6.887   6.844
 1280WAT     H2 4083   1.495   6.872   6.807
 1281WAT      O 4084   2.479   7.121   7.537
 1281WAT     H1 4085   2.512   7.038   7.580
 1281WAT     H2 4086   2.419   7.170   7.599
 1282WAT      O 4087   1.871   1.954   2.752
 1282WAT     H1 4088   1.875   2.053   2.741
 1282WAT     H2 4089   1.805   1.931   2.823
 1283WAT      O 4090   1.380   9.151   7.657
 1283WAT     H1 4091   1.289   9.178   7.687
 1283WAT     H2 4092   1.438   9.232   7.645
 1284WAT      O 4093   9.633   1.013   4.270
 1284WAT     H1 4094   9.590   1.080   4.209
 1284WAT     H2 4095   9.579   1.005   4.354
 1285WAT      O 4096   5.670   8.807   7.977
 1285WAT     H1 4097   5.609   8.754   8.035
 1285WAT     H2 4098   5.739   8.747   7.937
 1286WAT      O 4099   1.894   5.882   1.656
 1286WAT     H1 4100   1.958   5.871   1.732
 1286WAT     H2 4101   1.939   5.933   1.582
 1287WAT      O 4102   4.175   9.349   8.757
 1287WAT     H1 4103   4.205   9.254   8.762
 1287WAT     H2 4104   4.251   9.410   8.777
 1288WAT      O 4105   6.013   7.689   4.085
 1288WAT     H1 4106   5.953   7.767   4.071
 1288WAT     H2 4107   6.105   7.711   4.052
 1289WAT      O 4108   1.742   3.486   4.512
 1289WAT     H1 4109   1.730   3.398   4.466
 1289WAT     H2 4110   1.655   3.534   4.517
 1290WAT      O 4111   0.703   6.812   3.133
 1290WAT     H1 4112   0.784   6.760   3.163
 1290WAT     H2 4113   0.720   6.910   3.144
 1291WAT      O 4114   0.003   6.839   7.028
 1291WAT     H1 4115   0.092   6.794   7.032
 1291WAT     H2 4116   0.015   6.935   7.003
 1292WAT      O 4117   3.142   7.839   9.032
 1292WAT     H1 4118   3.156   7.923   8.980
 1292WAT     H2 4119   3.229   7.807   9.068
 1293WAT      O 4120   0.136   6.795   0.040
 1293WAT     H1 4121   0.206   6.866   0.030
 1293WAT     H2 4122   0.163   6.732   0.113
 1294WAT      O 4123   5.461   4.880   7.663
 1294WAT     H1 4124   5.411   4.847   7.743
 1294WAT     H2 4125   5.446   4.817   7.586
 1295WAT      O 4126   1.486   0.641   5.050
 1295WAT     H1 4127   1.550   0.628   5.126
 1295WAT     H2 4128   1.412   0.701   5.079
 1296WAT      O 4129   6.829   3.434   5.655
 1296WAT     H1 4130   6.846   3.338   5.678
 1296WAT     H2 4131   6.872   3.493   5.724
 1297WAT      O 4132   0.639   1.082   0.402
 1297WAT     H1 4133   0.559   1.040   0.359
 1297WAT     H2 4134   0.611   1.160   0.457
 1298WAT      O 4135   5.451   5.856   5.867
 1298WAT     H1 4136   5.457   5.952   5.842
 1298WAT     H2 4137   5.373   5.814   5.821
 1299WAT      O 4138   4.685   0.195   5.004
 1299WAT     H1 4139   4.600   0.197   4.950
 1299WAT     H2 4140   4.663   0.214   5.100
 1300WAT      O 4141   2.051   5.243   6.812
 1300WAT     H1 4142   1.992   5.217   6.735
 1300WAT     H2 4143   2.008   5.317   6.863
 1301WAT      O 4144   8.901   5.237   0.892
 1301WAT     H1 4145   8.923   5.325   0.936
 1301WAT     H2 4146   8.964   5.222   0.816
 1302WAT      O 4147   6.000   3.893   2.482
 1302WAT     H1 4148   5.997   3.915   2.385
 1302WAT     H2 4149   5.912   3.855   2.511
 1303WAT      O 4150   5.743   2.778   7.815
 1303WAT     H1 4151   5.686   2.711   7.863
 1303WAT     H2 4152   5.692   2.863   7.803
 1304WAT      O 4153   8.826   3.368   6.209
 1304WAT     H1 4154   8.905   3.429   6.217
 1304WAT     H2 4155   8.847   3.281   6.253
 1305WAT      O 4156   2.206   2.378   6.768
 1305WAT     H1 4157   2.206   2.426   6.680
 1305WAT     H2 4158   2.186   2.281   6.753
 1306WAT      O 4159   4.058   4.963   8.688
 1306WAT     H1 4160   4.145   5.003   8.659
 1306WAT     H2 4161   4.071   4.917   8.776
 1307WAT      O 4162   1.861   2.088   1.241
 1307WAT     H1 4163   1.840   2.014   1.306
 1307WAT     H2 4164   1.824   2.065   1.151
 1308WAT      O 4165   3.104   9.827   7.726
 1308WAT     H1 4166   3.103   9.735   7.767
 1308WAT     H2 4167   3.159   9.825   7.642
 1309WAT      O 4168   8.859   0.415   5.777
 1309WAT     H1 4169   8.779   0.475   5.778
 1309WAT     H2 4170   8.928   0.450   5.841
 1310WAT      O 4171   2.898   6.978   9.010
 1310WAT     H1 4172   2.922   7.037   8.933
 1310WAT     H2 4173   2.807   6.939   8.996
 1311WAT      O 4174   2.051   6.429   9.302
 1311WAT     H1 4175   2.147   6.458   9.311
 1311WAT     H2 4176   1.998   6.501   9.258
 1312WAT      O 4177   1.920   5.662   1.492
 1312WAT     H1 4178   1.890   5.723   1.565
 1312WAT     H2 4179   1.840   5.628   1.442
 1313WAT      O 4180   7.647   1.324   1.371
 1313WAT     H1 4181   7.547   1.322   1.382
 1313WAT     H2 4182   7.669   1.336   1.274
 1314WAT      O 4183   5.680   3.402   2.512
 1314WAT     H1 4184   5.664   3.309   2.544
 1314WAT     H2 4185   5.721   3.457   2.585
 1315WAT      O 4186   8.448   0.332   4.912
 1315WAT     H1 4187   8.526   0.374   4.865
 1315WAT     H2 4188   8.379   0.403   4.931
 1316WAT      O 4189   3.135   2.999   2.926
 1316WAT     H1 4190   3.086   2.928   2.976
 1316WAT     H2 4191   3.111   2.994   2.829
 1317WAT      O 4192   8.556   6.757   4.172
 1317WAT     H1 4193   8.602   6.845   4.158
 1317WAT     H2 4194   8.464   6.773   4.209
 1318WAT      O 4195   7.165   1.291   8.936
 1318WAT     H1 4196   7.177   1.390   8.925
 1318WAT     H2 4197   7.241   1.244   8.891
 1319WAT      O 4198   8.140   2.048   8.132
 1319WAT     H1 4199   8.190   2.134   8.140
 1319WAT     H2 4200   8.112   2.017   8.223
 1320WAT      O 4201   9.173   4.834   2.139
 1320WAT     H1 4202   9.162   4.848   2.238
 1320WAT     H2 4203   9.098   4.777   2.105
 1321WAT      O 4204   0.174   8.867   4.272
 1321WAT     H1 4205   0.257   8.905   4.312
 1321WAT     H2 4206   0.161   8.903   4.180
 1322WAT      O 4207   9.047   0.752   2.355
 1322WAT     H1 4208   9.023   0.831   2.411
 1322WAT     H2 4209   8.965   0.696   2.339
 1323WAT      O 4210   2.825   3.502   5.517
 1323WAT     H1 4211   2.771   3.452   5.585
 1323WAT     H2 4212   2.921   3.502   5.545
 1324WAT      O 4213   1.403   3.120   4.904
 1324WAT     H1 4214   1.406   3.216   4.933
 1324WAT     H2 4215   1.493   3.078   4.916
 1325WAT      O 4216   2.451   9.648   6.455
 1325WAT     H1 4217   2.487   9.694   6.373
 1325WAT     H2 4218   2.405   9.715   6.514
 1326WAT      O 4219   1.791   2.991   6.491
 1326WAT     H1 4220   1.765   3.006   6.587
 1326WAT     H2 4221   1.848   3.067   6.460
 1327WAT      O 4222   4.959   9.779   2.354
 1327WAT     H1 4223   5.027   9.762   2.282
 1327WAT     H2 4224   4.996   9.750   2.442
 1328WAT      O 4225   7.364   5.702   2.212
 1328WAT     H1 4226   7.407   5.791   2.222
 1328WAT     H2 4227   7.431   5.636   2.177
 1329WAT      O 4228   5.584   1.637   3.797
 1329WAT     H1 4229   5.506   1.698   3.809
 1329WAT     H2 4230   5.577   1.591   3.708
 1330WAT      O 4231   5.462   7.413   7.426
 1330WAT     H1 4232   5.514   7.498   7.434
 1330WAT     H2 4233   5.364   7.433   7.435
 1331WAT      O 4234   6.150   9.094   8.642
 1331WAT     H1 4235   6.218   9.041   8.591
 1331WAT     H2 4236   6.060   9.082   8.599
 1332WAT      O 4237   3.863   4.631   5.997
 1332WAT     H1 4238   3.849   4.713   5.942
 1332WAT     H2 4239   3.783   4.571   5.988
 1333WAT      O 4240   0.715   2.387   2.482
 1333WAT     H1 4241   0.811   2.384   2.453
 1333WAT     H2 4242   0.706   2.341   2.571
 1334WAT      O 4243   4.952   7.944   2.659
 1334WAT     H1 4244   5.034   7.937   2.717
 1334WAT     H2 4245   4.907   7.855   2.655
 1335WAT      O 4246   2.314   7.404   4.541
 1335WAT     H1 4247   2.321   7.308   4.515
 1335WAT     H2 4248   2.377   7.459   4.487
 1336WAT      O 4249   0.469   0.503   4.126
 1336WAT     H1 4250   0.469   0.549   4.215
 1336WAT     H2 4251   0.539   0.432   4.125
 1337WAT      O 4252   7.919   8.649   9.614
 1337WAT     H1 4253   7.940   8.704   9.533
 1337WAT     H2 4254   7.846   8.694   9.666
 1338WAT      O 4255   6.714   2.928   1.628
 1338WAT     H1 4256   6.755   2.869   1.697
 1338WAT     H2 4257   6.632   2.884   1.592
 1339WAT      O 4258   4.333   7.918   9.265
 1339WAT     H1 4259   4.239   7.907   9.233
 1339WAT     H2 4260   4.384   7.834   9.249
 1340WAT      O 4261   0.379   4.048   1.336
 1340WAT     H1 4262   0.305   3.987   1.308
 1340WAT     H2 4263   0.465   4.019   1.295
 1341WAT      O 4264   4.507   5.725   7.754
 1341WAT     H1 4265   4.501   5.628   7.730
 1341WAT     H2 4266   4.462   5.780   7.684
 1342WAT      O 4267   0.466   0.554   2.167
 1342WAT     H1 4268   0.447   0.610   2.247
 1342WAT     H2 4269   0.546   0.589   2.118
 1343WAT      O 4270   3.223   1.735   4.233
 1343WAT     H1 4271   3.296   1.800   4.255
 1343WAT     H2 4272   3.210   1.672   4.310
 1344WAT      O 4273   7.324   5.921   6.998
 1344WAT     H1 4274   7.260   5.846   7.014
 1344WAT     H2 4275   7.399   5.890   6.939
 1345WAT      O 4276   2.884   3.640   7.968
 1345WAT     H1 4277   2.899   3.612   8.063
 1345WAT     H2 4278   2.823   3.719   7.965
 1346WAT      O 4279   0.653   0.079   7.865
 1346WAT     H1 4280   0.611   0.034   7.944
 1346WAT     H2 4281   0.636   0.177   7.870
 1347WAT      O 4282   9.115   0.630   3.353
 1347WAT     H1 4283   9.097   0.724   3.324
 1347WAT     H2 4284   9.146   0.630   3.448
 1348WAT      O 4285   6.840   1.731   6.757
 1348WAT     H1 4286   6.931   1.726   6.717
 1348WAT     H2 4287   6.818   1.826   6.780
 1349WAT      O 4288   5.461   5.967   0.979
 1349WAT     H1 4289   5.383   5.918   0.940
 1349WAT     H2 4290   5.432   6.016   1.061
 1350WAT      O 4291   9.714   5.962   3.535
 1350WAT     H1 4292   9.676   5.870   3.549
 1350WAT     H2 4293   9.743   6.000   3.623
 1351WAT      O 4294   0.567   8.330   2.757
 1351WAT     H1 4295   0.560   8.254   2.821
 1351WAT     H2 4296   0.649   8.384   2.778
 1352WAT      O 4297   2.190   2.003   0.369
 1352WAT     H1 4298   2.271   1.987   0.313
 1352WAT     H2 4299   2.120   2.050   0.314
 1353WAT      O 4300   2.138   2.851   4.250
 1353WAT     H1 4301   2.128   2.948   4.270
 1353WAT     H2 4302   2.235   2.825   4.254
 1354WAT      O 4303   0.771   6.389   7.610
 1354WAT     H1 4304   0.783   6.486   7.590
 1354WAT     H2 4305   0.767   6.338   7.523
 1355WAT      O 4306   0.422   7.330   1.210
 1355WAT     H1 4307   0.484   7.344   1.133
 1355WAT     H2 4308   0.373   7.243   1.197
 1356WAT      O 4309   1.305   1.507   0.570
 1356WAT     H1 4310   1.337   1.454   0.491
 1356WAT     H2 4311   1.233   1.456   0.617
 1357WAT      O 4312   8.336   4.636   7.148
 1357WAT     H1 4313   8.363   4.677   7.235
 1357WAT     H2 4314   8.372   4.691   7.073
 1358WAT      O 4315   1.066   6.313   3.941
 1358WAT     H1 4316   1.063   6.413   3.935
 1358WAT     H2 4317   1.012   6.282   4.019
 1359WAT      O 4318   0.468   9.481   5.889
 1359WAT     H1 4319   0.562   9.511   5.872
 1359WAT     H2 4320   0.404   9.546   5.847
 1360WAT      O 4321   5.892   5.284   6.154
 1360WAT     H1 4322   5.839   5.366   6.131
 1360WAT     H2 4323   5.848   5.235   6.229
 1361WAT      O 4324   2.196   0.353   6.050
 1361WAT     H1 4325   2.186   0.387   6.143
 1361WAT     H2 4326   2.239   0.424   5.993
 1362WAT      O 4327   9.328   0.297   6.316
 1362WAT     H1 4328   9.358   0.286   6.222
 1362WAT     H2 4329   9.247   0.241   6.333
 1363WAT      O 4330   6.688   9.019   3.701
 1363WAT     H1 4331   6.732   8.935   3.670
 1363WAT     H2 4332   6.690   9.022   3.801
 1364WAT      O 4333   8.130   2.776   4.450
 1364WAT     H1 4334   8.227   2.790   4.435
 1364WAT     H2 4335   8.101   2.691   4.406
 1365WAT      O 4336   8.847   7.018   6.278
 1365WAT     H1 4337   8.842   6.948   6.207
 1365WAT     H2 4338   8.914   6.992   6.347
 1366WAT      O 4339   9.648   6.224   4.732
 1366WAT     H1 4340   9.711   6.270   4.795
 1366WAT     H2 4341   9.698   6.193   4.652
 1367WAT      O 4342   4.523   1.321   4.327
 1367WAT     H1 4343   4.593   1.392   4.337
 1367WAT     H2 4344   4.564   1.241   4.283
 1368WAT      O 4345   3.219   6.440   2.678
 1368WAT     H1 4346   3.149   6.429   2.749
 1368WAT     H2 4347   3.234   6.537   2.660
 1369WAT      O 4348   0.280   7.186   5.506
 1369WAT     H1 4349   0.329   7.101   5.484
 1369WAT     H2 4350   0.339   7.244   5.562
 1370WAT      O 4351   7.541   7.719   2.033
 1370WAT     H1 4352   7.479   7.698   2.109
 1370WAT     H2 4353   7.565   7.817   2.035
 1371WAT      O 4354   8.200   2.735   2.760
 1371WAT     H1 4355   8.205   2.767   2.665
 1371WAT     H2 4356   8.127   2.785   2.807
 1372WAT      O 4357   8.179   5.242   4.919
 1372WAT     H1 4358   8.205   5.320   4.863
 1372WAT     H2 4359   8.080   5.227   4.911
 1373WAT      O 4360   1.619   4.240   7.849
 1373WAT     H1 4361   1.591   4.170   7.783
 1373WAT     H2 4362   1.642   4.324   7.801
 1374WAT      O 4363   9.804   8.623   1.646
 1374WAT     H1 4364   9.738   8.693   1.673
 1374WAT     H2 4365   9.868   8.661   1.579
 1375WAT      O 4366   7.915   2.965   0.760
 1375WAT     H1 4367   7.907   3.055   0.802
 1375WAT     H2 4368   8.010   2.945   0.739
 1376WAT      O 4369   9.522   6.807   5.588
 1376WAT     H1 4370   9.614   6.789   5.552
 1376WAT     H2 4371   9.456   6.809   5.512
 1377WAT      O 4372   6.844   7.169   2.283
 1377WAT     H1 4373   6.866   7.127   2.371
 1377WAT     H2 4374   6.773   7.114   2.238
 1378WAT      O 4375   6.531   2.301   6.604
 1378WAT     H1 4376   6.557   2.280   6.699
 1378WAT     H2 4377   6.523   2.400   6.593
 1379WAT      O 4378   0.685   1.761   2.297
 1379WAT     H1 4379   0.772   1.740   2.341
 1379WAT     H2 4380   0.699   1.828   2.225
 1380WAT      O 4381   5.902   5.139   6.955
 1380WAT     H1 4382   5.816   5.177   6.987
 1380WAT     H2 4383   5.951   5.098   7.032
 1381WAT      O 4384   7.325   6.717   6.375
 1381WAT     H1 4385   7.298   6.769   6.294
 1381WAT     H2 4386   7.315   6.619   6.356
 1382WAT      O 4387   7.970   8.025   4.546
 1382WAT     H1 4388   7.966   8.116   4.506
 1382WAT     H2 4389   8.040   7.971   4.499
 1383WAT      O 4390   5.996   0.286   8.860
 1383WAT     H1 4391   5.902   0.319   8.853
 1383WAT     H2 4392   6.045   0.308   8.776
 1384WAT      O 4393   6.391   4.676   7.075
 1384WAT     H1 4394   6.401   4.759   7.129
 1384WAT     H2 4395   6.384   4.699   6.978
 1385WAT      O 4396   9.381   3.874   4.859
 1385WAT     H1 4397   9.288   3.857   4.826
 1385WAT     H2 4398   9.403   3.971   4.849
 1386WAT      O 4399   3.032   0.536   4.532
 1386WAT     H1 4400   2.984   0.623   4.541
 1386WAT     H2 4401   3.041   0.512   4.435
 1387WAT      O 4402   7.294   1.683   5.164
 1387WAT     H1 4403   7.292   1.712   5.068
 1387WAT     H2 4404   7.204   1.697   5.205
 1388WAT      O 4405   9.489   8.530   1.579
 1388WAT     H1 4406   9.587   8.515   1.565
 1388WAT     H2 4407   9.446   8.444   1.610
 1389WAT      O 4408   2.534   0.374   1.764
 1389WAT     H1 4409   2.548   0.276   1.751
 1389WAT     H2 4410   2.532   0.420   1.674
 1390WAT      O 4411   3.160   8.839   8.525
 1390WAT     H1 4412   3.065   8.816   8.547
 1390WAT     H2 4413   3.206   8.873   8.607
 1391WAT      O 4414   1.572   6.668   1.666
 1391WAT     H1 4415   1.481   6.700   1.692
 1391WAT     H2 4416   1.611   6.730   1.598
 1392WAT      O 4417   9.621   6.989   9.332
 1392WAT     H1 4418   9.703   6.993   9.274
 1392WAT     H2 4419   9.597   6.893   9.349
 1393WAT      O 4420   6.049   9.183   8.330
 1393WAT     H1 4421   6.129   9.128   8.307
 1393WAT     H2 4422   6.039   9.257   8.263
 1394WAT      O 4423   4.661   8.071   1.697
 1394WAT     H1 4424   4.667   7.972   1.707
 1394WAT     H2 4425   4.630   8.094   1.605
 1395WAT      O 4426   6.880   4.675   5.480
 1395WAT     H1 4427   6.832   4.753   5.441
 1395WAT     H2 4428   6.823   4.634   5.552
 1396WAT      O 4429   9.559   3.369   6.631
 1396WAT     H1 4430   9.469   3.391   6.669
 1396WAT     H2 4431   9.626   3.437   6.662
 1397WAT      O 4432   8.940   4.312   6.361
 1397WAT     H1 4433   8.879   4.365   6.301
 1397WAT     H2 4434   8.911   4.324   6.456
 1398WAT      O 4435   8.378   1.212   5.228
 1398WAT     H1 4436   8.425   1.282   5.174
 1398WAT     H2 4437   8.284   1.240   5.243
 1399WAT      O 4438   7.165   4.811   2.510
 1399WAT     H1 4439   7.263   4.791   2.514
 1399WAT     H2 4440   7.145   4.891   2.566
 1400WAT      O 4441   4.180   4.760   1.036
 1400WAT     H1 4442   4.234   4.840   1.061
 1400WAT     H2 4443   4.241   4.686   1.006
 1401WAT      O 4444   1.387   0.453   4.779
 1401WAT     H1 4445   1.375   0.393   4.700
 1401WAT     H2 4446   1.317   0.524   4.778
 1402WAT      O 4447   9.271   9.485   8.239
 1402WAT     H1 4448   9.337   9.410   8.247
 1402WAT     H2 4449   9.245   9.516   8.331
 1403WAT      O 4450   5.021   5.359   7.376
 1403WAT     H1 4451   5.120   5.346   7.371
 1403WAT     H2 4452   4.976   5.271   7.393
 1404WAT      O 4453   8.008   7.662   9.661
 1404WAT     H1 4454   7.973   7.629   9.573
 1404WAT     H2 4455   8.105   7.642   9.668
 1405WAT      O 4456   3.533   4.103   2.821
 1405WAT     H1 4457   3.519   4.125   2.918
 1405WAT     H2 4458   3.453   4.055   2.786
 1406WAT      O 4459   7.102   2.486   5.381
 1406WAT     H1 4460   7.103   2.573   5.430
 1406WAT     H2 4461   7.026   2.485   5.315
 1407WAT      O 4462   0.730   1.383   6.956
 1407WAT     H1 4463   0.768   1.291   6.968
 1407WAT     H2 4464   0.688   1.413   7.042
 1408WAT      O 4465   8.290   8.244   5.364
 1408WAT     H1 4466   8.234   8.226   5.283
 1408WAT     H2 4467   8.381   8.273   5.336
 1409WAT      O 4468   6.284   0.581   7.455
 1409WAT     H1 4469   6.261   0.672   7.422
 1409WAT     H2 4470   6.206   0.520   7.444
 1410WAT      O 4471   1.174   2.185   0.760
 1410WAT     H1 4472   1.214   2.104   0.803
 1410WAT     H2 4473   1.137   2.245   0.830
 1411WAT      O 4474   6.633   4.571   0.423
 1411WAT     H1 4475   6.540   4.566   0.461
 1411WAT     H2 4476   6.657   4.667   0.408
 1412WAT      O 4477   9.882   8.648   9.448
 1412WAT     H1 4478   9.892   8.704   9.530
 1412WAT     H2 4479   9.941   8.684   9.375
 1413WAT      O 4480   1.889   5.562   8.294
 1413WAT     H1 4481   1.928   5.640   8.343
 1413WAT     H2 4482   1.871   5.587   8.199
 1414WAT      O 4483   8.786   3.729   7.861
 1414WAT     H1 4484   8.833   3.817   7.867
 1414WAT     H2 4485   8.833   3.663   7.919
 1415WAT      O 4486   5.902   1.839   5.818
 1415WAT     H1 4487   5.920   1.867   5.723
 1415WAT     H2 4488   5.899   1.920   5.876
 1416WAT      O 4489   5.211   1.816   5.742
 1416WAT     H1 4490   5.291   1.764   5.771
 1416WAT     H2 4491   5.234   1.913   5.739
 1417WAT      O 4492   7.759   0.262   5.182
 1417WAT     H1 4493   7.801   0.352   5.191
 1417WAT     H2 4494   7.815   0.204   5.124
 1418WAT      O 4495   6.869   1.492   4.752
 1418WAT     H1 4496   6.930   1.569   4.731
 1418WAT     H2 4497   6.901   1.410   4.704
 1419WAT      O 4498   0.878   9.314   9.520
 1419WAT     H1 4499   0.971   9.335   9.492
 1419WAT     H2 4500   0.833   9.396   9.554
 1420WAT      O 4501   7.427   9.336   0.794
 1420WAT     H1 4502   7.498   9.406   0.787
 1420WAT     H2 4503   7.343   9.369   0.751
 1421WAT      O 4504   3.046   0.761   0.105
 1421WAT     H1 4505   3.064   0.856   0.077
 1421WAT     H2 4506   3.075   0.699   0.032
 1422WAT      O 4507   6.955   9.037   5.394
 1422WAT     H1 4508   7.003   9.105   5.449
 1422WAT     H2 4509   7.005   8.950   5.397
 1423WAT      O 4510   3.684   5.954   0.191
 1423WAT     H1 4511   3.614   6.025   0.198
 1423WAT     H2 4512   3.748   5.977   0.117
 1424WAT      O 4513   7.103   5.488   1.032
 1424WAT     H1 4514   7.152   5.430   1.096
 1424WAT     H2 4515   7.152   5.575   1.022
 1425WAT      O 4516   4.715   7.649   0.681
 1425WAT     H1 4517   4.718   7.623   0.584
 1425WAT     H2 4518   4.808   7.667   0.714
 1426WAT      O 4519   6.776   6.800   6.093
 1426WAT     H1 4520   6.763   6.701   6.087
 1426WAT     H2 4521   6.759   6.841   6.003
 1427WAT      O 4522   8.965   5.568   8.498
 1427WAT     H1 4523   8.958   5.479   8.452
 1427WAT     H2 4524   8.874   5.596   8.529
 1428WAT      O 4525   4.354   3.511   7.885
 1428WAT     H1 4526   4.349   3.553   7.794
 1428WAT     H2 4527   4.325   3.416   7.878
 1429WAT      O 4528   5.169   9.034   3.487
 1429WAT     H1 4529   5.156   9.095   3.565
 1429WAT     H2 4530   5.242   8.969   3.508
 1430WAT      O 4531   4.259   9.024   4.391
 1430WAT     H1 4532   4.209   9.111   4.386
 1430WAT     H2 4533   4.198   8.948   4.369
 1431WAT      O 4534   5.625   2.567   4.724
 1431WAT     H1 4535   5.646   2.478   4.767
 1431WAT     H2 4536   5.527   2.575   4.711
 1432WAT      O 4537   2.259   2.757   1.109
 1432WAT     H1 4538   2.335   2.818   1.132
 1432WAT     H2 4539   2.186   2.767   1.177
 1433WAT      O 4540   4.509   2.099   7.537
 1433WAT     H1 4541   4.576   2.152   7.588
 1433WAT     H2 4542   4.467   2.156   7.468
 1434WAT      O 4543   5.634   2.918   6.246
 1434WAT     H1 4544   5.602   2.864   6.324
 1434WAT     H2 4545   5.561   2.924   6.178
 1435WAT      O 4546   6.339   7.068   9.865
 1435WAT     H1 4547   6.370   7.055   9.771
 1435WAT     H2 4548   6.410   7.117   9.916
 1436WAT      O 4549   4.411   3.466   2.554
 1436WAT     H1 4550   4.456   3.513   2.629
 1436WAT     H2 4551   4.442   3.504   2.467
 1437WAT      O 4552   7.282   4.096   2.669
 1437WAT     H1 4553   7.314   4.073   2.761
 1437WAT     H2 4554   7.323   4.032   2.603
 1438WAT      O 4555   3.097   8.405   9.050
 1438WAT     H1 4556   3.165   8.418   8.978
 1438WAT     H2 4557   3.040   8.326   9.029
 1439WAT      O 4558   6.573   5.036   0.284
 1439WAT     H1 4559   6.528   5.104   0.342
 1439WAT     H2 4560   6.637   4.982   0.338
 1440WAT      O 4561   8.302   4.095   6.321
 1440WAT     H1 4562   8.299   4.033   6.243
 1440WAT     H2 4563   8.209   4.118   6.349
 1441WAT      O 4564   6.464   1.300   2.067
 1441WAT     H1 4565   6.523   1.221   2.046
 1441WAT     H2 4566   6.516   1.384   2.056
 1442WAT      O 4567   5.644   8.883   6.101
 1442WAT     H1 4568   5.668   8.963   6.156
 1442WAT     H2 4569   5.720   8.859   6.041
 1443WAT      O 4570   0.319   8.140   1.406
 1443WAT     H1 4571   0.249   8.209   1.423
 1443WAT     H2 4572   0.331   8.083   1.488
 1444WAT      O 4573   5.668   4.510   4.117
 1444WAT     H1 4574   5.616   4.444   4.062
 1444WAT     H2 4575   5.668   4.599   4.072
 1445WAT      O 4576   2.118   0.640   8.020
 1445WAT     H1 4577   2.035   0.587   8.005
 1445WAT     H2 4578   2.125   0.666   8.117
 1446WAT      O 4579   6.333   0.484   3.998
 1446WAT     H1 4580   6.249   0.462   4.046
 1446WAT     H2 4581   6.354   0.581   4.009
 1447WAT      O 4582   6.246   9.544   6.402
 1447WAT     H1 4583   6.264   9.596   6.485
 1447WAT     H2 4584   6.157   9.498   6.411
 1448WAT      O 4585   8.903   8.388   7.224
 1448WAT     H1 4586   8.905   8.330   7.304
 1448WAT     H2 4587   8.938   8.479   7.247
 1449WAT      O 4588   8.903   4.864   4.325
 1449WAT     H1 4589   8.873   4.957   4.347
 1449WAT     H2 4590   8.846   4.827   4.252
 1450WAT      O 4591   1.773   8.849   5.672
 1450WAT     H1 4592   1.777   8.807   5.763
 1450WAT     H2 4593   1.709   8.798   5.615
 1451WAT      O 4594   3.394   5.987   7.856
 1451WAT     H1 4595   3.449   6.061   7.817
 1451WAT     H2 4596   3.453   5.907   7.873
 1452WAT      O 4597   9.493   5.231   1.330
 1452WAT     H1 4598   9.463   5.299   1.396
 1452WAT     H2 4599   9.580   5.192   1.359
 1453WAT      O 4600   9.650   6.791   0.908
 1453WAT     H1 4601   9.680   6.743   0.990
 1453WAT     H2 4602   9.629   6.725   0.836
 1454WAT      O 4603   7.975   9.188   2.285
 1454WAT     H1 4604   7.939   9.097   2.308
 1454WAT     H2 4605   8.025   9.182   2.198
 1455WAT      O 4606   7.593   0.799   9.780
 1455WAT     H1 4607   7.676   0.761   9.820
 1455WAT     H2 4608   7.556   0.871   9.839
 1456WAT      O 4609   4.948   2.468   6.589
 1456WAT     H1 4610   5.037   2.472   6.543
 1456WAT     H2 4611   4.951   2.525   6.671
 1457WAT      O 4612   8.371   5.260   2.687
 1457WAT     H1 4613   8.387   5.277   2.784
 1457WAT     H2 4614   8.359   5.347   2.639
 1458WAT      O 4615   1.991   9.139   4.496
 1458WAT     H1 4616   1.945   9.182   4.573
 1458WAT     H2 4617   2.021   9.209   4.431
 1459WAT      O 4618   8.090   5.149   0.818
 1459WAT     H1 4619   8.088   5.050   0.800
 1459WAT     H2 4620   8.184   5.179   0.831
 1460WAT      O 4621   4.221   2.060   8.758
 1460WAT     H1 4622   4.244   2.148   8.801
 1460WAT     H2 4623   4.226   1.987   8.827
 1461WAT      O 4624   6.728   1.558   0.880
 1461WAT     H1 4625   6.787   1.606   0.944
 1461WAT     H2 4626   6.634   1.558   0.915
 1462WAT      O 4627   3.961   2.491   2.273
 1462WAT     H1 4628   3.890   2.525   2.212
 1462WAT     H2 4629   3.966   2.550   2.353
 1463WAT      O 4630   8.027   2.880   9.882
 1463WAT     H1 4631   7.969   2.960   9.898
 1463WAT     H2 4632   8.016   2.815   9.957
 1464WAT      O 4633   0.540   5.756   7.921
 1464WAT     H1 4634   0.575   5.828   7.862
 1464WAT     H2 4635   0.599   5.745   8.000
 1465WAT      O 4636   3.146   1.780   9.581
 1465WAT     H1 4637   3.208   1.728   9.522
 1465WAT     H2 4638   3.179   1.875   9.587
 1466WAT      O 4639   8.329   0.751   7.743
 1466WAT     H1 4640   8.402   0.686   7.765
 1466WAT     H2 4641   8.368   0.842   7.731
 1467WAT      O 4642   1.788   9.103   5.578
 1467WAT     H1 4643   1.704   9.156   5.570
 1467WAT     H2 4644   1.767   9.010   5.608
 1468WAT      O 4645   1.367   8.684   1.458
 1468WAT     H1 4646   1.440   8.723   1.515
 1468WAT     H2 4647   1.355   8.588   1.482
 1469WAT      O 4648   6.648   3.501   6.864
 1469WAT     H1 4649   6.720   3.570   6.853
 1469WAT     H2 4650   6.568   3.542   6.907
 1470WAT      O 4651   5.820   5.688   3.666
 1470WAT     H1 4652   5.851   5.772   3.622
 1470WAT     H2 4653   5.878   5.612   3.640
 1471WAT      O 4654   2.221   2.329   2.987
 1471WAT     H1 4655   2.291   2.272   2.946
 1471WAT     H2 4656   2.204   2.299   3.081
 1472WAT      O 4657   0.604   9.319   5.114
 1472WAT     H1 4658   0.663   9.244   5.084
 1472WAT     H2 4659   0.517   9.314   5.065
 1473WAT      O 4660   2.707   2.583   7.546
 1473WAT     H1 4661   2.631   2.548   7.491
 1473WAT     H2 4662   2.791   2.581   7.493
 1474WAT      O 4663   5.324   8.711   3.963
 1474WAT     H1 4664   5.325   8.740   4.059
 1474WAT     H2 4665   5.306   8.790   3.904
 1475WAT      O 4666   3.248   5.631   0.080
 1475WAT     H1 4667   3.174   5.622   0.146
 1475WAT     H2 4668   3.304   5.710   0.104
 1476WAT      O 4669   0.705   0.052   2.150
 1476WAT     H1 4670   0.754   0.030   2.065
 1476WAT     H2 4671   0.622   0.104   2.128
 1477WAT      O 4672   2.557   9.113   4.946
 1477WAT     H1 4673   2.637   9.171   4.962
 1477WAT     H2 4674   2.550   9.090   4.850
 1478WAT      O 4675   1.887   3.791   0.159
 1478WAT     H1 4676   1.880   3.875   0.106
 1478WAT     H2 4677   1.828   3.798   0.239
 1479WAT      O 4678   0.825   1.062   0.903
 1479WAT     H1 4679   0.915   1.101   0.924
 1479WAT     H2 4680   0.768   1.131   0.859
 1480WAT      O 4681   0.635   9.729   6.436
 1480WAT     H1 4682   0.716   9.788   6.439
 1480WAT     H2 4683   0.628   9.687   6.346
 1481WAT      O 4684   7.296   9.240   4.812
 1481WAT     H1 4685   7.248   9.327   4.802
 1481WAT     H2 4686   7.239   9.177   4.866
 1482WAT      O 4687   8.337   8.874   4.179
 1482WAT     H1 4688   8.252   8.918   4.208
 1482WAT     H2 4689   8.316   8.795   4.121
 1483WAT      O 4690   2.176   9.436   4.072
 1483WAT     H1 4691   2.109   9.505   4.043
 1483WAT     H2 4692   2.265   9.457   4.031
 1484WAT      O 4693   5.785   2.416   4.122
 1484WAT     H1 4694   5.760   2.512   4.136
 1484WAT     H2 4695   5.843   2.408   4.041
 1485WAT      O 4696   3.915   0.194   5.022
 1485WAT     H1 4697   3.995   0.253   5.024
 1485WAT     H2 4698   3.932   0.113   5.078
 1486WAT      O 4699   3.450   8.958   5.183
 1486WAT     H1 4700   3.384   8.890   5.151
 1486WAT     H2 4701   3.402   9.036   5.223
 1487WAT      O 4702   7.735   6.074   9.492
 1487WAT     H1 4703   7.808   6.018   9.451
 1487WAT     H2 4704   7.679   6.113   9.420
 1488WAT      O 4705   4.733   1.494   0.175
 1488WAT     H1 4706   4.636   1.471   0.178
 1488WAT     H2 4707   4.761   1.532   0.263
 1489WAT      O 4708   4.123   4.595   9.715
 1489WAT     H1 4709   4.127   4.614   9.813
 1489WAT     H2 4710   4.045   4.535   9.695
 1490WAT      O 4711   2.630   4.799   2.937
 1490WAT     H1 4712   2.591   4.790   2.846
 1490WAT     H2 4713   2.596   4.726   2.996
 1491WAT      O 4714   5.462   8.513   4.402
 1491WAT     H1 4715   5.500   8.596   4.440
 1491WAT     H2 4716   5.367   8.502   4.433
 1492WAT      O 4717   1.820   7.085   1.164
 1492WAT     H1 4718   1.913   7.050   1.171
 1492WAT     H2 4719   1.822   7.185   1.151
 1493WAT      O 4720   0.845   9.180   9.279
 1493WAT     H1 4721   0.853   9.228   9.367
 1493WAT     H2 4722   0.897   9.095   9.283
 1494WAT      O 4723   7.158   6.957   4.245
 1494WAT     H1 4724   7.141   7.027   4.175
 1494WAT     H2 4725   7.119   6.870   4.213
 1495WAT      O 4726   2.970   1.344   7.236
 1495WAT     H1 4727   2.957   1.395   7.151
 1495WAT     H2 4728   3.065   1.350   7.264
 1496WAT      O 4729   1.457   2.988   4.523
 1496WAT     H1 4730   1.367   3.031   4.513
 1496WAT     H2 4731   1.457   2.929   4.604
 1497WAT      O 4732   9.492   9.246   0.853
 1497WAT     H1 4733   9.511   9.295   0.768
 1497WAT     H2 4734   9.547   9.163   0.856
 1498WAT      O 4735   4.859   5.803   4.163
 1498WAT     H1 4736   4.930   5.734   4.157
 1498WAT     H2 4737   4.849   5.849   4.074
 1499WAT      O 4738   1.550   5.330   4.584
 1499WAT     H1 4739   1.639   5.375   4.596
 1499WAT     H2 4740   1.548   5.246   4.638
 1500WAT      O 4741   6.841   8.837   6.873
 1500WAT     H1 4742   6.796   8.781   6.943
 1500WAT     H2 4743   6.906   8.782   6.822
 1501WAT      O 4744   9.516   2.966   6.464
 1501WAT     H1 4745   9.465   2.980   6.549
 1501WAT     H2 4746   9.467   3.011   6.388
 1502WAT      O 4747   7.169   6.644   5.026
 1502WAT     H1 4748   7.202   6.550   5.037
 1502WAT     H2 4749   7.211   6.685   4.945
 1503WAT      O 4750   3.644   4.479   6.003
 1503WAT     H1 4751   3.620   4.420   6.080
 1503WAT     H2 4752   3.602   4.444   5.920
 1504WAT      O 4753   4.111   1.820   6.990
 1504WAT     H1 4754   4.031   1.836   7.047
 1504WAT     H2 4755   4.179   1.768   7.041
 1505WAT      O 4756   1.377   4.457   4.094
 1505WAT     H1 4757   1.294   4.493   4.137
 1505WAT     H2 4758   1.435   4.534   4.066
 1506WAT      O 4759   7.203   8.544   6.064
 1506WAT     H1 4760   7.229   8.452   6.034
 1506WAT     H2 4761   7.142   8.586   5.997
 1507WAT      O 4762   7.989   8.689   6.170
 1507WAT     H1 4763   7.959   8.645   6.086
 1507WAT     H2 4764   8.026   8.619   6.232
 1508WAT      O 4765   1.283   0.716   2.770
 1508WAT     H1 4766   1.283   0.778   2.848
 1508WAT     H2 4767   1.289   0.769   2.685
 1509WAT      O 4768   5.039   1.681   2.343
 1509WAT     H1 4769   5.026   1.666   2.441
 1509WAT     H2 4770   5.042   1.780   2.324
 1510WAT      O 4771   3.202   2.386   6.543
 1510WAT     H1 4772   3.231   2.361   6.450
 1510WAT     H2 4773   3.229   2.481   6.561
 1511WAT      O 4774   1.869   6.416   0.629
 1511WAT     H1 4775   1.926   6.415   0.711
 1511WAT     H2 4776   1.782   6.461   0.649
 1512WAT      O 4777   2.328   7.167   9.730
 1512WAT     H1 4778   2.261   7.094   9.719
 1512WAT     H2 4779   2.323   7.228   9.651
 1513WAT      O 4780   7.665   5.288   9.174
 1513WAT     H1 4781   7.633   5.194   9.178
 1513WAT     H2 4782   7.742   5.294   9.109
 1514WAT      O 4783   8.280   6.632   9.513
 1514WAT     H1 4784   8.182   6.616   9.498
 1514WAT     H2 4785   8.333   6.568   9.458
 1515WAT      O 4786   2.453   8.672   1.535
 1515WAT     H1 4787   2.546   8.696   1.506
 1515WAT     H2 4788   2.413   8.748   1.586
 1516WAT      O 4789   0.598   3.113   4.799
 1516WAT     H1 4790   0.537   3.180   4.842
 1516WAT     H2 4791   0.645   3.156   4.722
 1517WAT      O 4792   4.012   0.575   7.137
 1517WAT     H1 4793   4.064   0.565   7.052
 1517WAT     H2 4794   3.987   0.484   7.171
 1518WAT      O 4795   0.283   4.784   1.045
 1518WAT     H1 4796   0.264   4.857   0.979
 1518WAT     H2 4797   0.382   4.767   1.049
 1519WAT      O 4798   2.122   2.451   6.304
 1519WAT     H1 4799   2.081   2.410   6.222
 1519WAT     H2 4800   2.151   2.544   6.283
 1520WAT      O 4801   4.285   5.773   1.528
 1520WAT     H1 4802   4.337   5.688   1.536
 1520WAT     H2 4803   4.277   5.797   1.431
 1521WAT      O 4804   0.708   4.230   2.955
 1521WAT     H1 4805   0.745   4.322   2.944
 1521WAT     H2 4806   0.610   4.230   2.936
 1522WAT      O 4807   8.542   2.873   5.032
 1522WAT     H1 4808   8.455   2.823   5.037
 1522WAT     H2 4809   8.541   2.947   5.099
 1523WAT      O 4810   5.484   1.275   8.621
 1523WAT     H1 4811   5.470   1.308   8.714
 1523WAT     H2 4812   5.399   1.236   8.586
 1524WAT      O 4813   7.546   2.989   6.960
 1524WAT     H1 4814   7.465   2.931   6.946
 1524WAT     H2 4815   7.562   3.045   6.879
 1525WAT      O 4816   8.237   8.105   2.299
 1525WAT     H1 4817   8.247   8.058   2.387
 1525WAT     H2 4818   8.287   8.054   2.229
 1526WAT      O 4819   5.808   6.234   3.555
 1526WAT     H1 4820   5.821   6.160   3.490
 1526WAT     H2 4821   5.872   6.309   3.534
 1527WAT      O 4822   4.604   4.796   0.203
 1527WAT     H1 4823   4.647   4.882   0.177
 1527WAT     H2 4824   4.628   4.726   0.135
 1528WAT      O 4825   2.778   6.678   1.978
 1528WAT     H1 4826   2.712   6.750   2.000
 1528WAT     H2 4827   2.830   6.705   1.897
 1529WAT      O 4828   9.522   1.474   8.336
 1529WAT     H1 4829   9.446   1.410   8.352
 1529WAT     H2 4830   9.606   1.423   8.321
 1530WAT      O 4831   3.915   2.158   8.046
 1530WAT     H1 4832   3.823   2.139   8.013
 1530WAT     H2 4833   3.914   2.239   8.104
 1531WAT      O 4834   1.128   8.878   7.840
 1531WAT     H1 4835   1.152   8.831   7.755
 1531WAT     H2 4836   1.156   8.973   7.834
 1532WAT      O 4837   5.372   0.178   1.265
 1532WAT     H1 4838   5.305   0.180   1.191
 1532WAT     H2 4839   5.367   0.263   1.317
 1533WAT      O 4840   3.510   5.976   9.270
 1533WAT     H1 4841   3.533   6.071   9.246
 1533WAT     H2 4842   3.565   5.913   9.216
 1534WAT      O 4843   5.477   3.859   1.866
 1534WAT     H1 4844   5.505   3.860   1.962
 1534WAT     H2 4845   5.382   3.890   1.859
 1535WAT      O 4846   3.689   0.146   8.210
 1535WAT     H1 4847   3.635   0.226   8.184
 1535WAT     H2 4848   3.702   0.088   8.130
 1536WAT      O 4849   8.432   1.817   4.127
 1536WAT     H1 4850   8.409   1.911   4.100
 1536WAT     H2 4851   8.465   1.767   4.048
 1537WAT      O 4852   1.639   7.501   1.280
 1537WAT     H1 4853   1.655   7.578   1.341
 1537WAT     H2 4854   1.550   7.511   1.235
 1538WAT      O 4855   8.002   0.816   7.375
 1538WAT     H1 4856   7.944   0.759   7.316
 1538WAT     H2 4857   7.993   0.786   7.470
 1539WAT      O 4858   1.887   5.287   8.229
 1539WAT     H1 4859   1.923   5.380   8.223
 1539WAT     H2 4860   1.791   5.289   8.256
 1540WAT      O 4861   3.390   6.028   4.246
 1540WAT     H1 4862   3.333   5.977   4.311
 1540WAT     H2 4863   3.420   6.114   4.287
 1541WAT      O 4864   5.313   1.109   0.020
 1541WAT     H1 4865   5.355   1.052  -0.050
 1541WAT     H2 4866   5.275   1.050   0.092
 1542WAT      O 4867   8.518   7.350   3.538
 1542WAT     H1 4868   8.614   7.330   3.558
 1542WAT     H2 4869   8.485   7.290   3.465
 1543WAT      O 4870   3.170   0.347   7.666
 1543WAT     H1 4871   3.162   0.301   7.754
 1543WAT     H2 4872   3.138   0.442   7.675
 1544WAT      O 4873   6.734   4.911   3.160
 1544WAT     H1 4874   6.784   4.992   3.191
 1544WAT     H2 4875   6.637   4.922   3.182
 1545WAT      O 4876   7.253   9.632   5.937
 1545WAT     H1 4877   7.262   9.624   6.037
 1545WAT     H2 4878   7.295   9.552   5.894
 1546WAT      O 4879   2.449   0.918   8.269
 1546WAT     H1 4880   2.429   1.014   8.252
 1546WAT     H2 4881   2.547   0.902   8.256
 1547WAT      O 4882   9.448   4.165   9.741
 1547WAT     H1 4883   9.396   4.174   9.826
 1547WAT     H2 4884   9.397   4.207   9.666
 1548WAT      O 4885   1.928   7.795   5.512
 1548WAT     H1 4886   1.833   7.774   5.489
 1548WAT     H2 4887   1.959   7.874   5.459
 1549WAT      O 4888   1.974   5.226   2.918
 1549WAT     H1 4889   2.002   5.249   3.011
 1549WAT     H2 4890   1.913   5.147   2.920
 1550WAT      O 4891   6.425   8.178   2.496
 1550WAT     H1 4892   6.518   8.142   2.485
 1550WAT     H2 4893   6.429   8.271   2.532
 1551WAT      O 4894   2.522   3.136   3.418
 1551WAT     H1 4895   2.527   3.063   3.350
 1551WAT     H2 4896   2.574   3.215   3.386
 1552WAT      O 4897   0.581   4.298   0.046
 1552WAT     H1 4898   0.500   4.260   0.001
 1552WAT     H2 4899   0.561   4.313   0.143
 1553WAT      O 4900   6.057   3.784   1.283
 1553WAT     H1 4901   6.052   3.860   1.348
 1553WAT     H2 4902   6.034   3.699   1.329
 1554WAT      O 4903   6.019   7.426   9.360
 1554WAT     H1 4904   5.932   7.377   9.355
 1554WAT     H2 4905   6.038   7.472   9.273
 1555WAT      O 4906   0.213   1.911   4.359
 1555WAT     H1 4907   0.269   1.947   4.284
 1555WAT     H2 4908   0.273   1.886   4.435
 1556WAT      O 4909   0.807   2.705   4.484
 1556WAT     H1 4910   0.889   2.683   4.537
 1556WAT     H2 4911   0.834   2.737   4.393
 1557WAT      O 4912   3.372   0.478   0.007
 1557WAT     H1 4913   3.397   0.575  -0.002
 1557WAT     H2 4914   3.359   0.438  -0.083
 1558WAT      O 4915   4.023   8.007   5.215
 1558WAT     H1 4916   4.119   8.007   5.244
 1558WAT     H2 4917   4.018   8.005   5.115
 1559WAT      O 4918   0.595   7.988   0.512
 1559WAT     H1 4919   0.601   7.982   0.412
 1559WAT     H2 4920   0.499   7.984   0.540
 1560WAT      O 4921   6.495   6.053   3.046
 1560WAT     H1 4922   6.440   5.971   3.061
 1560WAT     H2 4923   6.456   6.106   2.970
 1561WAT      O 4924   7.384   5.998   6.095
 1561WAT     H1 4925   7.364   5.902   6.073
 1561WAT     H2 4926   7.359   6.017   6.190
 1562WAT      O 4927   4.190   2.822   6.284
 1562WAT     H1 4928   4.242   2.825   6.199
 1562WAT     H2 4929   4.208   2.906   6.336
 1563WAT      O 4930   2.000   5.344   5.066
 1563WAT     H1 4931   2.008   5.444   5.073
 1563WAT     H2 4932   1.912   5.320   5.027
 1564WAT      O 4933   2.681   8.413   0.350
 1564WAT     H1 4934   2.658   8.456   0.437
 1564WAT     H2 4935   2.712   8.319   0.366
 1565WAT      O 4936   2.967   7.105   6.995
 1565WAT     H1 4937   2.954   7.164   6.915
 1565WAT     H2 4938   2.890   7.042   7.002
 1566WAT      O 4939   0.375   1.021   6.614
 1566WAT     H1 4940   0.446   0.956   6.585
 1566WAT     H2 4941   0.286   0.987   6.584
 1567WAT      O 4942   1.210   0.284   7.363
 1567WAT     H1 4943   1.148   0.363   7.357
 1567WAT     H2 4944   1.277   0.289   7.289
 1568WAT      O 4945   1.118   5.920   2.728
 1568WAT     H1 4946   1.178   5.860   2.782
 1568WAT     H2 4947   1.054   5.864   2.675
 1569WAT      O 4948   3.922   5.493   6.494
 1569WAT     H1 4949   3.852   5.502   6.423
 1569WAT     H2 4950   3.953   5.398   6.498
 1570WAT      O 4951   2.898   5.723   5.140
 1570WAT     H1 4952   2.824   5.763   5.085
 1570WAT     H2 4953   2.932   5.640   5.096
 1571WAT      O 4954   4.795   9.840   6.955
 1571WAT     H1 4955   4.821   9.824   7.051
 1571WAT     H2 4956   4.700   9.812   6.941
 1572WAT      O 4957   5.164   7.181   7.333
 1572WAT     H1 4958   5.250   7.129   7.335
 1572WAT     H2 4959   5.173   7.262   7.391
 1573WAT      O 4960   1.020   8.504   1.318
 1573WAT     H1 4961   1.022   8.601   1.341
 1573WAT     H2 4962   0.970   8.491   1.233
 1574WAT      O 4963   8.623   8.050   3.082
 1574WAT     H1 4964   8.671   8.069   3.167
 1574WAT     H2 4965   8.626   7.952   3.063
 1575WAT      O 4966   9.479   3.681   9.055
 1575WAT     H1 4967   9.389   3.666   9.097
 1575WAT     H2 4968   9.468   3.733   8.971
 1576WAT      O 4969   1.448   9.402   9.687
 1576WAT     H1 4970   1.518   9.364   9.626
 1576WAT     H2 4971   1.479   9.393   9.782
 1577WAT      O 4972   3.893   6.412   3.848
 1577WAT     H1 4973   3.856   6.491   3.798
 1577WAT     H2 4974   3.848   6.329   3.815
 1578WAT      O 4975   5.367   6.670   4.808
 1578WAT     H1 4976   5.417   6.694   4.724
 1578WAT     H2 4977   5.290   6.611   4.785
 1579WAT      O 4978   7.124   0.839   4.632
 1579WAT     H1 4979   7.063   0.817   4.708
 1579WAT     H2 4980   7.127   0.762   4.568
 1580WAT      O 4981   7.937   5.875   0.503
 1580WAT     H1 4982   7.955   5.810   0.429
 1580WAT     H2 4983   8.024   5.901   0.546
 1581WAT      O 4984   0.584   7.752   7.778
 1581WAT     H1 4985   0.563   7.841   7.737
 1581WAT     H2 4986   0.654   7.763   7.849
 1582WAT      O 4987   7.844   7.297   6.556
 1582WAT     H1 4988   7.858   7.207   6.598
 1582WAT     H2 4989   7.784   7.352   6.614
 1583WAT      O 4990   7.515   9.280   7.985
 1583WAT     H1 4991   7.445   9.282   7.913
 1583WAT     H2 4992   7.585   9.348   7.966
 1584WAT      O 4993   0.256   2.775   6.980
 1584WAT     H1 4994   0.161   2.785   6.948
 1584WAT     H2 4995   0.312   2.846   6.938
 1585WAT      O 4996   1.928   0.987   5.929
 1585WAT     H1 4997   1.965   0.923   5.997
 1585WAT     H2 4998   1.994   1.059   5.912
 1586WAT      O 4999   4.823   3.373   2.319
 1586WAT     H1 5000   4.780   3.311   2.385
 1586WAT     H2 5001   4.789   3.354   2.227
 1587WAT      O 5002   1.405   0.703   1.611
 1587WAT     H1 5003   1.365   0.626   1.660
 1587WAT     H2 5004   1.332   0.754   1.565
 1588WAT      O 5005   0.522   8.048   0.253
 1588WAT     H1 5006   0.591   8.026   0.184
 1588WAT     H2 5007   0.436   8.002   0.231
 1589WAT      O 5008   4.721   7.552   4.811
 1589WAT     H1 5009   4.771   7.553   4.725
 1589WAT     H2 5010   4.769   7.494   4.877
 1590WAT      O 5011   4.364   5.915   0.940
 1590WAT     H1 5012   4.272   5.946   0.916
 1590WAT     H2 5013   4.425   5.995   0.947
 1591WAT      O 5014   9.850   4.806   0.521
 1591WAT     H1 5015   9.872   4.828   0.426
 1591WAT     H2 5016   9.770   4.746   0.524
 1592WAT      O 5017   1.159   7.662   5.849
 1592WAT     H1 5018   1.165   7.569   5.885
 1592WAT     H2 5019   1.091   7.665   5.776
 1593WAT      O 5020   7.843   6.549   8.496
 1593WAT     H1 5021   7.893   6.633   8.517
 1593WAT     H2 5022   7.753   6.552   8.540
 1594WAT      O 5023   9.163   8.440   3.289
 1594WAT     H1 5024   9.247   8.443   3.235
 1594WAT     H2 5025   9.178   8.384   3.371
 1595WAT      O 5026   2.002   7.848   9.577
 1595WAT     H1 5027   2.043   7.892   9.498
 1595WAT     H2 5028   2.072   7.830   9.646
 1596WAT      O 5029   2.721   4.956   2.228
 1596WAT     H1 5030   2.715   4.877   2.167
 1596WAT     H2 5031   2.810   5.000   2.216
 1597WAT      O 5032   0.323   9.217   0.888
 1597WAT     H1 5033   0.230   9.245   0.912
 1597WAT     H2 5034   0.362   9.282   0.823
 1598WAT      O 5035   0.516   5.480   4.744
 1598WAT     H1 5036   0.615   5.468   4.753
 1598WAT     H2 5037   0.471   5.454   4.829
 1599WAT      O 5038   3.236   3.973   0.153
 1599WAT     H1 5039   3.149   3.944   0.192
 1599WAT     H2 5040   3.293   4.014   0.225
 1600WAT      O 5041   4.134   5.354   5.802
 1600WAT     H1 5042   4.163   5.440   5.761
 1600WAT     H2 5043   4.157   5.278   5.742
 1601WAT      O 5044   2.791   7.459   5.458
 1601WAT     H1 5045   2.788   7.537   5.520
 1601WAT     H2 5046   2.771   7.375   5.508
 1602WAT      O 5047   2.207   7.695   1.075
 1602WAT     H1 5048   2.168   7.781   1.106
 1602WAT     H2 5049   2.195   7.625   1.146
 1603WAT      O 5050   2.672   7.781   3.707
 1603WAT     H1 5051   2.573   7.785   3.700
 1603WAT     H2 5052   2.705   7.859   3.760
 1604WAT      O 5053   4.155   3.613   3.871
 1604WAT     H1 5054   4.231   3.595   3.808
 1604WAT     H2 5055   4.073   3.567   3.838
 1605WAT      O 5056   3.075   6.238   6.949
 1605WAT     H1 5057   3.035   6.305   7.011
 1605WAT     H2 5058   3.163   6.272   6.916
 1606WAT      O 5059   5.403   7.077   6.217
 1606WAT     H1 5060   5.347   7.033   6.146
 1606WAT     H2 5061   5.450   7.007   6.270
 1607WAT      O 5062   3.640   2.268   6.671
 1607WAT     H1 5063   3.637   2.169   6.686
 1607WAT     H2 5064   3.675   2.287   6.580
 1608WAT      O 5065   0.634   7.169   1.910
 1608WAT     H1 5066   0.654   7.119   1.994
 1608WAT     H2 5067   0.688   7.253   1.907
 1609WAT      O 5068   6.304   5.975   6.864
 1609WAT     H1 5069   6.373   5.956   6.794
 1609WAT     H2 5070   6.214   5.943   6.832
 1610WAT      O 5071   7.891   5.823   0.106
 1610WAT     H1 5072   7.946   5.878   0.044
 1610WAT     H2 5073   7.939   5.814   0.194
 1611WAT      O 5074   1.770   1.363   0.444
 1611WAT     H1 5075   1.752   1.416   0.361
 1611WAT     H2 5076   1.834   1.414   0.502
 1612WAT      O 5077   3.726   2.036   7.726
 1612WAT     H1 5078   3.681   2.051   7.814
 1612WAT     H2 5079   3.672   2.077   7.653
 1613WAT      O 5080   3.873   3.870   8.953
 1613WAT     H1 5081   3.895   3.958   8.912
 1613WAT     H2 5082   3.865   3.880   9.052
 1614WAT      O 5083   7.077   2.426   2.479
 1614WAT     H1 5084   7.080   2.483   2.562
 1614WAT     H2 5085   6.999   2.363   2.485
 1615WAT      O 5086   9.075   0.135   7.323
 1615WAT     H1 5087   8.982   0.099   7.330
 1615WAT     H2 5088   9.086   0.211   7.387
 1616WAT      O 5089   5.669   8.446   5.648
 1616WAT     H1 5090   5.674   8.543   5.624
 1616WAT     H2 5091   5.730   8.429   5.726
 1617WAT      O 5092   0.208   3.180   5.311
 1617WAT     H1 5093   0.298   3.167   5.270
 1617WAT     H2 5094   0.198   3.120   5.391
 1618WAT      O 5095   1.157   0.930   9.571
 1618WAT     H1 5096   1.170   0.889   9.661
 1618WAT     H2 5097   1.082   0.996   9.575
 1619WAT      O 5098   6.140   0.117   3.832
 1619WAT     H1 5099   6.180   0.105   3.741
 1619WAT     H2 5100   6.141   0.030   3.880
 1620WAT      O 5101   4.951   4.414   6.082
 1620WAT     H1 5102   4.997   4.372   6.161
 1620WAT     H2 5103   4.942   4.348   6.009
 1621WAT      O 5104   2.635   2.740   8.074
 1621WAT     H1 5105   2.566   2.769   8.140
 1621WAT     H2 5106   2.639   2.805   7.999
 1622WAT      O 5107   3.393   0.842   8.431
 1622WAT     H1 5108   3.420   0.793   8.348
 1622WAT     H2 5109   3.345   0.926   8.406
 1623WAT      O 5110   3.688   1.731   7.674
 1623WAT     H1 5111   3.707   1.635   7.655
 1623WAT     H2 5112   3.760   1.768   7.734
 1624WAT      O 5113   2.300   3.681   3.432
 1624WAT     H1 5114   2.256   3.622   3.500
 1624WAT     H2 5115   2.230   3.738   3.387
 1625WAT      O 5116   1.400   0.539   6.618
 1625WAT     H1 5117   1.358   0.624   6.586
 1625WAT     H2 5118   1.480   0.518   6.562
 1626WAT      O 5119   5.455   9.796   0.633
 1626WAT     H1 5120   5.503   9.769   0.550
 1626WAT     H2 5121   5.514   9.782   0.712
 1627WAT      O 5122   2.881   6.359   5.304
 1627WAT     H1 5123   2.883   6.322   5.397
 1627WAT     H2 5124   2.811   6.431   5.299
 1628WAT      O 5125   0.508   4.718   2.562
 1628WAT     H1 5126   0.422   4.686   2.602
 1628WAT     H2 5127   0.539   4.800   2.611
 1629WAT      O 5128   3.100   6.623   0.578
 1629WAT     H1 5129   3.032   6.697   0.580
 1629WAT     H2 5130   3.158   6.633   0.497
 1630WAT      O 5131   6.392   3.810   2.216
 1630WAT     H1 5132   6.395   3.809   2.316
 1630WAT     H2 5133   6.331   3.738   2.184
 1631WAT      O 5134   3.204   3.182   7.479
 1631WAT     H1 5135   3.188   3.083   7.484
 1631WAT     H2 5136   3.241   3.206   7.389
 1632WAT      O 5137   8.456   4.274   7.237
 1632WAT     H1 5138   8.425   4.284   7.142
 1632WAT     H2 5139   8.377   4.277   7.298
 1633WAT      O 5140   7.579   4.707   3.396
 1633WAT     H1 5141   7.619   4.678   3.309
 1633WAT     H2 5142   7.529   4.631   3.436
 1634WAT      O 5143   2.805   1.072   8.885
 1634WAT     H1 5144   2.852   1.012   8.950
 1634WAT     H2 5145   2.736   1.126   8.933
 1635WAT      O 5146   9.345   8.629   0.904
 1635WAT     H1 5147   9.335   8.643   0.805
 1635WAT     H2 5148   9.256   8.640   0.948
 1636WAT      O 5149   6.094   7.964   9.713
 1636WAT     H1 5150   6.017   7.904   9.738
 1636WAT     H2 5151   6.073   8.057   9.742
 1637WAT      O 5152   9.639   6.853   4.004
 1637WAT     H1 5153   9.729   6.814   3.984
 1637WAT     H2 5154   9.633   6.945   3.965
 1638WAT      O 5155   9.151   8.892   9.620
 1638WAT     H1 5156   9.060   8.884   9.581
 1638WAT     H2 5157   9.185   8.802   9.647
 1639WAT      O 5158   2.548   6.404   3.793
 1639WAT     H1 5159   2.534   6.313   3.831
 1639WAT     H2 5160   2.512   6.473   3.856
 1640WAT      O 5161   1.834   7.723   7.939
 1640WAT     H1 5162   1.739   7.734   7.966
 1640WAT     H2 5163   1.848   7.631   7.902
 1641WAT      O 5164   2.289   2.832   5.668
 1641WAT     H1 5165   2.246   2.744   5.690
 1641WAT     H2 5166   2.222   2.893   5.627
 1642WAT      O 5167   1.125   2.526   1.589
 1642WAT     H1 5168   1.129   2.426   1.594
 1642WAT     H2 5169   1.038   2.554   1.548
 1643WAT      O 5170   8.357   7.595   1.543
 1643WAT     H1 5171   8.414   7.670   1.575
 1643WAT     H2 5172   8.355   7.595   1.443
 1644WAT      O 5173   6.385   4.055   7.257
 1644WAT     H1 5174   6.368   4.000   7.339
 1644WAT     H2 5175   6.313   4.123   7.247
 1645WAT      O 5176   0.787   0.058   0.073
 1645WAT     H1 5177   0.771  -0.013   0.142
 1645WAT     H2 5178   0.808   0.015  -0.014
 1646WAT      O 5179   6.132   0.347   2.738
 1646WAT     H1 5180   6.228   0.369   2.756
 1646WAT     H2 5181   6.119   0.248   2.739
 1647WAT      O 5182   3.296   2.773   3.428
 1647WAT     H1 5183   3.203   2.779   3.394
 1647WAT     H2 5184   3.352   2.721   3.364
 1648WAT      O 5185   6.766   2.606   9.600
 1648WAT     H1 5186   6.831   2.565   9.538
 1648WAT     H2 5187   6.755   2.703   9.579
 1649WAT      O 5188   0.448   6.956   4.658
 1649WAT     H1 5189   0.373   6.904   4.698
 1649WAT     H2 5190   0.508   6.894   4.607
 1650WAT      O 5191   3.202   8.821   9.588
 1650WAT     H1 5192   3.153   8.901   9.622
 1650WAT     H2 5193   3.292   8.849   9.555
 1651WAT      O 5194   9.612   1.213   1.038
 1651WAT     H1 5195   9.641   1.176   1.126
 1651WAT     H2 5196   9.534   1.160   1.004
 1652WAT      O 5197   0.780   8.617   6.705
 1652WAT     H1 5198   0.802   8.645   6.798
 1652WAT     H2 5199   0.688   8.579   6.702
 1653WAT      O 5200   9.289   0.608   7.824
 1653WAT     H1 5201   9.198   0.585   7.857
 1653WAT     H2 5202   9.282   0.647   7.732
 1654WAT      O 5203   8.054   2.238   2.227
 1654WAT     H1 5204   8.108   2.192   2.298
 1654WAT     H2 5205   8.096   2.326   2.204
 1655WAT      O 5206   7.942   2.321   4.980
 1655WAT     H1 5207   7.915   2.365   4.895
 1655WAT     H2 5208   8.029   2.273   4.967
 1656WAT      O 5209   0.923   5.424   0.477
 1656WAT     H1 5210   0.937   5.509   0.527
 1656WAT     H2 5211   0.939   5.346   0.538
 1657WAT      O 5212   6.912   2.898   4.025
 1657WAT     H1 5213   6.862   2.832   4.080
 1657WAT     H2 5214   7.002   2.862   4.003
 1658WAT      O 5215   9.147   7.758   9.132
 1658WAT     H1 5216   9.097   7.841   9.109
 1658WAT     H2 5217   9.084   7.681   9.138
 1659WAT      O 5218   8.560   2.478   8.675
 1659WAT     H1 5219   8.612   2.481   8.760
 1659WAT     H2 5220   8.531   2.571   8.650
 1660WAT      O 5221   5.808   5.831   3.234
 1660WAT     H1 5222   5.823   5.732   3.237
 1660WAT     H2 5223   5.802   5.860   3.139
 1661WAT      O 5224   8.374   7.579   3.563
 1661WAT     H1 5225   8.423   7.493   3.556
 1661WAT     H2 5226   8.383   7.630   3.478
 1662WAT      O 5227   8.546   9.431   1.969
 1662WAT     H1 5228   8.532   9.387   2.058
 1662WAT     H2 5229   8.465   9.418   1.912
 1663WAT      O 5230   8.696   1.561   6.108
 1663WAT     H1 5231   8.651   1.644   6.075
 1663WAT     H2 5232   8.766   1.585   6.175
 1664WAT      O 5233   9.502   5.383   0.227
 1664WAT     H1 5234   9.542   5.411   0.314
 1664WAT     H2 5235   9.404   5.371   0.237
 1665WAT      O 5236   1.287   9.585   4.995
 1665WAT     H1 5237   1.328   9.557   4.908
 1665WAT     H2 5238   1.259   9.681   4.989
 1666WAT      O 5239   6.182   7.794   0.626
 1666WAT     H1 5240   6.222   7.827   0.541
 1666WAT     H2 5241   6.182   7.867   0.694
 1667WAT      O 5242   7.329   4.598   4.486
 1667WAT     H1 5243   7.418   4.632   4.517
 1667WAT     H2 5244   7.304   4.518   4.539
 1668WAT      O 5245   4.436   7.519   2.571
 1668WAT     H1 5246   4.424   7.562   2.481
 1668WAT     H2 5247   4.421   7.421   2.563
 1669WAT      O 5248   2.119   3.782   5.614
 1669WAT     H1 5249   2.100   3.809   5.520
 1669WAT     H2 5250   2.177   3.700   5.615
 1670WAT      O 5251   3.890   7.432   2.980
 1670WAT     H1 5252   3.960   7.375   3.024
 1670WAT     H2 5253   3.925   7.465   2.892
 1671WAT      O 5254   0.019   8.427   3.487
 1671WAT     H1 5255   0.052   8.484   3.561
 1671WAT     H2 5256   0.037   8.471   3.399
 1672WAT      O 5257   4.908   6.179   8.196
 1672WAT     H1 5258   4.982   6.219   8.250
 1672WAT     H2 5259   4.943   6.102   8.143
 1673WAT      O 5260   6.434   8.693   8.074
 1673WAT     H1 5261   6.471   8.601   8.083
 1673WAT     H2 5262   6.341   8.695   8.110
 1674WAT      O 5263   2.029   9.628   1.662
 1674WAT     H1 5264   2.055   9.645   1.757
 1674WAT     H2 5265   1.943   9.675   1.642
 1675WAT      O 5266   2.181   4.463   8.507
 1675WAT     H1 5267   2.205   4.422   8.419
 1675WAT     H2 5268   2.260   4.460   8.568
 1676WAT      O 5269   0.314   6.995   1.467
 1676WAT     H1 5270   0.304   6.903   1.428
 1676WAT     H2 5271   0.295   6.991   1.565
 1677WAT      O 5272   6.743   8.001   1.709
 1677WAT     H1 5273   6.830   8.030   1.670
 1677WAT     H2 5274   6.729   8.045   1.798
 1678WAT      O 5275   0.843   7.761   0.868
 1678WAT     H1 5276   0.800   7.741   0.781
 1678WAT     H2 5277   0.778   7.745   0.942
 1679WAT      O 5278   1.205   1.528   3.671
 1679WAT     H1 5279   1.151   1.593   3.723
 1679WAT     H2 5280   1.199   1.550   3.573
 1680WAT      O 5281   2.741   6.362   1.208
 1680WAT     H1 5282   2.838   6.379   1.227
 1680WAT     H2 5283   2.714   6.275   1.249
 1681WAT      O 5284   6.768   5.363   5.606
 1681WAT     H1 5285   6.792   5.278   5.654
 1681WAT     H2 5286   6.844   5.390   5.546
 1682WAT      O 5287   2.986   2.552   2.643
 1682WAT     H1 5288   2.982   2.459   2.680
 1682WAT     H2 5289   2.943   2.615   2.708
 1683WAT      O 5290   7.676   5.896   3.067
 1683WAT     H1 5291   7.580   5.919   3.082
 1683WAT     H2 5292   7.687   5.796   3.072
 1684WAT      O 5293   8.277   3.671   3.807
 1684WAT     H1 5294   8.200   3.663   3.744
 1684WAT     H2 5295   8.293   3.768   3.828
 1685WAT      O 5296   8.986   5.340   1.821
 1685WAT     H1 5297   9.032   5.378   1.901
 1685WAT     H2 5298   9.033   5.371   1.738
 1686WAT      O 5299   5.984   9.835   6.992
 1686WAT     H1 5300   5.985   9.933   6.973
 1686WAT     H2 5301   6.000   9.784   6.907
 1687WAT      O 5302   8.451   9.521   1.528
 1687WAT     H1 5303   8.358   9.547   1.503
 1687WAT     H2 5304   8.513   9.541   1.451
 1688WAT      O 5305   4.284   1.389   8.042
 1688WAT     H1 5306   4.274   1.438   8.129
 1688WAT     H2 5307   4.253   1.294   8.054
 1689WAT      O 5308   8.503   3.073   6.866
 1689WAT     H1 5309   8.468   3.106   6.779
 1689WAT     H2 5310   8.511   3.149   6.930
 1690WAT      O 5311   0.218   2.003   4.868
 1690WAT     H1 5312   0.166   1.992   4.952
 1690WAT     H2 5313   0.198   1.927   4.806
 1691WAT      O 5314   0.973   4.400   0.936
 1691WAT     H1 5315   1.022   4.464   0.877
 1691WAT     H2 5316   0.874   4.415   0.926
 1692WAT      O 5317   7.005   5.780   4.002
 1692WAT     H1 5318   7.011   5.749   4.097
 1692WAT     H2 5319   6.977   5.876   3.999
 1693WAT      O 5320   5.279   2.233   8.193
 1693WAT     H1 5321   5.362   2.223   8.138
 1693WAT     H2 5322   5.263   2.149   8.245
 1694WAT      O 5323   7.377   8.175   3.613
 1694WAT     H1 5324   7.440   8.101   3.636
 1694WAT     H2 5325   7.375   8.188   3.514
 1695WAT      O 5326   9.579   5.321   0.914
 1695WAT     H1 5327   9.621   5.412   0.921
 1695WAT     H2 5328   9.482   5.328   0.936
 1696WAT      O 5329   8.824   1.106   9.391
 1696WAT     H1 5330   8.902   1.161   9.361
 1696WAT     H2 5331   8.803   1.127   9.486
 1697WAT      O 5332   7.835   1.596   0.740
 1697WAT     H1 5333   7.925   1.600   0.697
 1697WAT     H2 5334   7.797   1.688   0.746
 1698WAT      O 5335   1.631   2.191   4.073
 1698WAT     H1 5336   1.672   2.167   4.161
 1698WAT     H2 5337   1.563   2.122   4.049
 1699WAT      O 5338   4.300   5.956   7.321
 1699WAT     H1 5339   4.385   5.954   7.269
 1699WAT     H2 5340   4.299   6.038   7.379
 1700WAT      O 5341   5.033   9.356   3.976
 1700WAT     H1 5342   5.034   9.346   3.876
 1700WAT     H2 5343   5.003   9.271   4.018
 1701WAT      O 5344   2.238   7.434   7.419
 1701WAT     H1 5345   2.166   7.440   7.350
 1701WAT     H2 5346   2.326   7.422   7.375
 1702WAT      O 5347   1.628   0.114   4.239
 1702WAT     H1 5348   1.684   0.073   4.168
 1702WAT     H2 5349   1.653   0.075   4.328
 1703WAT      O 5350   8.449   6.891   6.083
 1703WAT     H1 5351   8.393   6.951   6.141
 1703WAT     H2 5352   8.437   6.797   6.113
 1704WAT      O 5353   6.150   4.798   0.167
 1704WAT     H1 5354   6.115   4.740   0.093
 1704WAT     H2 5355   6.249   4.810   0.156
 1705WAT      O 5356   2.938   1.500   6.270
 1705WAT     H1 5357   2.861   1.460   6.321
 1705WAT     H2 5358   2.915   1.594   6.244
 1706WAT      O 5359   2.825   3.352   1.736
 1706WAT     H1 5360   2.852   3.267   1.691
 1706WAT     H2 5361   2.726   3.352   1.751
 1707WAT      O 5362   2.844   3.062   4.084
 1707WAT     H1 5363   2.905   3.133   4.119
 1707WAT     H2 5364   2.869   3.039   3.990
 1708WAT      O 5365   3.626   0.083   9.710
 1708WAT     H1 5366   3.651   0.145   9.785
 1708WAT     H2 5367   3.531   0.053   9.723
 1709WAT      O 5368   9.155   2.753   0.337
 1709WAT     H1 5369   9.058   2.769   0.319
 1709WAT     H2 5370   9.167   2.665   0.383
 1710WAT      O 5371   3.323   7.598   1.254
 1710WAT     H1 5372   3.420   7.600   1.233
 1710WAT     H2 5373   3.299   7.511   1.297
 1711WAT      O 5374   5.810   4.564   7.402
 1711WAT     H1 5375   5.762   4.518   7.476
 1711WAT     H2 5376   5.785   4.522   7.315
 1712WAT      O 5377   6.316   8.788   9.746
 1712WAT     H1 5378   6.257   8.848   9.799
 1712WAT     H2 5379   6.388   8.841   9.703
 1713WAT      O 5380   1.332   5.230   6.228
 1713WAT     H1 5381   1.341   5.131   6.233
 1713WAT     H2 5382   1.399   5.266   6.162
 1714WAT      O 5383   1.397   9.829   2.601
 1714WAT     H1 5384   1.370   9.925   2.611
 1714WAT     H2 5385   1.482   9.813   2.650
 1715WAT      O 5386   3.062   5.572   3.016
 1715WAT     H1 5387   3.044   5.500   2.949
 1715WAT     H2 5388   3.122   5.537   3.088
 1716WAT      O 5389   4.116   0.378   4.960
 1716WAT     H1 5390   4.135   0.475   4.977
 1716WAT     H2 5391   4.138   0.357   4.864
 1717WAT      O 5392   3.583   1.657   8.878
 1717WAT     H1 5393   3.565   1.633   8.782
 1717WAT     H2 5394   3.671   1.704   8.885
 1718WAT      O 5395   0.677   0.890   0.037
 1718WAT     H1 5396   0.714   0.871  -0.054
 1718WAT     H2 5397   0.706   0.982   0.066
 1719WAT      O 5398   7.495   3.136   4.101
 1719WAT     H1 5399   7.408   3.088   4.094
 1719WAT     H2 5400   7.497   3.187   4.188
 1720WAT      O 5401   4.772   8.637   3.734
 1720WAT     H1 5402   4.687   8.660   3.782
 1720WAT     H2 5403   4.754   8.568   3.664
 1721WAT      O 5404   6.743   6.498   0.270
 1721WAT     H1 5405   6.748   6.582   0.217
 1721WAT     H2 5406   6.754   6.518   0.367
 1722WAT      O 5407   8.016   7.288   2.331
 1722WAT     H1 5408   8.008   7.355   2.404
 1722WAT     H2 5409   7.927   7.244   2.317
 1723WAT      O 5410   3.617   1.915   7.476
 1723WAT     H1 5411   3.521   1.941   7.490
 1723WAT     H2 5412   3.641   1.842   7.541
 1724WAT      O 5413   6.037   5.740   5.446
 1724WAT     H1 5414   6.017   5.838   5.458
 1724WAT     H2 5415   5.952   5.691   5.425
 1725WAT      O 5416   7.483   7.456   9.051
 1725WAT     H1 5417   7.580   7.473   9.033
 1725WAT     H2 5418   7.467   7.459   9.150
 1726WAT      O 5419   1.755   8.622   4.257
 1726WAT     H1 5420   1.706   8.536   4.241
 1726WAT     H2 5421   1.817   8.610   4.335
 1727WAT      O 5422   6.937   9.600   7.603
 1727WAT     H1 5423   7.011   9.574   7.540
 1727WAT     H2 5424   6.951   9.555   7.691
 1728WAT      O 5425   8.533   1.573   1.916
 1728WAT     H1 5426   8.503   1.656   1.868
 1728WAT     H2 5427   8.453   1.527   1.955
 1729WAT      O 5428   5.276   5.921   9.517
 1729WAT     H1 5429   5.319   5.848   9.571
 1729WAT     H2 5430   5.242   5.992   9.579
 1730WAT      O 5431   5.855   2.369   5.528
 1730WAT     H1 5432   5.760   2.370   5.499
 1730WAT     H2 5433   5.865   2.318   5.613
 1731WAT      O 5434   2.051   7.179   9.157
 1731WAT     H1 5435   1.988   7.101   9.161
 1731WAT     H2 5436   2.126   7.164   9.222
 1732WAT      O 5437   2.847   3.135   1.533
 1732WAT     H1 5438   2.772   3.146   1.467
 1732WAT     H2 5439   2.935   3.143   1.486
 1733WAT      O 5440   8.315   3.829   4.625
 1733WAT     H1 5441   8.241   3.802   4.687
 1733WAT     H2 5442   8.358   3.912   4.661
 1734WAT      O 5443   9.787   9.613   0.250
 1734WAT     H1 5444   9.817   9.590   0.158
 1734WAT     H2 5445   9.825   9.548   0.316
 1735WAT      O 5446   1.424   4.917   4.826
 1735WAT     H1 5447   1.405   4.998   4.770
 1735WAT     H2 5448   1.424   4.942   4.923
 1736WAT      O 5449   0.247   1.949   8.815
 1736WAT     H1 5450   0.230   2.014   8.742
 1736WAT     H2 5451   0.249   1.856   8.778
 1737WAT      O 5452   8.509   4.881   1.928
 1737WAT     H1 5453   8.534   4.898   2.023
 1737WAT     H2 5454   8.570   4.932   1.867
 1738WAT      O 5455   7.114   9.627   1.981
 1738WAT     H1 5456   7.063   9.569   2.045
 1738WAT     H2 5457   7.103   9.723   2.007
 1739WAT      O 5458   2.169   1.719   0.307
 1739WAT     H1 5459   2.178   1.817   0.325
 1739WAT     H2 5460   2.074   1.698   0.283
 1740WAT      O 5461   5.522   2.919   3.552
 1740WAT     H1 5462   5.463   2.939   3.474
 1740WAT     H2 5463   5.554   2.825   3.547
 1741WAT      O 5464   8.931   8.519   9.261
 1741WAT     H1 5465   8.897   8.540   9.353
 1741WAT     H2 5466   8.859   8.541   9.194
 1742WAT      O 5467   8.722   2.798   6.235
 1742WAT     H1 5468   8.707   2.772   6.330
 1742WAT     H2 5469   8.810   2.845   6.227
 1743WAT      O 5470   3.306   5.639   6.195
 1743WAT     H1 5471   3.361   5.710   6.240
 1743WAT     H2 5472   3.235   5.607   6.258
 1744WAT      O 5473   8.768   8.581   4.163
 1744WAT     H1 5474   8.841   8.513   4.172
 1744WAT     H2 5475   8.723   8.569   4.074
 1745WAT      O 5476   8.538   9.827   8.410
 1745WAT     H1 5477   8.550   9.737   8.452
 1745WAT     H2 5478   8.616   9.885   8.434
 1746WAT      O 5479   2.209   9.753   2.962
 1746WAT     H1 5480   2.148   9.703   2.901
 1746WAT     H2 5481   2.154   9.806   3.028
 1747WAT      O 5482   6.663   5.651   6.218
 1747WAT     H1 5483   6.758   5.630   6.198
 1747WAT     H2 5484   6.605   5.577   6.184
 1748WAT      O 5485   3.935   1.437   0.642
 1748WAT     H1 5486   3.994   1.515   0.623
 1748WAT     H2 5487   3.938   1.415   0.739
 1749WAT      O 5488   4.453   4.072   7.761
 1749WAT     H1 5489   4.424   4.068   7.665
 1749WAT     H2 5490   4.470   4.167   7.786
 1750WAT      O 5491   3.528   0.201   7.272
 1750WAT     H1 5492   3.560   0.154   7.355
 1750WAT     H2 5493   3.462   0.271   7.297
 1751WAT      O 5494   6.410   4.665   0.568
 1751WAT     H1 5495   6.448   4.729   0.635
 1751WAT     H2 5496   6.349   4.600   0.613
 1752WAT      O 5497   1.853   1.912   0.360
 1752WAT     H1 5498   1.785   1.887   0.428
 1752WAT     H2 5499   1.863   1.838   0.293
 1753WAT      O 5500   8.504   3.668   6.403
 1753WAT     H1 5501   8.506   3.603   6.327
 1753WAT     H2 5502   8.559   3.632   6.478
 1754WAT      O 5503   3.602   0.973   0.829
 1754WAT     H1 5504   3.643   0.884   0.808
 1754WAT     H2 5505   3.675   1.041   0.843
 1755WAT      O 5506   4.512   5.152   7.468
 1755WAT     H1 5507   4.460   5.099   7.535
 1755WAT     H2 5508   4.588   5.097   7.432
 1756WAT      O 5509   3.785   6.116   4.939
 1756WAT     H1 5510   3.700   6.063   4.947
 1756WAT     H2 5511   3.849   6.068   4.879
 1757WAT      O 5512   6.345   9.098   3.850
 1757WAT     H1 5513   6.374   9.091   3.755
 1757WAT     H2 5514   6.245   9.102   3.854
 1758WAT      O 5515   2.896   6.939   1.496
 1758WAT     H1 5516   2.831   6.963   1.424
 1758WAT     H2 5517   2.988   6.931   1.457
 1759WAT      O 5518   0.319   7.267   6.951
 1759WAT     H1 5519   0.419   7.267   6.947
 1759WAT     H2 5520   0.284   7.347   6.901
 1760WAT      O 5521   2.066   8.127   6.362
 1760WAT     H1 5522   1.978   8.173   6.348
 1760WAT     H2 5523   2.135   8.169   6.302
 1761WAT      O 5524   1.402   7.481   2.102
 1761WAT     H1 5525   1.366   7.505   2.192
 1761WAT     H2 5526   1.477   7.543   2.078
 1762WAT      O 5527   9.749   0.219   1.107
 1762WAT     H1 5528   9.790   0.232   1.197
 1762WAT     H2 5529   9.693   0.136   1.108
 1763WAT      O 5530   1.102   9.312   6.351
 1763WAT     H1 5531   1.143   9.222   6.350
 1763WAT     H2 5532   1.077   9.337   6.445
 1764WAT      O 5533   4.254   1.182   6.422
 1764WAT     H1 5534   4.257   1.177   6.522
 1764WAT     H2 5535   4.260   1.089   6.384
 1765WAT      O 5536   5.644   2.167   2.091
 1765WAT     H1 5537   5.629   2.266   2.092
 1765WAT     H2 5538   5.704   2.142   2.167
 1766WAT      O 5539   9.242   3.300   8.646
 1766WAT     H1 5540   9.277   3.326   8.736
 1766WAT     H2 5541   9.291   3.351   8.575
 1767WAT      O 5542   2.908   9.214   2.665
 1767WAT     H1 5543   2.887   9.125   2.705
 1767WAT     H2 5544   2.981   9.204   2.597
 1768WAT      O 5545   1.775   6.880   3.808
 1768WAT     H1 5546   1.746   6.937   3.884
 1768WAT     H2 5547   1.701   6.818   3.783
 1769WAT      O 5548   0.140   4.308   6.356
 1769WAT     H1 5549   0.199   4.262   6.290
 1769WAT     H2 5550   0.193   4.335   6.436
 1770WAT      O 5551   2.616   4.374   4.853
 1770WAT     H1 5552   2.550   4.342   4.921
 1770WAT     H2 5553   2.635   4.471   4.867
 1771WAT      O 5554   3.336   8.571   2.220
 1771WAT     H1 5555   3.415   8.623   2.188
 1771WAT     H2 5556   3.287   8.624   2.290
 1772WAT      O 5557   5.978   5.464   2.386
 1772WAT     H1 5558   5.961   5.556   2.420
 1772WAT     H2 5559   5.897   5.431   2.337
 1773WAT      O 5560   9.652   8.569   3.358
 1773WAT     H1 5561   9.713   8.557   3.436
 1773WAT     H2 5562   9.593   8.648   3.374
 1774WAT      O 5563   3.866   2.052   9.028
 1774WAT     H1 5564   3.804   2.128   9.014
 1774WAT     H2 5565   3.960   2.087   9.033
 1775WAT      O 5566   2.506   2.032   7.053
 1775WAT     H1 5567   2.507   2.102   7.124
 1775WAT     H2 5568   2.425   1.974   7.066
 1776WAT      O 5569   2.914   4.721   4.552
 1776WAT     H1 5570   2.924   4.805   4.497
 1776WAT     H2 5571   2.825   4.721   4.596
 1777WAT      O 5572   8.102   3.137   7.114
 1777WAT     H1 5573   8.051   3.123   7.199
 1777WAT     H2 5574   8.080   3.065   7.049
 1778WAT      O 5575   8.968   0.121   8.924
 1778WAT     H1 5576   8.870   0.139   8.918
 1778WAT     H2 5577   9.018   0.207   8.930
 1779WAT      O 5578   9.255   6.914   4.004
 1779WAT     H1 5579   9.228   6.902   4.099
 1779WAT     H2 5580   9.326   6.848   3.980
 1780WAT      O 5581   2.492   7.185   4.915
 1780WAT     H1 5582   2.404   7.146   4.942
 1780WAT     H2 5583   2.477   7.275   4.874
 1781WAT      O 5584   9.634   7.945   8.494
 1781WAT     H1 5585   9.722   7.907   8.466
 1781WAT     H2 5586   9.645   7.990   8.583
 1782WAT      O 5587   3.199   9.722   4.481
 1782WAT     H1 5588   3.227   9.813   4.512
 1782WAT     H2 5589   3.127   9.730   4.413
 1783WAT      O 5590   7.894   8.417   5.383
 1783WAT     H1 5591   7.854   8.329   5.410
 1783WAT     H2 5592   7.893   8.426   5.284
 1784WAT      O 5593   2.655   6.181   1.393
 1784WAT     H1 5594   2.670   6.189   1.492
 1784WAT     H2 5595   2.663   6.085   1.366
 1785WAT      O 5596   5.232   2.540   4.859
 1785WAT     H1 5597   5.292   2.587   4.924
 1785WAT     H2 5598   5.235   2.586   4.771
 1786WAT      O 5599   0.745   5.532   7.516
 1786WAT     H1 5600   0.792   5.444   7.507
 1786WAT     H2 5601   0.804   5.598   7.562
 1787WAT      O 5602   1.277   8.035   4.813
 1787WAT     H1 5603   1.215   7.964   4.779
 1787WAT     H2 5604   1.351   8.048   4.747
 1788WAT      O 5605   2.068   2.215   3.801
 1788WAT     H1 5606   2.070   2.171   3.891
 1788WAT     H2 5607   2.124   2.298   3.804
 1789WAT      O 5608   7.014   8.226   9.776
 1789WAT     H1 5609   7.012   8.255   9.680
 1789WAT     H2 5610   6.930   8.255   9.821
 1790WAT      O 5611   5.682   2.496   3.813
 1790WAT     H1 5612   5.614   2.465   3.880
 1790WAT     H2 5613   5.770   2.511   3.859
 1791WAT      O 5614   3.060   6.743   2.534
 1791WAT     H1 5615   3.112   6.672   2.488
 1791WAT     H2 5616   3.059   6.826   2.477
 1792WAT      O 5617   2.242   7.447   7.688
 1792WAT     H1 5618   2.248   7.540   7.724
 1792WAT     H2 5619   2.239   7.449   7.589
 1793WAT      O 5620   5.733   7.721   3.838
 1793WAT     H1 5621   5.782   7.787   3.894
 1793WAT     H2 5622   5.687   7.654   3.897
 1794WAT      O 5623   2.818   7.773   1.163
 1794WAT     H1 5624   2.825   7.678   1.131
 1794WAT     H2 5625   2.906   7.803   1.199
 1795WAT      O 5626   2.681   4.838   0.546
 1795WAT     H1 5627   2.588   4.801   0.546
 1795WAT     H2 5628   2.738   4.784   0.608
 1796WAT      O 5629   8.358   0.278   5.209
 1796WAT     H1 5630   8.344   0.371   5.244
 1796WAT     H2 5631   8.376   0.281   5.111
 1797WAT      O 5632   4.909   6.257   0.487
 1797WAT     H1 5633   4.949   6.170   0.518
 1797WAT     H2 5634   4.893   6.316   0.566
 1798WAT      O 5635   0.959   6.287   7.775
 1798WAT     H1 5636   0.961   6.191   7.746
 1798WAT     H2 5637   0.892   6.337   7.720
 1799WAT      O 5638   3.789   9.279   9.440
 1799WAT     H1 5639   3.734   9.298   9.521
 1799WAT     H2 5640   3.749   9.325   9.361
 1800WAT      O 5641   2.321   0.134   5.740
 1800WAT     H1 5642   2.246   0.194   5.711
 1800WAT     H2 5643   2.321   0.127   5.840
 1801WAT      O 5644   1.478   1.218   3.961
 1801WAT     H1 5645   1.537   1.275   3.904
 1801WAT     H2 5646   1.383   1.225   3.929
 1802WAT      O 5647   9.189   7.068   9.383
 1802WAT     H1 5648   9.213   7.032   9.293
 1802WAT     H2 5649   9.266   7.120   9.420
 1803WAT      O 5650   7.062   9.792   3.406
 1803WAT     H1 5651   6.981   9.750   3.446
 1803WAT     H2 5652   7.071   9.886   3.440
 1804WAT      O 5653   8.090   4.600   0.689
 1804WAT     H1 5654   8.048   4.602   0.598
 1804WAT     H2 5655   8.029   4.647   0.753
 1805WAT      O 5656   6.978   4.972   0.066
 1805WAT     H1 5657   6.961   4.877   0.042
 1805WAT     H2 5658   6.893   5.025   0.059
 1806WAT      O 5659   5.961   1.341   3.686
 1806WAT     H1 5660   5.923   1.259   3.642
 1806WAT     H2 5661   5.891   1.383   3.744
 1807WAT      O 5662   2.724   8.744   1.015
 1807WAT     H1 5663   2.751   8.725   1.109
 1807WAT     H2 5664   2.638   8.697   0.994
 1808WAT      O 5665   6.440   6.197   1.677
 1808WAT     H1 5666   6.401   6.247   1.754
 1808WAT     H2 5667   6.499   6.124   1.711
 1809WAT      O 5668   9.306   7.859   3.591
 1809WAT     H1 5669   9.313   7.949   3.548
 1809WAT     H2 5670   9.386   7.842   3.647
 1810WAT      O 5671   5.680   6.730   9.398
 1810WAT     H1 5672   5.654   6.804   9.459
 1810WAT     H2 5673   5.623   6.732   9.316
 1811WAT      O 5674   7.210   6.893   7.368
 1811WAT     H1 5675   7.197   6.880   7.270
 1811WAT     H2 5676   7.147   6.963   7.401
 1812WAT      O 5677   1.430   7.121   6.612
 1812WAT     H1 5678   1.455   7.025   6.619
 1812WAT     H2 5679   1.399   7.154   6.701
 1813WAT      O 5680   7.352   8.489   3.384
 1813WAT     H1 5681   7.365   8.408   3.328
 1813WAT     H2 5682   7.440   8.520   3.419
 1814WAT      O 5683   1.643   6.033   0.160
 1814WAT     H1 5684   1.630   5.935   0.152
 1814WAT     H2 5685   1.632   6.061   0.255
 1815WAT      O 5686   6.924   9.145   1.244
 1815WAT     H1 5687   6.843   9.177   1.196
 1815WAT     H2 5688   6.967   9.071   1.192
 1816WAT      O 5689   9.751   3.183   8.654
 1816WAT     H1 5690   9.704   3.115   8.597
 1816WAT     H2 5691   9.822   3.138   8.708
 1817WAT      O 5692   8.259   8.233   0.019
 1817WAT     H1 5693   8.335   8.182   0.059
 1817WAT     H2 5694   8.281   8.256  -0.076
 1818WAT      O 5695   9.551   4.822   1.615
 1818WAT     H1 5696   9.466   4.872   1.633
 1818WAT     H2 5697   9.556   4.742   1.675
 1819WAT      O 5698   0.055   1.673   2.701
 1819WAT     H1 5699   0.137   1.617   2.689
 1819WAT     H2 5700   0.079   1.761   2.740
 1820WAT      O 5701   5.694   8.216   1.749
 1820WAT     H1 5702   5.700   8.124   1.787
 1820WAT     H2 5703   5.646   8.214   1.661
 1821WAT      O 5704   3.462   7.349   0.030
 1821WAT     H1 5705   3.455   7.264   0.082
 1821WAT     H2 5706   3.414   7.339  -0.057
 1822WAT      O 5707   6.901   4.763   6.476
 1822WAT     H1 5708   6.963   4.696   6.517
 1822WAT     H2 5709   6.950   4.816   6.407
 1823WAT      O 5710   0.835   6.409   9.640
 1823WAT     H1 5711   0.863   6.337   9.704
 1823WAT     H2 5712   0.743   6.439   9.662
 1824WAT      O 5713   3.404   8.569   5.442
 1824WAT     H1 5714   3.481   8.567   5.505
 1824WAT     H2 5715   3.335   8.633   5.475
 1825WAT      O 5716   7.499   2.794   1.899
 1825WAT     H1 5717   7.572   2.744   1.853
 1825WAT     H2 5718   7.420   2.734   1.913
 1826WAT      O 5719   2.747   1.367   5.940
 1826WAT     H1 5720   2.774   1.331   5.850
 1826WAT     H2 5721   2.808   1.330   6.010
 1827WAT      O 5722   8.191   6.639   2.227
 1827WAT     H1 5723   8.170   6.563   2.289
 1827WAT     H2 5724   8.232   6.714   2.280
 1828WAT      O 5725   6.875   1.189   6.382
 1828WAT     H1 5726   6.814   1.268   6.390
 1828WAT     H2 5727   6.830   1.118   6.328
 1829WAT      O 5728   3.022   4.791   5.465
 1829WAT     H1 5729   3.106   4.738   5.459
 1829WAT     H2 5730   3.000   4.828   5.375
 1830WAT      O 5731   3.737   4.002   0.687
 1830WAT     H1 5732   3.791   3.924   0.655
 1830WAT     H2 5733   3.641   3.975   0.692
 1831WAT      O 5734   5.935   1.227   9.699
 1831WAT     H1 5735   5.840   1.203   9.681
 1831WAT     H2 5736   5.988   1.144   9.717
 1832WAT      O 5737   7.519   3.361   3.908
 1832WAT     H1 5738   7.530   3.299   3.986
 1832WAT     H2 5739   7.546   3.453   3.934
 1833WAT      O 5740   7.828   8.898   6.248
 1833WAT     H1 5741   7.894   8.823   6.253
 1833WAT     H2 5742   7.863   8.976   6.300
 1834WAT      O 5743   3.526   6.247   5.898
 1834WAT     H1 5744   3.537   6.156   5.937
 1834WAT     H2 5745   3.522   6.314   5.973
 1835WAT      O 5746   9.576   9.070   6.559
 1835WAT     H1 5747   9.612   9.141   6.619
 1835WAT     H2 5748   9.526   9.112   6.483
 1836WAT      O 5749   9.743   1.921   7.342
 1836WAT     H1 5750   9.833   1.903   7.383
 1836WAT     H2 5751   9.688   1.975   7.405
 1837WAT      O 5752   5.510   1.830   6.019
 1837WAT     H1 5753   5.410   1.831   6.012
 1837WAT     H2 5754   5.536   1.814   6.114
 1838WAT      O 5755   3.862   9.676   3.885
 1838WAT     H1 5756   3.831   9.581   3.875
 1838WAT     H2 5757   3.956   9.683   3.852
 1839WAT      O 5758   3.694   0.439   4.829
 1839WAT     H1 5759   3.604   0.425   4.788
 1839WAT     H2 5760   3.735   0.351   4.849
 1840WAT      O 5761   8.120   7.838   4.385
 1840WAT     H1 5762   8.218   7.822   4.393
 1840WAT     H2 5763   8.073   7.750   4.375
 1841WAT      O 5764   1.700   9.290   8.356
 1841WAT     H1 5765   1.686   9.199   8.317
 1841WAT     H2 5766   1.745   9.282   8.445
 1842WAT      O 5767   3.738   5.581   3.678
 1842WAT     H1 5768   3.796   5.656   3.647
 1842WAT     H2 5769   3.735   5.579   3.777
 1843WAT      O 5770   0.651   3.814   9.832
 1843WAT     H1 5771   0.573   3.817   9.770
 1843WAT     H2 5772   0.694   3.904   9.836
 1844WAT      O 5773   9.427   1.265   6.125
 1844WAT     H1 5774   9.404   1.320   6.044
 1844WAT     H2 5775   9.468   1.324   6.194
 1845WAT      O 5776   7.090   3.674   7.902
 1845WAT     H1 5777   7.182   3.677   7.940
 1845WAT     H2 5778   7.059   3.767   7.880
 1846WAT      O 5779   3.755   2.818   5.590
 1846WAT     H1 5780   3.746   2.818   5.490
 1846WAT     H2 5781   3.665   2.804   5.631
 1847WAT      O 5782   1.102   6.009   6.045
 1847WAT     H1 5783   1.042   6.055   5.979
 1847WAT     H2 5784   1.115   5.914   6.017
 1848WAT      O 5785   3.059   3.330   5.170
 1848WAT     H1 5786   2.995   3.407   5.168
 1848WAT     H2 5787   3.008   3.246   5.189
 1849WAT      O 5788   2.249   6.464   2.937
 1849WAT     H1 5789   2.330   6.498   2.983
 1849WAT     H2 5790   2.214   6.383   2.986
 1850WAT      O 5791   2.003   8.525   6.871
 1850WAT     H1 5792   1.937   8.495   6.802
 1850WAT     H2 5793   1.999   8.462   6.949
 1851WAT      O 5794   8.504   6.575   9.325
 1851WAT     H1 5795   8.586   6.561   9.270
 1851WAT     H2 5796   8.530   6.594   9.420
 1852WAT      O 5797   3.169   2.652   6.646
 1852WAT     H1 5798   3.102   2.683   6.713
 1852WAT     H2 5799   3.261   2.656   6.686
 1853WAT      O 5800   0.285   2.548   4.283
 1853WAT     H1 5801   0.272   2.593   4.371
 1853WAT     H2 5802   0.319   2.455   4.298
 1854WAT      O 5803   5.616   6.330   3.143
 1854WAT     H1 5804   5.541   6.387   3.108
 1854WAT     H2 5805   5.672   6.297   3.067
 1855WAT      O 5806   6.985   5.259   3.703
 1855WAT     H1 5807   6.945   5.333   3.757
 1855WAT     H2 5808   7.076   5.237   3.738
 1856WAT      O 5809   4.236   0.826   8.913
 1856WAT     H1 5810   4.273   0.792   8.827
 1856WAT     H2 5811   4.217   0.924   8.905
 1857WAT      O 5812   3.104   7.039   5.598
 1857WAT     H1 5813   3.077   7.078   5.686
 1857WAT     H2 5814   3.029   7.046   5.533
 1858WAT      O 5815   2.498   4.446   4.610
 1858WAT     H1 5816   2.420   4.505   4.631
 1858WAT     H2 5817   2.549   4.427   4.693
 1859WAT      O 5818   6.063   9.491   2.609
 1859WAT     H1 5819   6.112   9.523   2.528
 1859WAT     H2 5820   5.966   9.513   2.600
 1860WAT      O 5821   2.372   2.903   2.343
 1860WAT     H1 5822   2.406   2.887   2.250
 1860WAT     H2 5823   2.448   2.904   2.407
 1861WAT      O 5824   6.010   4.727   7.934
 1861WAT     H1 5825   5.929   4.765   7.889
 1861WAT     H2 5826   6.053   4.798   7.990
 1862WAT      O 5827   1.070   5.462   1.617
 1862WAT     H1 5828   0.976   5.433   1.634
 1862WAT     H2 5829   1.128   5.432   1.692
 1863WAT      O 5830   0.938   7.889   1.223
 1863WAT     H1 5831   0.865   7.895   1.291
 1863WAT     H2 5832   0.942   7.974   1.170
 1864WAT      O 5833   0.385   3.381   8.526
 1864WAT     H1 5834   0.388   3.368   8.426
 1864WAT     H2 5835   0.361   3.476   8.546
 1865WAT      O 5836   3.811   4.115   7.346
 1865WAT     H1 5837   3.713   4.125   7.332
 1865WAT     H2 5838   3.829   4.089   7.441
 1866WAT      O 5839   4.878   3.881   2.625
 1866WAT     H1 5840   4.964   3.855   2.580
 1866WAT     H2 5841   4.854   3.813   2.694
 1867WAT      O 5842   7.384   3.003   7.176
 1867WAT     H1 5843   7.468   3.001   7.121
 1867WAT     H2 5844   7.391   2.937   7.251
 1868WAT      O 5845   7.384   1.538   4.329
 1868WAT     H1 5846   7.424   1.446   4.328
 1868WAT     H2 5847   7.344   1.558   4.240
 1869WAT      O 5848   7.679   0.712   0.633
 1869WAT     H1 5849   7.618   0.661   0.572
 1869WAT     H2 5850   7.624   0.773   0.690
 1870WAT      O 5851   4.302   6.657   1.679
 1870WAT     H1 5852   4.313   6.558   1.683
 1870WAT     H2 5853   4.204   6.679   1.685
 1871WAT      O 5854   2.432   9.136   5.476
 1871WAT     H1 5855   2.388   9.047   5.482
 1871WAT     H2 5856   2.421   9.173   5.383
 1872WAT      O 5857   1.580   3.218   4.179
 1872WAT     H1 5858   1.505   3.217   4.112
 1872WAT     H2 5859   1.647   3.287   4.153
 1873WAT      O 5860   1.614   3.172   8.955
 1873WAT     H1 5861   1.691   3.228   8.986
 1873WAT     H2 5862   1.601   3.096   9.019
 1874WAT      O 5863   0.462   2.684   4.139
 1874WAT     H1 5864   0.516   2.745   4.197
 1874WAT     H2 5865   0.388   2.643   4.193
 1875WAT      O 5866   0.992   2.195   1.616
 1875WAT     H1 5867   0.912   2.254   1.607
 1875WAT     H2 5868   0.981   2.136   1.697
 1876WAT      O 5869   9.160   2.182   1.960
 1876WAT     H1 5870   9.215   2.237   2.022
 1876WAT     H2 5871   9.128   2.240   1.884
 1877WAT      O 5872   8.849   3.654   2.837
 1877WAT     H1 5873   8.932   3.631   2.888
 1877WAT     H2 5874   8.815   3.574   2.789
 1878WAT      O 5875   9.051   6.983   6.463
 1878WAT     H1 5876   9.148   6.970   6.485
 1878WAT     H2 5877   9.004   7.020   6.544
 1879WAT      O 5878   6.643   7.770   5.065
 1879WAT     H1 5879   6.655   7.735   5.158
 1879WAT     H2 5880   6.595   7.858   5.068
 1880WAT      O 5881   0.591   1.082   3.138
 1880WAT     H1 5882   0.649   1.160   3.163
 1880WAT     H2 5883   0.556   1.095   3.046
 1881WAT      O 5884   4.386   8.711   2.618
 1881WAT     H1 5885   4.385   8.662   2.705
 1881WAT     H2 5886   4.316   8.783   2.618
 1882WAT      O 5887   2.167   2.794   8.142
 1882WAT     H1 5888   2.220   2.858   8.086
 1882WAT     H2 5889   2.122   2.844   8.216
 1883WAT      O 5890   4.972   4.816   1.133
 1883WAT     H1 5891   4.882   4.860   1.134
 1883WAT     H2 5892   5.042   4.884   1.116
 1884WAT      O 5893   8.798   7.843   5.216
 1884WAT     H1 5894   8.723   7.885   5.164
 1884WAT     H2 5895   8.772   7.751   5.244
 1885WAT      O 5896   1.528   2.029   5.250
 1885WAT     H1 5897   1.607   1.986   5.206
 1885WAT     H2 5898   1.508   2.116   5.204
 1886WAT      O 5899   4.613   7.153   3.794
 1886WAT     H1 5900   4.699   7.193   3.762
 1886WAT     H2 5901   4.570   7.104   3.718
 1887WAT      O 5902   6.522   9.181   4.324
 1887WAT     H1 5903   6.589   9.254   4.339
 1887WAT     H2 5904   6.487   9.187   4.230
 1888WAT      O 5905   9.371   2.711   1.651
 1888WAT     H1 5906   9.404   2.782   1.589
 1888WAT     H2 5907   9.327   2.639   1.598
 1889WAT      O 5908   1.029   2.064   8.550
 1889WAT     H1 5909   1.078   2.003   8.488
 1889WAT     H2 5910   0.930   2.048   8.541
 1890WAT      O 5911   8.161   1.871   9.140
 1890WAT     H1 5912   8.226   1.850   9.067
 1890WAT     H2 5913   8.200   1.939   9.201
 1891WAT      O 5914   3.938   1.609   4.860
 1891WAT     H1 5915   4.000   1.620   4.937
 1891WAT     H2 5916   3.973   1.539   4.798
 1892WAT      O 5917   0.739   0.856   1.017
 1892WAT     H1 5918   0.750   0.937   0.959
 1892WAT     H2 5919   0.744   0.883   1.113
 1893WAT      O 5920   6.051   9.701   5.892
 1893WAT     H1 5921   6.070   9.650   5.975
 1893WAT     H2 5922   6.026   9.795   5.915
 1894WAT      O 5923   2.007   9.243   3.561
 1894WAT     H1 5924   2.059   9.234   3.476
 1894WAT     H2 5925   2.061   9.208   3.637
 1895WAT      O 5926   9.510   6.581   0.724
 1895WAT     H1 5927   9.452   6.647   0.678
 1895WAT     H2 5928   9.585   6.554   0.664
 1896WAT      O 5929   8.048   9.421   9.691
 1896WAT     H1 5930   7.957   9.382   9.672
 1896WAT     H2 5931   8.043   9.520   9.688
 1897WAT      O 5932   0.889   8.703   3.134
 1897WAT     H1 5933   0.910   8.640   3.208
 1897WAT     H2 5934   0.825   8.658   3.070
 1898WAT      O 5935   4.785   1.679   7.742
 1898WAT     H1 5936   4.706   1.732   7.711
 1898WAT     H2 5937   4.838   1.649   7.663
 1899WAT      O 5938   5.255   6.018   4.339
 1899WAT     H1 5939   5.229   6.112   4.362
 1899WAT     H2 5940   5.176   5.958   4.349
 1900WAT      O 5941   4.001   3.555   2.546
 1900WAT     H1 5942   4.056   3.503   2.611
 1900WAT     H2 5943   3.908   3.518   2.544
 1901WAT      O 5944   6.398   2.127   2.643
 1901WAT     H1 5945   6.427   2.063   2.572
 1901WAT     H2 5946   6.461   2.121   2.721
 1902WAT      O 5947   6.969   4.001   7.002
 1902WAT     H1 5948   7.032   4.076   7.023
 1902WAT     H2 5949   6.959   3.993   6.903
 1903WAT      O 5950   2.935   6.268   7.622
 1903WAT     H1 5951   3.027   6.260   7.585
 1903WAT     H2 5952   2.923   6.203   7.697
 1904WAT      O 5953   5.691   5.649   6.406
 1904WAT     H1 5954   5.710   5.747   6.408
 1904WAT     H2 5955   5.777   5.598   6.406
 1905WAT      O 5956   6.500   1.149   8.012
 1905WAT     H1 5957   6.485   1.175   8.108
 1905WAT     H2 5958   6.515   1.050   8.006
 1906WAT      O 5959   1.884   2.719   8.744
 1906WAT     H1 5960   1.947   2.668   8.686
 1906WAT     H2 5961   1.883   2.677   8.835
 1907WAT      O 5962   9.274   6.055   9.005
 1907WAT     H1 5963   9.259   6.010   8.917
 1907WAT     H2 5964   9.205   6.024   9.070
 1908WAT      O 5965   4.712   1.207   3.774
 1908WAT     H1 5966   4.654   1.128   3.755
 1908WAT     H2 5967   4.802   1.176   3.804
 1909WAT      O 5968   6.949   5.896   9.278
 1909WAT     H1 5969   6.963   5.995   9.283
 1909WAT     H2 5970   6.856   5.873   9.307
 1910WAT      O 5971   6.280   5.030   3.754
 1910WAT     H1 5972   6.323   5.084   3.682
 1910WAT     H2 5973   6.221   5.088   3.810
 1911WAT      O 5974   7.173   7.147   6.371
 1911WAT     H1 5975   7.159   7.162   6.273
 1911WAT     H2 5976   7.263   7.184   6.397
 1912WAT      O 5977   5.625   9.685   8.533
 1912WAT     H1 5978   5.695   9.621   8.567
 1912WAT     H2 5979   5.539   9.637   8.520
 1913WAT      O 5980   7.278   4.669   3.528
 1913WAT     H1 5981   7.249   4.574   3.513
 1913WAT     H2 5982   7.200   4.730   3.515
 1914WAT      O 5983   5.764   2.573   8.680
 1914WAT     H1 5984   5.744   2.527   8.593
 1914WAT     H2 5985   5.713   2.659   8.685
 1915WAT      O 5986   2.932   6.485   5.896
 1915WAT     H1 5987   2.923   6.504   5.798
 1915WAT     H2 5988   2.857   6.528   5.945
 1916WAT      O 5989   5.070   0.153   8.603
 1916WAT     H1 5990   5.169   0.145   8.613
 1916WAT     H2 5991   5.026   0.146   8.692
 1917WAT      O 5992   8.585   1.563   4.646
 1917WAT     H1 5993   8.488   1.582   4.663
 1917WAT     H2 5994   8.640   1.642   4.673
 1918WAT      O 5995   2.683   5.770   6.855
 1918WAT     H1 5996   2.768   5.774   6.802
 1918WAT     H2 5997   2.674   5.680   6.897
 1919WAT      O 5998   3.336   6.104   1.455
 1919WAT     H1 5999   3.367   6.033   1.518
 1919WAT     H2 6000   3.237   6.110   1.457
 1920WAT      O 6001   6.598   8.578   8.837
 1920WAT     H1 6002   6.631   8.550   8.928
 1920WAT     H2 6003   6.636   8.668   8.815
 1921WAT      O 6004   5.647   5.476   8.149
 1921WAT     H1 6005   5.573   5.435   8.095
 1921WAT     H2 6006   5.632   5.459   8.246
 1922WAT      O 6007   7.956   8.651   3.849
 1922WAT     H1 6008   7.872   8.598   3.860
 1922WAT     H2 6009   7.943   8.743   3.885
 1923WAT      O 6010   6.392   4.595   9.623
 1923WAT     H1 6011   6.370   4.511   9.674
 1923WAT     H2 6012   6.307   4.638   9.593
 1924WAT      O 6013   8.887   3.339   9.395
 1924WAT     H1 6014   8.856   3.374   9.307
 1924WAT     H2 6015   8.961   3.396   9.430
 1925WAT      O 6016   6.033   7.849   3.044
 1925WAT     H1 6017   6.111   7.789   3.059
 1925WAT     H2 6018   6.025   7.913   3.121
 1926WAT      O 6019   0.973   8.324   7.238
 1926WAT     H1 6020   0.874   8.321   7.224
 1926WAT     H2 6021   1.018   8.324   7.149
 1927WAT      O 6022   0.679   8.930   5.450
 1927WAT     H1 6023   0.608   8.903   5.515
 1927WAT     H2 6024   0.676   8.871   5.370
 1928WAT      O 6025   1.772   4.626   5.221
 1928WAT     H1 6026   1.773   4.592   5.315
 1928WAT     H2 6027   1.705   4.700   5.214
 1929WAT      O 6028   0.460   6.269   2.398
 1929WAT     H1 6029   0.416   6.338   2.341
 1929WAT     H2 6030   0.391   6.229   2.460
 1930WAT      O 6031   8.797   6.605   4.221
 1930WAT     H1 6032   8.708   6.624   4.181
 1930WAT     H2 6033   8.825   6.511   4.198
 1931WAT      O 6034   0.651   3.111   6.174
 1931WAT     H1 6035   0.680   3.160   6.091
 1931WAT     H2 6036   0.696   3.152   6.254
 1932WAT      O 6037   8.266   2.238   4.907
 1932WAT     H1 6038   8.300   2.158   4.855
 1932WAT     H2 6039   8.327   2.315   4.891
 1933WAT      O 6040   3.208   5.115   3.656
 1933WAT     H1 6041   3.238   5.032   3.704
 1933WAT     H2 6042   3.268   5.191   3.683
 1934WAT      O 6043   2.946   8.922   6.741
 1934WAT     H1 6044   2.894   8.945   6.658
 1934WAT     H2 6045   2.883   8.903   6.816
 1935WAT      O 6046   2.901   9.587   6.103
 1935WAT     H1 6047   2.897   9.679   6.142
 1935WAT     H2 6048   2.857   9.587   6.013
 1936WAT      O 6049   6.928   9.010   2.491
 1936WAT     H1 6050   7.024   9.037   2.505
 1936WAT     H2 6051   6.896   9.047   2.404
 1937WAT      O 6052   9.293   2.443   3.675
 1937WAT     H1 6053   9.282   2.532   3.631
 1937WAT     H2 6054   9.257   2.372   3.614
 1938WAT      O 6055   6.373   6.472   4.151
 1938WAT     H1 6056   6.348   6.560   4.192
 1938WAT     H2 6057   6.368   6.400   4.221
 1939WAT      O 6058   8.559   0.165   7.786
 1939WAT     H1 6059   8.597   0.243   7.836
 1939WAT     H2 6060   8.481   0.195   7.731
 1940WAT      O 6061   7.071   4.800   9.322
 1940WAT     H1 6062   7.129   4.871   9.282
 1940WAT     H2 6063   7.120   4.754   9.396
 1941WAT      O 6064   3.973   2.662   9.773
 1941WAT     H1 6065   3.970   2.657   9.872
 1941WAT     H2 6066   3.958   2.756   9.743
 1942WAT      O 6067   0.015   5.312   0.500
 1942WAT     H1 6068  -0.002   5.265   0.414
 1942WAT     H2 6069  -0.050   5.280   0.569
 1943WAT      O 6070   4.594   4.003   9.509
 1943WAT     H1 6071   4.530   3.929   9.531
 1943WAT     H2 6072   4.545   4.090   9.503
 1944WAT      O 6073   3.623   2.916   3.776
 1944WAT     H1 6074   3.653   3.004   3.815
 1944WAT     H2 6075   3.545   2.932   3.715
 1945WAT      O 6076   9.220   5.235   8.017
 1945WAT     H1 6077   9.179   5.181   8.091
 1945WAT     H2 6078   9.277   5.307   8.056
 1946WAT      O 6079   8.687   1.475   0.771
 1946WAT     H1 6080   8.638   1.477   0.684
 1946WAT     H2 6081   8.736   1.562   0.783
 1947WAT      O 6082   1.909   3.689   3.174
 1947WAT     H1 6083   1.937   3.684   3.078
 1947WAT     H2 6084   1.821   3.734   3.182
 1948WAT      O 6085   6.330   8.812   3.154
 1948WAT     H1 6086   6.422   8.849   3.140
 1948WAT     H2 6087   6.278   8.820   3.069
 1949WAT      O 6088   2.664   4.666   3.484
 1949WAT     H1 6089   2.676   4.634   3.578
 1949WAT     H2 6090   2.608   4.602   3.433
 1950WAT      O 6091   0.361   4.901   5.482
 1950WAT     H1 6092   0.306   4.817   5.479
 1950WAT     H2 6093   0.380   4.924   5.577
 1951WAT      O 6094   9.405   1.629   2.224
 1951WAT     H1 6095   9.489   1.593   2.265
 1951WAT     H2 6096   9.427   1.711   2.171
 1952WAT      O 6097   1.871   8.050   5.363
 1952WAT     H1 6098   1.841   7.998   5.283
 1952WAT     H2 6099   1.952   8.103   5.340
 1953WAT      O 6100   9.788   0.553   9.023
 1953WAT     H1 6101   9.730   0.559   9.104
 1953WAT     H2 6102   9.884   0.547   9.051
 1954WAT      O 6103   2.246   7.712   9.192
 1954WAT     H1 6104   2.309   7.675   9.124
 1954WAT     H2 6105   2.166   7.653   9.198
 1955WAT      O 6106   3.875   0.117   2.595
 1955WAT     H1 6107   3.788   0.106   2.644
 1955WAT     H2 6108   3.858   0.161   2.507
 1956WAT      O 6109   7.204   8.458   8.355
 1956WAT     H1 6110   7.288   8.512   8.360
 1956WAT     H2 6111   7.142   8.487   8.428
 1957WAT      O 6112   9.258   6.670   3.471
 1957WAT     H1 6113   9.257   6.639   3.376
 1957WAT     H2 6114   9.173   6.643   3.516
 1958WAT      O 6115   6.642   7.041   2.154
 1958WAT     H1 6116   6.589   6.963   2.187
 1958WAT     H2 6117   6.584   7.097   2.095
 1959WAT      O 6118   8.726   0.771   8.714
 1959WAT     H1 6119   8.672   0.702   8.762
 1959WAT     H2 6120   8.736   0.852   8.772
 1960WAT      O 6121   7.724   9.619   4.449
 1960WAT     H1 6122   7.663   9.693   4.418
 1960WAT     H2 6123   7.692   9.584   4.536
 1961WAT      O 6124   5.008   5.292   1.387
 1961WAT     H1 6125   5.100   5.311   1.352
 1961WAT     H2 6126   4.986   5.196   1.371
 1962WAT      O 6127   3.506   6.562   2.438
 1962WAT     H1 6128   3.519   6.479   2.384
 1962WAT     H2 6129   3.584   6.575   2.500
 1963WAT      O 6130   6.139   7.786   7.797
 1963WAT     H1 6131   6.221   7.830   7.833
 1963WAT     H2 6132   6.156   7.758   7.702
 1964WAT      O 6133   3.411   0.224   1.568
 1964WAT     H1 6134   3.381   0.201   1.475
 1964WAT     H2 6135   3.503   0.187   1.583
 1965WAT      O 6136   2.939   0.670   6.035
 1965WAT     H1 6137   3.034   0.682   6.065
 1965WAT     H2 6138   2.928   0.710   5.943
 1966WAT      O 6139   4.629   0.902   5.764
 1966WAT     H1 6140   4.590   0.829   5.821
 1966WAT     H2 6141   4.598   0.892   5.670
 1967WAT      O 6142   0.281   5.775   2.766
 1967WAT     H1 6143   0.327   5.791   2.853
 1967WAT     H2 6144   0.306   5.685   2.731
 1968WAT      O 6145   3.537   6.556   9.052
 1968WAT     H1 6146   3.532   6.643   9.101
 1968WAT     H2 6147   3.462   6.497   9.081
 1969WAT      O 6148   4.498   0.880   7.646
 1969WAT     H1 6149   4.585   0.925   7.664
 1969WAT     H2 6150   4.515   0.788   7.611
 1970WAT      O 6151   8.497   6.187   8.183
 1970WAT     H1 6152   8.514   6.111   8.246
 1970WAT     H2 6153   8.485   6.272   8.235
 1971WAT      O 6154   4.467   2.007   1.810
 1971WAT     H1 6155   4.459   2.106   1.819
 1971WAT     H2 6156   4.563   1.980   1.821
 1972WAT      O 6157   8.105   5.478   0.959
 1972WAT     H1 6158   8.020   5.424   0.960
 1972WAT     H2 6159   8.170   5.435   0.897
 1973WAT      O 6160   2.419   2.928   4.314
 1973WAT     H1 6161   2.461   2.965   4.231
 1973WAT     H2 6162   2.406   2.829   4.305
 1974WAT      O 6163   6.948   1.739   2.011
 1974WAT     H1 6164   7.041   1.741   2.049
 1974WAT     H2 6165   6.899   1.821   2.042
 1975WAT      O 6166   8.301   1.477   2.016
 1975WAT     H1 6167   8.261   1.548   2.075
 1975WAT     H2 6168   8.245   1.395   2.021
 1976WAT      O 6169   3.995   5.604   1.875
 1976WAT     H1 6170   3.929   5.622   1.802
 1976WAT     H2 6171   4.064   5.676   1.875
 1977WAT      O 6172   3.372   3.464   5.303
 1977WAT     H1 6173   3.304   3.495   5.370
 1977WAT     H2 6174   3.355   3.508   5.215
 1978WAT      O 6175   1.541   4.878   7.410
 1978WAT     H1 6176   1.573   4.916   7.323
 1978WAT     H2 6177   1.619   4.839   7.459
 1979WAT      O 6178   8.254   7.605   8.076
 1979WAT     H1 6179   8.307   7.678   8.118
 1979WAT     H2 6180   8.158   7.630   8.074
 1980WAT      O 6181   1.287   9.540   2.958
 1980WAT     H1 6182   1.278   9.620   3.017
 1980WAT     H2 6183   1.197   9.507   2.931
 1981WAT      O 6184   7.688   2.137   3.519
 1981WAT     H1 6185   7.665   2.087   3.436
 1981WAT     H2 6186   7.782   2.117   3.546
 1982WAT      O 6187   1.814   9.778   1.607
 1982WAT     H1 6188   1.780   9.838   1.534
 1982WAT     H2 6189   1.809   9.825   1.695
 1983WAT      O 6190   6.265   6.859   8.594
 1983WAT     H1 6191   6.330   6.783   8.594
 1983WAT     H2 6192   6.172   6.822   8.592
 1984WAT      O 6193   5.910   4.939   9.215
 1984WAT     H1 6194   5.904   5.038   9.205
 1984WAT     H2 6195   5.871   4.912   9.303
 1985WAT      O 6196   5.818   6.157   4.125
 1985WAT     H1 6197   5.814   6.127   4.030
 1985WAT     H2 6198   5.861   6.248   4.129
 1986WAT      O 6199   1.708   4.228   0.835
 1986WAT     H1 6200   1.778   4.175   0.788
 1986WAT     H2 6201   1.749   4.311   0.874
 1987WAT      O 6202   1.601   5.660   8.958
 1987WAT     H1 6203   1.645   5.674   8.869
 1987WAT     H2 6204   1.528   5.728   8.969
 1988WAT      O 6205   1.738   2.946   9.505
 1988WAT     H1 6206   1.828   2.939   9.462
 1988WAT     H2 6207   1.746   2.926   9.603
 1989WAT      O 6208   5.145   9.315   2.932
 1989WAT     H1 6209   5.130   9.216   2.931
 1989WAT     H2 6210   5.130   9.349   3.025
 1990WAT      O 6211   4.465   6.418   5.511
 1990WAT     H1 6212   4.523   6.339   5.493
 1990WAT     H2 6213   4.522   6.494   5.544
 1991WAT      O 6214   8.392   0.647   7.172
 1991WAT     H1 6215   8.389   0.568   7.232
 1991WAT     H2 6216   8.425   0.619   7.081
 1992WAT      O 6217   5.739   7.396   6.764
 1992WAT     H1 6218   5.709   7.370   6.856
 1992WAT     H2 6219   5.708   7.327   6.699
 1993WAT      O 6220   5.115   4.126   1.249
 1993WAT     H1 6221   5.061   4.067   1.189
 1993WAT     H2 6222   5.085   4.115   1.344
 1994WAT      O 6223   9.743   3.319   7.948
 1994WAT     H1 6224   9.766   3.262   7.869
 1994WAT     H2 6225   9.699   3.403   7.917
 1995WAT      O 6226   6.020   5.064   7.198
 1995WAT     H1 6227   6.037   4.975   7.155
 1995WAT     H2 6228   6.086   5.079   7.271
 1996WAT      O 6229   9.355   3.264   1.745
 1996WAT     H1 6230   9.302   3.294   1.824
 1996WAT     H2 6231   9.339   3.325   1.668
 1997WAT      O 6232   9.888   7.468   6.914
 1997WAT     H1 6233   9.866   7.549   6.969
 1997WAT     H2 6234   9.895   7.388   6.974
 1998WAT      O 6235   8.168   3.280   1.064
 1998WAT     H1 6236   8.175   3.323   0.974
 1998WAT     H2 6237   8.152   3.351   1.134
 1999WAT      O 6238   0.456   0.634   9.396
 1999WAT     H1 6239   0.472   0.708   9.332
 1999WAT     H2 6240   0.541   0.612   9.444
 2000WAT      O 6241   2.996   7.473   6.315
 2000WAT     H1 6242   3.020   7.437   6.405
 2000WAT     H2 6243   3.049   7.425   6.245
 2001WAT      O 6244   6.946   6.969   3.840
 2001WAT     H1 6245   7.041   6.980   3.811
 2001WAT     H2 6246   6.938   6.987   3.938
 2002WAT      O 6247   2.856   5.909   3.378
 2002WAT     H1 6248   2.782   5.857   3.336
 2002WAT     H2 6249   2.847   5.906   3.478
 2003WAT      O 6250   0.739   7.570   3.117
 2003WAT     H1 6251   0.733   7.470   3.116
 2003WAT     H2 6252   0.684   7.606   3.192
 2004WAT      O 6253   3.746   4.968   1.338
 2004WAT     H1 6254   3.692   4.982   1.255
 2004WAT     H2 6255   3.715   4.886   1.385
 2005WAT      O 6256   1.506   5.333   5.073
 2005WAT     H1 6257   1.417   5.331   5.029
 2005WAT     H2 6258   1.515   5.415   5.129
 2006WAT      O 6259   8.113   6.403   3.607
 2006WAT     H1 6260   8.041   6.338   3.631
 2006WAT     H2 6261   8.196   6.383   3.659
 2007WAT      O 6262   9.605   4.222   4.136
 2007WAT     H1 6263   9.533   4.156   4.158
 2007WAT     H2 6264   9.683   4.173   4.097
 2008WAT      O 6265   9.327   0.876   3.270
 2008WAT     H1 6266   9.378   0.901   3.353
 2008WAT     H2 6267   9.367   0.924   3.191
 2009WAT      O 6268   8.638   9.056   8.869
 2009WAT     H1 6269   8.653   9.032   8.773
 2009WAT     H2 6270   8.711   9.016   8.925
 2010WAT      O 6271   4.632   0.079   0.678
 2010WAT     H1 6272   4.552   0.022   0.658
 2010WAT     H2 6273   4.712   0.021   0.693
 2011WAT      O 6274   5.952   7.788   0.105
 2011WAT     H1 6275   5.889   7.742   0.168
 2011WAT     H2 6276   5.977   7.878   0.142
 2012WAT      O 6277   5.820   7.552   7.470
 2012WAT     H1 6278   5.888   7.550   7.397
 2012WAT     H2 6279   5.804   7.459   7.503
 2013WAT      O 6280   8.625   0.426   8.560
 2013WAT     H1 6281   8.709   0.414   8.615
 2013WAT     H2 6282   8.545   0.418   8.620
 2014WAT      O 6283   5.484   3.959   4.706
 2014WAT     H1 6284   5.522   4.027   4.645
 2014WAT     H2 6285   5.415   4.001   4.765
 2015WAT      O 6286   4.922   0.918   1.361
 2015WAT     H1 6287   4.881   0.953   1.276
 2015WAT     H2 6288   4.969   0.993   1.408
 2016WAT      O 6289   2.965   3.101   3.297
 2016WAT     H1 6290   2.927   3.100   3.204
 2016WAT     H2 6291   2.954   3.192   3.336
 2017WAT      O 6292   2.253   6.590   6.644
 2017WAT     H1 6293   2.206   6.520   6.590
 2017WAT     H2 6294   2.333   6.624   6.594
 2018WAT      O 6295   4.504   4.652   6.532
 2018WAT     H1 6296   4.452   4.574   6.497
 2018WAT     H2 6297   4.589   4.661   6.481
 2019WAT      O 6298   9.168   6.606   1.546
 2019WAT     H1 6299   9.207   6.572   1.460
 2019WAT     H2 6300   9.072   6.576   1.553
 2020WAT      O 6301   6.237   2.114   9.204
 2020WAT     H1 6302   6.318   2.129   9.148
 2020WAT     H2 6303   6.185   2.199   9.212
 2021WAT      O 6304   9.840   0.091   1.611
 2021WAT     H1 6305   9.888   0.078   1.698
 2021WAT     H2 6306   9.808   0.003   1.577
 2022WAT      O 6307   2.401   1.659   6.018
 2022WAT     H1 6308   2.331   1.692   6.081
 2022WAT     H2 6309   2.457   1.736   5.987
 2023WAT      O 6310   1.372   9.128   4.604
 2023WAT     H1 6311   1.415   9.157   4.519
 2023WAT     H2 6312   1.425   9.163   4.682
 2024WAT      O 6313   7.970   7.028   4.916
 2024WAT     H1 6314   8.003   6.951   4.971
 2024WAT     H2 6315   8.045   7.064   4.860
 2025WAT      O 6316   8.439   1.741   7.420
 2025WAT     H1 6317   8.491   1.730   7.505
 2025WAT     H2 6318   8.381   1.660   7.406
 2026WAT      O 6319   6.545   7.655   9.180
 2026WAT     H1 6320   6.530   7.594   9.258
 2026WAT     H2 6321   6.588   7.604   9.105
 2027WAT      O 6322   8.657   2.380   8.096
 2027WAT     H1 6323   8.650   2.445   8.173
 2027WAT     H2 6324   8.624   2.290   8.125
 2028WAT      O 6325   4.764   1.638   6.179
 2028WAT     H1 6326   4.665   1.627   6.177
 2028WAT     H2 6327   4.797   1.660   6.087
 2029WAT      O 6328   6.033   4.826   7.090
 2029WAT     H1 6329   6.049   4.770   7.171
 2029WAT     H2 6330   5.974   4.776   7.026
 2030WAT      O 6331   1.183   4.426   0.140
 2030WAT     H1 6332   1.148   4.516   0.166
 2030WAT     H2 6333   1.107   4.368   0.111
 2031WAT      O 6334   7.587   1.768   3.591
 2031WAT     H1 6335   7.521   1.831   3.633
 2031WAT     H2 6336   7.679   1.787   3.626
 2032WAT      O 6337   8.373   8.120   1.900
 2032WAT     H1 6338   8.373   8.200   1.960
 2032WAT     H2 6339   8.385   8.037   1.955
 2033WAT      O 6340   1.476   4.720   3.992
 2033WAT     H1 6341   1.410   4.758   3.928
 2033WAT     H2 6342   1.565   4.709   3.946
 2034WAT      O 6343   4.818   5.349   2.123
 2034WAT     H1 6344   4.729   5.389   2.102
 2034WAT     H2 6345   4.816   5.251   2.106
 2035WAT      O 6346   5.753   1.105   3.383
 2035WAT     H1 6347   5.739   1.076   3.478
 2035WAT     H2 6348   5.688   1.057   3.324
 2036WAT      O 6349   1.717   0.227   7.846
 2036WAT     H1 6350   1.646   0.162   7.874
 2036WAT     H2 6351   1.724   0.229   7.747
 2037WAT      O 6352   5.147   1.317   5.791
 2037WAT     H1 6353   5.220   1.273   5.844
 2037WAT     H2 6354   5.185   1.359   5.709
 2038WAT      O 6355   0.565   2.114   4.235
 2038WAT     H1 6356   0.641   2.105   4.170
 2038WAT     H2 6357   0.601   2.119   4.328
 2039WAT      O 6358   0.296   5.492   1.371
 2039WAT     H1 6359   0.269   5.562   1.437
 2039WAT     H2 6360   0.290   5.529   1.278
 2040WAT      O 6361   7.924   8.894   1.235
 2040WAT     H1 6362   7.885   8.858   1.150
 2040WAT     H2 6363   7.958   8.819   1.291
 2041WAT      O 6364   2.277   1.234   8.744
 2041WAT     H1 6365   2.180   1.236   8.770
 2041WAT     H2 6366   2.319   1.152   8.782
 2042WAT      O 6367   4.859   3.899   7.758
 2042WAT     H1 6368   4.891   3.964   7.689
 2042WAT     H2 6369   4.761   3.911   7.773
 2043WAT      O 6370   1.777   6.188   4.224
 2043WAT     H1 6371   1.823   6.275   4.209
 2043WAT     H2 6372   1.738   6.155   4.139
 2044WAT      O 6373   0.688   6.007   8.430
 2044WAT     H1 6374   0.672   6.003   8.331
 2044WAT     H2 6375   0.768   5.953   8.453
 2045WAT      O 6376   6.476   8.464   5.419
 2045WAT     H1 6377   6.442   8.536   5.480
 2045WAT     H2 6378   6.418   8.461   5.337
 2046WAT      O 6379   2.922   4.543   6.731
 2046WAT     H1 6380   3.015   4.509   6.743
 2046WAT     H2 6381   2.870   4.530   6.815
 2047WAT      O 6382   5.021   0.440   4.219
 2047WAT     H1 6383   5.006   0.445   4.120
 2047WAT     H2 6384   5.021   0.533   4.257
 2048WAT      O 6385   3.105   1.669   7.998
 2048WAT     H1 6386   3.115   1.719   8.084
 2048WAT     H2 6387   3.180   1.605   7.987
 2049WAT      O 6388   3.741   9.255   7.436
 2049WAT     H1 6389   3.789   9.342   7.447
 2049WAT     H2 6390   3.663   9.267   7.375
 2050WAT      O 6391   9.815   9.734   4.665
 2050WAT     H1 6392   9.779   9.825   4.682
 2050WAT     H2 6393   9.750   9.681   4.611
 2051WAT      O 6394   0.635   8.965   2.043
 2051WAT     H1 6395   0.612   9.045   2.098
 2051WAT     H2 6396   0.730   8.938   2.061
 2052WAT      O 6397   6.814   9.273   3.020
 2052WAT     H1 6398   6.757   9.355   3.009
 2052WAT     H2 6399   6.784   9.202   2.956
 2053WAT      O 6400   2.067   7.572   6.141
 2053WAT     H1 6401   2.003   7.524   6.081
 2053WAT     H2 6402   2.091   7.660   6.100
 2054WAT      O 6403   3.018   8.239   8.800
 2054WAT     H1 6404   2.920   8.224   8.791
 2054WAT     H2 6405   3.048   8.310   8.736
 2055WAT      O 6406   1.834   2.304   6.446
 2055WAT     H1 6407   1.824   2.389   6.497
 2055WAT     H2 6408   1.764   2.299   6.374
 2056WAT      O 6409   6.152   1.136   6.793
 2056WAT     H1 6410   6.228   1.124   6.730
 2056WAT     H2 6411   6.185   1.130   6.887
 2057WAT      O 6412   0.984   6.746   3.539
 2057WAT     H1 6413   0.966   6.658   3.496
 2057WAT     H2 6414   0.905   6.775   3.593
 2058WAT      O 6415   1.822   5.477   7.393
 2058WAT     H1 6416   1.879   5.426   7.328
 2058WAT     H2 6417   1.787   5.414   7.462
 2059WAT      O 6418   1.874   2.439   2.519
 2059WAT     H1 6419   1.971   2.441   2.544
 2059WAT     H2 6420   1.847   2.528   2.485
 2060WAT      O 6421   7.901   4.743   7.550
 2060WAT     H1 6422   7.918   4.827   7.601
 2060WAT     H2 6423   7.975   4.728   7.485
 2061WAT      O 6424   5.487   2.641   5.012
 2061WAT     H1 6425   5.468   2.686   5.099
 2061WAT     H2 6426   5.482   2.709   4.938
 2062WAT      O 6427   0.127   4.345   7.948
 2062WAT     H1 6428   0.184   4.311   8.023
 2062WAT     H2 6429   0.179   4.342   7.863
 2063WAT      O 6430   5.508   9.478   9.550
 2063WAT     H1 6431   5.424   9.515   9.591
 2063WAT     H2 6432   5.559   9.552   9.506
 2064WAT      O 6433   1.917   6.628   9.184
 2064WAT     H1 6434   1.818   6.619   9.168
 2064WAT     H2 6435   1.936   6.717   9.226
 2065WAT      O 6436   9.339   9.773   6.904
 2065WAT     H1 6437   9.249   9.813   6.924
 2065WAT     H2 6438   9.406   9.809   6.969
 2066WAT      O 6439   6.741   0.503   3.142
 2066WAT     H1 6440   6.810   0.517   3.072
 2066WAT     H2 6441   6.690   0.588   3.156
 2067WAT      O 6442   6.954   6.123   7.652
 2067WAT     H1 6443   6.954   6.040   7.708
 2067WAT     H2 6444   7.042   6.131   7.605
 2068WAT      O 6445   1.443   0.384   6.020
 2068WAT     H1 6446   1.373   0.333   5.971
 2068WAT     H2 6447   1.422   0.383   6.118
 2069WAT      O 6448   5.042   2.762   7.796
 2069WAT     H1 6449   5.033   2.664   7.781
 2069WAT     H2 6450   5.090   2.778   7.883
 2070WAT      O 6451   9.117   7.954   2.901
 2070WAT     H1 6452   9.114   8.018   2.824
 2070WAT     H2 6453   9.043   7.977   2.965
 2071WAT      O 6454   1.164   6.844   2.991
 2071WAT     H1 6455   1.229   6.859   3.065
 2071WAT     H2 6456   1.205   6.784   2.922
 2072WAT      O 6457   5.792   6.866   2.539
 2072WAT     H1 6458   5.764   6.773   2.563
 2072WAT     H2 6459   5.727   6.904   2.473
 2073WAT      O 6460   3.051   4.205   8.457
 2073WAT     H1 6461   3.125   4.155   8.413
 2073WAT     H2 6462   3.030   4.288   8.405
 2074WAT      O 6463   1.041   6.056   5.444
 2074WAT     H1 6464   1.085   5.969   5.420
 2074WAT     H2 6465   1.042   6.117   5.366
 2075WAT      O 6466   6.767   1.401   5.402
 2075WAT     H1 6467   6.789   1.306   5.424
 2075WAT     H2 6468   6.672   1.420   5.425
 2076WAT      O 6469   2.370   3.359   7.709
 2076WAT     H1 6470   2.347   3.435   7.649
 2076WAT     H2 6471   2.411   3.284   7.656
 2077WAT      O 6472   8.838   8.953   2.874
 2077WAT     H1 6473   8.804   9.031   2.820
 2077WAT     H2 6474   8.779   8.874   2.859
 2078WAT      O 6475   7.480   0.503   3.899
 2078WAT     H1 6476   7.480   0.545   3.989
 2078WAT     H2 6477   7.574   0.484   3.870
 2079WAT      O 6478   6.519   5.630   3.713
 2079WAT     H1 6479   6.460   5.647   3.792
 2079WAT     H2 6480   6.607   5.676   3.727
 2080WAT      O 6481   4.130   5.211   1.095
 2080WAT     H1 6482   4.218   5.200   1.140
 2080WAT     H2 6483   4.073   5.130   1.110
 2081WAT      O 6484   4.449   7.501   8.960
 2081WAT     H1 6485   4.354   7.473   8.948
 2081WAT     H2 6486   4.482   7.544   8.876
 2082WAT      O 6487   2.789   8.863   6.978
 2082WAT     H1 6488   2.717   8.908   6.925
 2082WAT     H2 6489   2.755   8.775   7.011
 2083WAT      O 6490   6.357   0.379   3.730
 2083WAT     H1 6491   6.448   0.408   3.760
 2083WAT     H2 6492   6.299   0.364   3.810
 2084WAT      O 6493   3.388   7.056   6.208
 2084WAT     H1 6494   3.402   7.131   6.273
 2084WAT     H2 6495   3.427   6.972   6.245
 2085WAT      O 6496   0.960   2.703   3.489
 2085WAT     H1 6497   0.945   2.607   3.468
 2085WAT     H2 6498   0.873   2.752   3.485
 2086WAT      O 6499   1.589   9.715   4.469
 2086WAT     H1 6500   1.680   9.686   4.497
 2086WAT     H2 6501   1.521   9.680   4.534
 2087WAT      O 6502   9.227   5.737   2.854
 2087WAT     H1 6503   9.279   5.823   2.850
 2087WAT     H2 6504   9.290   5.660   2.852
 2088WAT      O 6505   3.997   1.845   3.534
 2088WAT     H1 6506   4.042   1.849   3.445
 2088WAT     H2 6507   4.060   1.808   3.602
 2089WAT      O 6508   8.474   4.317   1.690
 2089WAT     H1 6509   8.427   4.346   1.773
 2089WAT     H2 6510   8.468   4.218   1.681
 2090WAT      O 6511   1.943   8.836   3.110
 2090WAT     H1 6512   1.936   8.907   3.180
 2090WAT     H2 6513   2.003   8.763   3.143
 2091WAT      O 6514   0.860   0.964   2.514
 2091WAT     H1 6515   0.791   1.002   2.453
 2091WAT     H2 6516   0.846   0.999   2.607
 2092WAT      O 6517   6.312   1.120   1.657
 2092WAT     H1 6518   6.320   1.208   1.704
 2092WAT     H2 6519   6.234   1.123   1.594
 2093WAT      O 6520   0.107   0.712   5.352
 2093WAT     H1 6521   0.136   0.795   5.304
 2093WAT     H2 6522   0.097   0.731   5.449
 2094WAT      O 6523   0.862   4.795   4.473
 2094WAT     H1 6524   0.780   4.800   4.529
 2094WAT     H2 6525   0.938   4.760   4.529
 2095WAT      O 6526   9.342   0.150   0.312
 2095WAT     H1 6527   9.249   0.152   0.276
 2095WAT     H2 6528   9.350   0.214   0.388
 2096WAT      O 6529   0.949   3.239   3.689
 2096WAT     H1 6530   0.916   3.168   3.626
 2096WAT     H2 6531   0.923   3.329   3.654
 2097WAT      O 6532   3.886   0.757   7.275
 2097WAT     H1 6533   3.900   0.722   7.368
 2097WAT     H2 6534   3.930   0.695   7.209
 2098WAT      O 6535   7.440   0.416   5.947
 2098WAT     H1 6536   7.354   0.367   5.932
 2098WAT     H2 6537   7.449   0.437   6.044
 2099WAT      O 6538   7.598   4.964   1.574
 2099WAT     H1 6539   7.560   4.927   1.658
 2099WAT     H2 6540   7.639   4.890   1.520
 2100WAT      O 6541   9.668   7.769   0.938
 2100WAT     H1 6542   9.727   7.845   0.964
 2100WAT     H2 6543   9.647   7.714   1.019
 2101WAT      O 6544   6.702   3.864   7.364
 2101WAT     H1 6545   6.695   3.773   7.324
 2101WAT     H2 6546   6.611   3.901   7.380
 2102WAT      O 6547   8.310   6.206   9.843
 2102WAT     H1 6548   8.309   6.122   9.896
 2102WAT     H2 6549   8.357   6.278   9.894
 2103WAT      O 6550   2.347   5.492   7.137
 2103WAT     H1 6551   2.344   5.396   7.110
 2103WAT     H2 6552   2.320   5.549   7.060
 2104WAT      O 6553   5.487   6.583   6.303
 2104WAT     H1 6554   5.586   6.592   6.309
 2104WAT     H2 6555   5.460   6.579   6.207
 2105WAT      O 6556   6.437   2.234   7.708
 2105WAT     H1 6557   6.480   2.143   7.711
 2105WAT     H2 6558   6.379   2.241   7.627
 2106WAT      O 6559   9.485   1.677   6.087
 2106WAT     H1 6560   9.513   1.685   5.991
 2106WAT     H2 6561   9.534   1.745   6.142
 2107WAT      O 6562   0.159   7.077   4.186
 2107WAT     H1 6563   0.115   7.103   4.100
 2107WAT     H2 6564   0.226   7.006   4.168
 2108WAT      O 6565   5.638   6.212   1.096
 2108WAT     H1 6566   5.682   6.130   1.060
 2108WAT     H2 6567   5.542   6.192   1.117
 2109WAT      O 6568   4.131   4.706   2.426
 2109WAT     H1 6569   4.063   4.671   2.490
 2109WAT     H2 6570   4.095   4.701   2.333
 2110WAT      O 6571   7.291   7.278   0.978
 2110WAT     H1 6572   7.376   7.257   1.028
 2110WAT     H2 6573   7.214   7.240   1.028
 2111WAT      O 6574   4.916   0.152   6.451
 2111WAT     H1 6575   4.883   0.239   6.487
 2111WAT     H2 6576   4.889   0.078   6.511
 2112WAT      O 6577   6.470   6.331   6.274
 2112WAT     H1 6578   6.496   6.388   6.352
 2112WAT     H2 6579   6.464   6.388   6.192
 2113WAT      O 6580   5.085   1.349   0.544
 2113WAT     H1 6581   5.037   1.350   0.456
 2113WAT     H2 6582   5.169   1.295   0.535
 2114WAT      O 6583   6.308   2.222   7.064
 2114WAT     H1 6584   6.280   2.239   6.970
 2114WAT     H2 6585   6.232   2.182   7.115
 2115WAT      O 6586   7.638   8.906   1.456
 2115WAT     H1 6587   7.581   8.838   1.410
 2115WAT     H2 6588   7.708   8.940   1.392
 2116WAT      O 6589   7.958   2.676   0.172
 2116WAT     H1 6590   7.901   2.737   0.226
 2116WAT     H2 6591   7.939   2.581   0.196
 2117WAT      O 6592   2.113   3.293   2.281
 2117WAT     H1 6593   2.151   3.323   2.193
 2117WAT     H2 6594   2.132   3.363   2.350
 2118WAT      O 6595   6.929   9.451   2.122
 2118WAT     H1 6596   6.960   9.386   2.052
 2118WAT     H2 6597   6.867   9.404   2.185
 2119WAT      O 6598   3.158   8.592   2.506
 2119WAT     H1 6599   3.064   8.580   2.538
 2119WAT     H2 6600   3.206   8.655   2.567
 2120WAT      O 6601   4.241   9.595   1.464
 2120WAT     H1 6602   4.340   9.584   1.476
 2120WAT     H2 6603   4.212   9.681   1.506
 2121WAT      O 6604   3.138   5.465   2.614
 2121WAT     H1 6605   3.050   5.511   2.621
 2121WAT     H2 6606   3.208   5.521   2.657
 2122WAT      O 6607   8.102   8.420   3.878
 2122WAT     H1 6608   8.050   8.505   3.869
 2122WAT     H2 6609   8.051   8.355   3.935
 2123WAT      O 6610   2.848   7.093   2.486
 2123WAT     H1 6611   2.779   7.026   2.516
 2123WAT     H2 6612   2.837   7.177   2.538
 2124WAT      O 6613   7.032   8.661   9.040
 2124WAT     H1 6614   7.069   8.748   9.009
 2124WAT     H2 6615   7.068   8.640   9.131
 2125WAT      O 6616   1.890   5.900   9.735
 2125WAT     H1 6617   1.800   5.936   9.760
 2125WAT     H2 6618   1.914   5.932   9.643
 2126WAT      O 6619   2.047   6.506   0.112
 2126WAT     H1 6620   1.949   6.526   0.108
 2126WAT     H2 6621   2.063   6.426   0.170
 2127WAT      O 6622   4.753   0.288   8.709
 2127WAT     H1 6623   4.813   0.293   8.629
 2127WAT     H2 6624   4.689   0.212   8.698
 2128WAT      O 6625   4.408   5.185   9.358
 2128WAT     H1 6626   4.467   5.265   9.346
 2128WAT     H2 6627   4.322   5.213   9.400
 2129WAT      O 6628   6.491   5.787   5.438
 2129WAT     H1 6629   6.491   5.782   5.338
 2129WAT     H2 6630   6.409   5.834   5.470
 2130WAT      O 6631   8.860   2.296   5.362
 2130WAT     H1 6632   8.952   2.268   5.390
 2130WAT     H2 6633   8.806   2.318   5.443
 2131WAT      O 6634   6.768   6.817   3.560
 2131WAT     H1 6635   6.848   6.876   3.546
 2131WAT     H2 6636   6.763   6.750   3.486
 2132WAT      O 6637   9.315   8.821   8.421
 2132WAT     H1 6638   9.345   8.755   8.352
 2132WAT     H2 6639   9.329   8.783   8.512
 2133WAT      O 6640   7.742   4.662   2.340
 2133WAT     H1 6641   7.706   4.677   2.248
 2133WAT     H2 6642   7.710   4.574   2.375
 2134WAT      O 6643   6.312   7.136   4.794
 2134WAT     H1 6644   6.228   7.106   4.750
 2134WAT     H2 6645   6.377   7.167   4.724
 2135WAT      O 6646   9.097   9.793   3.718
 2135WAT     H1 6647   9.056   9.883   3.703
 2135WAT     H2 6648   9.032   9.722   3.694
 2136WAT      O 6649   5.724   2.836   8.983
 2136WAT     H1 6650   5.680   2.783   9.056
 2136WAT     H2 6651   5.823   2.830   8.993
 2137WAT      O 6652   7.530   6.460   3.286
 2137WAT     H1 6653   7.591   6.382   3.304
 2137WAT     H2 6654   7.512   6.465   3.188
 2138WAT      O 6655   7.809   2.572   2.222
 2138WAT     H1 6656   7.780   2.496   2.280
 2138WAT     H2 6657   7.734   2.638   2.213
 2139WAT      O 6658   8.473   1.986   7.713
 2139WAT     H1 6659   8.409   1.915   7.743
 2139WAT     H2 6660   8.454   2.011   7.618
 2140WAT      O 6661   5.940   0.614   0.570
 2140WAT     H1 6662   5.983   0.550   0.633
 2140WAT     H2 6663   5.907   0.694   0.621
 2141WAT      O 6664   0.413   8.491   8.403
 2141WAT     H1 6665   0.487   8.425   8.417
 2141WAT     H2 6666   0.393   8.498   8.305
 2142WAT      O 6667   9.101   9.401   7.147
 2142WAT     H1 6668   9.109   9.332   7.219
 2142WAT     H2 6669   9.150   9.370   7.065
 2143WAT      O 6670   3.370   2.995   2.557
 2143WAT     H1 6671   3.422   3.050   2.622
 2143WAT     H2 6672   3.414   2.905   2.547
 2144WAT      O 6673   0.910   5.436   3.304
 2144WAT     H1 6674   0.890   5.491   3.384
 2144WAT     H2 6675   0.926   5.341   3.332
 2145WAT      O 6676   1.758   4.877   6.187
 2145WAT     H1 6677   1.685   4.890   6.120
 2145WAT     H2 6678   1.726   4.906   6.277
 2146WAT      O 6679   8.948   7.143   1.986
 2146WAT     H1 6680   8.967   7.117   1.892
 2146WAT     H2 6681   9.033   7.153   2.036
 2147WAT      O 6682   2.846   2.098   3.237
 2147WAT     H1 6683   2.809   2.048   3.315
 2147WAT     H2 6684   2.787   2.086   3.158
 2148WAT      O 6685   0.455   1.673   0.201
 2148WAT     H1 6686   0.455   1.712   0.293
 2148WAT     H2 6687   0.419   1.580   0.205
 2149WAT      O 6688   6.083   4.778   7.617
 2149WAT     H1 6689   6.019   4.835   7.669
 2149WAT     H2 6690   6.076   4.683   7.649
 2150WAT      O 6691   6.198   7.098   8.963
 2150WAT     H1 6692   6.182   7.046   9.047
 2150WAT     H2 6693   6.260   7.047   8.904
 2151WAT      O 6694   8.361   6.408   4.841
 2151WAT     H1 6695   8.309   6.490   4.815
 2151WAT     H2 6696   8.459   6.427   4.834
 2152WAT      O 6697   0.516   3.748   5.463
 2152WAT     H1 6698   0.531   3.759   5.561
 2152WAT     H2 6699   0.571   3.672   5.429
 2153WAT      O 6700   5.596   9.641   1.694
 2153WAT     H1 6701   5.599   9.643   1.794
 2153WAT     H2 6702   5.501   9.642   1.663
 2154WAT      O 6703   4.555   2.650   3.210
 2154WAT     H1 6704   4.551   2.553   3.236
 2154WAT     H2 6705   4.634   2.665   3.150
 2155WAT      O 6706   9.182   8.443   0.677
 2155WAT     H1 6707   9.250   8.372   0.695
 2155WAT     H2 6708   9.226   8.533   0.685
 2156WAT      O 6709   7.719   3.067   8.926
 2156WAT     H1 6710   7.625   3.062   8.894
 2156WAT     H2 6711   7.734   3.154   8.973
 2157WAT      O 6712   1.928   4.337   9.848
 2157WAT     H1 6713   2.012   4.302   9.808
 2157WAT     H2 6714   1.850   4.311   9.791
 2158WAT      O 6715   7.548   3.630   8.259
 2158WAT     H1 6716   7.584   3.573   8.184
 2158WAT     H2 6717   7.495   3.573   8.322
 2159WAT      O 6718   2.876   8.792   5.063
 2159WAT     H1 6719   2.846   8.803   4.968
 2159WAT     H2 6720   2.934   8.711   5.070
 2160WAT      O 6721   9.305   1.333   8.365
 2160WAT     H1 6722   9.257   1.254   8.328
 2160WAT     H2 6723   9.245   1.413   8.365
 2161WAT      O 6724   5.567   1.332   4.110
 2161WAT     H1 6725   5.494   1.367   4.169
 2161WAT     H2 6726   5.612   1.409   4.064
 2162WAT      O 6727   8.240   6.754   3.023
 2162WAT     H1 6728   8.149   6.795   3.030
 2162WAT     H2 6729   8.267   6.749   2.927
 2163WAT      O 6730   6.332   5.013   5.114
 2163WAT     H1 6731   6.362   5.035   5.207
 2163WAT     H2 6732   6.349   4.917   5.095
 2164WAT      O 6733   6.751   7.130   0.935
 2164WAT     H1 6734   6.811   7.109   1.012
 2164WAT     H2 6735   6.734   7.047   0.881
 2165WAT      O 6736   4.273   8.159   5.854
 2165WAT     H1 6737   4.278   8.119   5.946
 2165WAT     H2 6738   4.365   8.179   5.822
 2166WAT      O 6739   7.135   4.658   5.928
 2166WAT     H1 6740   7.144   4.685   5.832
 2166WAT     H2 6741   7.075   4.578   5.935
 2167WAT      O 6742   9.396   8.062   9.194
 2167WAT     H1 6743   9.402   7.976   9.144
 2167WAT     H2 6744   9.367   8.135   9.131
 2168WAT      O 6745   7.848   7.613   0.762
 2168WAT     H1 6746   7.760   7.652   0.789
 2168WAT     H2 6747   7.861   7.525   0.809
 2169WAT      O 6748   6.506   7.417   5.410
 2169WAT     H1 6749   6.497   7.323   5.376
 2169WAT     H2 6750   6.451   7.428   5.493
 2170WAT      O 6751   5.874   6.209   5.813
 2170WAT     H1 6752   5.962   6.253   5.826
 2170WAT     H2 6753   5.809   6.274   5.774
 2171WAT      O 6754   7.906   1.077   1.274
 2171WAT     H1 6755   7.985   1.018   1.262
 2171WAT     H2 6756   7.916   1.129   1.359
 2172WAT      O 6757   8.344   0.288   0.054
 2172WAT     H1 6758   8.342   0.195   0.091
 2172WAT     H2 6759   8.332   0.285  -0.045
 2173WAT      O 6760   4.949   8.439   3.366
 2173WAT     H1 6761   4.954   8.339   3.362
 2173WAT     H2 6762   4.983   8.470   3.455
 2174WAT      O 6763   2.297   5.660   6.920
 2174WAT     H1 6764   2.279   5.743   6.867
 2174WAT     H2 6765   2.307   5.582   6.859
 2175WAT      O 6766   3.556   4.614   4.194
 2175WAT     H1 6767   3.610   4.589   4.114
 2175WAT     H2 6768   3.546   4.713   4.199
 2176WAT      O 6769   8.516   2.550   9.243
 2176WAT     H1 6770   8.577   2.607   9.188
 2176WAT     H2 6771   8.564   2.519   9.325
 2177WAT      O 6772   3.359   3.230   0.492
 2177WAT     H1 6773   3.434   3.191   0.545
 2177WAT     H2 6774   3.331   3.317   0.533
 2178WAT      O 6775   0.628   7.417   2.244
 2178WAT     H1 6776   0.595   7.438   2.335
 2178WAT     H2 6777   0.587   7.480   2.178
 2179WAT      O 6778   4.821   8.979   1.288
 2179WAT     H1 6779   4.828   9.033   1.372
 2179WAT     H2 6780   4.897   8.914   1.284
 2180WAT      O 6781   7.108   4.138   1.210
 2180WAT     H1 6782   7.121   4.189   1.125
 2180WAT     H2 6783   7.176   4.166   1.277
 2181WAT      O 6784   6.446   0.098   5.561
 2181WAT     H1 6785   6.508   0.057   5.495
 2181WAT     H2 6786   6.352   0.083   5.532
 2182WAT      O 6787   6.710   4.402   9.360
 2182WAT     H1 6788   6.685   4.390   9.263
 2182WAT     H2 6789   6.794   4.352   9.379
 2183WAT      O 6790   0.311   8.600   1.547
 2183WAT     H1 6791   0.379   8.609   1.474
 2183WAT     H2 6792   0.234   8.661   1.528
 2184WAT      O 6793   5.644   5.914   9.611
 2184WAT     H1 6794   5.624   5.890   9.516
 2184WAT     H2 6795   5.718   5.981   9.614
 2185WAT      O 6796   8.992   1.415   0.773
 2185WAT     H1 6797   8.924   1.402   0.846
 2185WAT     H2 6798   9.084   1.400   0.810
 2186WAT      O 6799   3.547   2.616   0.298
 2186WAT     H1 6800   3.472   2.676   0.271
 2186WAT     H2 6801   3.510   2.534   0.341
 2187WAT      O 6802   3.865   1.902   8.229
 2187WAT     H1 6803   3.929   1.865   8.296
 2187WAT     H2 6804   3.910   1.910   8.140
 2188WAT      O 6805   9.346   3.298   0.665
 2188WAT     H1 6806   9.248   3.290   0.649
 2188WAT     H2 6807   9.396   3.262   0.586
 2189WAT      O 6808   5.293   9.600   0.198
 2189WAT     H1 6809   5.299   9.700   0.202
 2189WAT     H2 6810   5.378   9.563   0.161
 2190WAT      O 6811   6.066   9.098   1.264
 2190WAT     H1 6812   6.008   9.034   1.212
 2190WAT     H2 6813   6.017   9.127   1.346
 2191WAT      O 6814   1.061   1.970   2.200
 2191WAT     H1 6815   1.096   1.884   2.162
 2191WAT     H2 6816   1.131   2.041   2.191
 2192WAT      O 6817   7.388   5.076   8.241
 2192WAT     H1 6818   7.480   5.052   8.270
 2192WAT     H2 6819   7.323   5.057   8.314
 2193WAT      O 6820   5.515   2.725   0.983
 2193WAT     H1 6821   5.448   2.652   0.973
 2193WAT     H2 6822   5.605   2.686   1.002
 2194WAT      O 6823   8.741   9.215   7.983
 2194WAT     H1 6824   8.704   9.159   8.057
 2194WAT     H2 6825   8.667   9.260   7.934
 2195WAT      O 6826   6.314   0.578   7.001
 2195WAT     H1 6827   6.219   0.601   7.020
 2195WAT     H2 6828   6.319   0.519   6.920
 2196WAT      O 6829   6.448   8.240   5.590
 2196WAT     H1 6830   6.462   8.322   5.535
 2196WAT     H2 6831   6.356   8.241   5.629
 2197WAT      O 6832   3.727   2.632   1.707
 2197WAT     H1 6833   3.778   2.546   1.715
 2197WAT     H2 6834   3.767   2.700   1.768
 2198WAT      O 6835   2.551   2.125   5.300
 2198WAT     H1 6836   2.631   2.066   5.296
 2198WAT     H2 6837   2.468   2.070   5.288
 2199WAT      O 6838   4.667   9.252   6.380
 2199WAT     H1 6839   4.644   9.172   6.326
 2199WAT     H2 6840   4.590   9.278   6.438
 2200WAT      O 6841   0.061   7.295   2.906
 2200WAT     H1 6842   0.039   7.218   2.846
 2200WAT     H2 6843   0.160   7.309   2.908
 2201WAT      O 6844   5.993   3.263   0.844
 2201WAT     H1 6845   5.933   3.337   0.813
 2201WAT     H2 6846   6.019   3.280   0.939
 2202WAT      O 6847   4.905   3.364   8.368
 2202WAT     H1 6848   4.961   3.353   8.286
 2202WAT     H2 6849   4.861   3.278   8.391
 2203WAT      O 6850   4.581   3.412   8.800
 2203WAT     H1 6851   4.521   3.339   8.832
 2203WAT     H2 6852   4.676   3.381   8.802
 2204WAT      O 6853   0.891   3.968   8.750
 2204WAT     H1 6854   0.909   4.066   8.750
 2204WAT     H2 6855   0.810   3.949   8.805
 2205WAT      O 6856   5.265   3.934   9.849
 2205WAT     H1 6857   5.332   3.875   9.896
 2205WAT     H2 6858   5.207   3.878   9.790
 2206WAT      O 6859   6.492   2.890   9.602
 2206WAT     H1 6860   6.498   2.812   9.540
 2206WAT     H2 6861   6.552   2.964   9.569
 2207WAT      O 6862   2.372   0.660   8.223
 2207WAT     H1 6863   2.379   0.758   8.240
 2207WAT     H2 6864   2.333   0.615   8.303
 2208WAT      O 6865   4.231   4.646   1.305
 2208WAT     H1 6866   4.190   4.555   1.303
 2208WAT     H2 6867   4.209   4.695   1.220
 2209WAT      O 6868   0.957   1.720   5.353
 2209WAT     H1 6869   1.001   1.810   5.354
 2209WAT     H2 6870   0.950   1.685   5.446
 2210WAT      O 6871   7.676   4.450   4.420
 2210WAT     H1 6872   7.606   4.379   4.410
 2210WAT     H2 6873   7.767   4.408   4.412
 2211WAT      O 6874   8.685   4.442   8.702
 2211WAT     H1 6875   8.690   4.371   8.772
 2211WAT     H2 6876   8.754   4.512   8.722
 2212WAT      O 6877   0.714   1.578   1.252
 2212WAT     H1 6878   0.669   1.667   1.240
 2212WAT     H2 6879   0.671   1.530   1.329
 2213WAT      O 6880   5.832   4.270   7.223
 2213WAT     H1 6881   5.875   4.213   7.153
 2213WAT     H2 6882   5.884   4.264   7.308
 2214WAT      O 6883   7.108   3.004   4.579
 2214WAT     H1 6884   7.134   2.985   4.484
 2214WAT     H2 6885   7.017   3.044   4.581
 2215WAT      O 6886   7.457   4.069   6.397
 2215WAT     H1 6887   7.515   4.135   6.349
 2215WAT     H2 6888   7.463   4.086   6.496
 2216WAT      O 6889   2.267   7.983   1.411
 2216WAT     H1 6890   2.249   7.931   1.495
 2216WAT     H2 6891   2.363   8.010   1.408
 2217WAT      O 6892   0.492   1.726   6.774
 2217WAT     H1 6893   0.452   1.771   6.694
 2217WAT     H2 6894   0.490   1.788   6.853
 2218WAT      O 6895   5.735   7.049   3.039
 2218WAT     H1 6896   5.794   7.109   3.093
 2218WAT     H2 6897   5.723   7.088   2.947
 2219WAT      O 6898   9.846   5.296   1.168
 2219WAT     H1 6899   9.943   5.287   1.144
 2219WAT     H2 6900   9.791   5.248   1.099
 2220WAT      O 6901   9.726   4.848   5.994
 2220WAT     H1 6902   9.696   4.923   5.935
 2220WAT     H2 6903   9.826   4.852   6.005
 2221WAT      O 6904   2.672   5.555   0.818
 2221WAT     H1 6905   2.653   5.649   0.849
 2221WAT     H2 6906   2.763   5.528   0.848
 2222WAT      O 6907   9.832   5.614   2.409
 2222WAT     H1 6908   9.770   5.589   2.484
 2222WAT     H2 6909   9.854   5.711   2.416
 2223WAT      O 6910   7.307   2.372   9.131
 2223WAT     H1 6911   7.349   2.402   9.216
 2223WAT     H2 6912   7.372   2.382   9.056
 2224WAT      O 6913   6.739   1.363   0.062
 2224WAT     H1 6914   6.819   1.315   0.025
 2224WAT     H2 6915   6.655   1.320   0.028
 2225WAT      O 6916   6.935   6.849   4.686
 2225WAT     H1 6917   6.863   6.914   4.665
 2225WAT     H2 6918   6.974   6.870   4.776
 2226WAT      O 6919   2.186   0.840   1.188
 2226WAT     H1 6920   2.278   0.878   1.198
 2226WAT     H2 6921   2.139   0.886   1.112
 2227WAT      O 6922   5.124   6.700   6.562
 2227WAT     H1 6923   5.152   6.633   6.493
 2227WAT     H2 6924   5.030   6.730   6.543
 2228WAT      O 6925   6.855   7.992   2.695
 2228WAT     H1 6926   6.819   7.993   2.789
 2228WAT     H2 6927   6.816   7.914   2.646
 2229WAT      O 6928   1.529   2.979   3.792
 2229WAT     H1 6929   1.573   3.054   3.742
 2229WAT     H2 6930   1.569   2.892   3.763
 2230WAT      O 6931   6.738   5.842   2.395
 2230WAT     H1 6932   6.820   5.809   2.443
 2230WAT     H2 6933   6.663   5.779   2.410
 2231WAT      O 6934   8.937   0.038   1.492
 2231WAT     H1 6935   8.952   0.124   1.443
 2231WAT     H2 6936   8.844   0.006   1.474
 2232WAT      O 6937   0.025   9.050   2.970
 2232WAT     H1 6938  -0.031   9.113   2.916
 2232WAT     H2 6939   0.050   9.093   3.057
 2233WAT      O 6940   1.239   2.948   5.145
 2233WAT     H1 6941   1.206   2.910   5.232
 2233WAT     H2 6942   1.336   2.970   5.153
 2234WAT      O 6943   6.246   2.577   1.411
 2234WAT     H1 6944   6.337   2.618   1.401
 2234WAT     H2 6945   6.190   2.636   1.469
 2235WAT      O 6946   5.556   3.356   7.794
 2235WAT     H1 6947   5.457   3.357   7.779
 2235WAT     H2 6948   5.594   3.447   7.775
 2236WAT      O 6949   6.186   2.881   1.965
 2236WAT     H1 6950   6.182   2.968   2.014
 2236WAT     H2 6951   6.277   2.871   1.924
 2237WAT      O 6952   0.134   4.327   2.052
 2237WAT     H1 6953   0.154   4.372   1.965
 2237WAT     H2 6954   0.035   4.314   2.060
 2238WAT      O 6955   5.859   4.403   8.948
 2238WAT     H1 6956   5.936   4.462   8.921
 2238WAT     H2 6957   5.893   4.327   9.003
 2239WAT      O 6958   6.434   4.366   5.643
 2239WAT     H1 6959   6.361   4.422   5.603
 2239WAT     H2 6960   6.438   4.382   5.741
 2240WAT      O 6961   9.836   4.467   0.845
 2240WAT     H1 6962   9.823   4.373   0.876
 2240WAT     H2 6963   9.747   4.512   0.835
 2241WAT      O 6964   8.216   0.676   1.061
 2241WAT     H1 6965   8.295   0.699   1.118
 2241WAT     H2 6966   8.135   0.722   1.098
 2242WAT      O 6967   0.252   9.712   7.131
 2242WAT     H1 6968   0.292   9.804   7.139
 2242WAT     H2 6969   0.200   9.706   7.046
 2243WAT      O 6970   1.804   2.291   4.703
 2243WAT     H1 6971   1.767   2.239   4.780
 2243WAT     H2 6972   1.836   2.380   4.735
 2244WAT      O 6973   0.754   5.781   1.451
 2244WAT     H1 6974   0.803   5.775   1.538
 2244WAT     H2 6975   0.747   5.877   1.423
 2245WAT      O 6976   8.750   0.313   7.049
 2245WAT     H1 6977   8.735   0.412   7.047
 2245WAT     H2 6978   8.802   0.289   7.131
 2246WAT      O 6979   0.183   2.584   3.395
 2246WAT     H1 6980   0.106   2.640   3.364
 2246WAT     H2 6981   0.221   2.622   3.479
 2247WAT      O 6982   5.529   3.019   1.392
 2247WAT     H1 6983   5.536   3.118   1.398
 2247WAT     H2 6984   5.440   2.989   1.426
 2248WAT      O 6985   7.824   0.697   5.193
 2248WAT     H1 6986   7.882   0.648   5.128
 2248WAT     H2 6987   7.732   0.707   5.154
 2249WAT      O 6988   9.491   3.516   9.503
 2249WAT     H1 6989   9.571   3.575   9.513
 2249WAT     H2 6990   9.497   3.466   9.416
 2250WAT      O 6991   4.081   9.530   8.370
 2250WAT     H1 6992   4.166   9.515   8.420
 2250WAT     H2 6993   4.028   9.445   8.368
 2251WAT      O 6994   5.967   7.256   0.351
 2251WAT     H1 6995   5.912   7.314   0.290
 2251WAT     H2 6996   5.907   7.189   0.396
 2252WAT      O 6997   0.808   8.225   0.270
 2252WAT     H1 6998   0.754   8.254   0.191
 2252WAT     H2 6999   0.781   8.132   0.297
 2253WAT      O 7000   8.087   6.087   6.921
 2253WAT     H1 7001   8.083   6.177   6.964
 2253WAT     H2 7002   8.067   6.095   6.824
 2254WAT      O 7003   6.277   3.437   3.280
 2254WAT     H1 7004   6.177   3.446   3.281
 2254WAT     H2 7005   6.309   3.431   3.186
 2255WAT      O 7006   6.331   4.114   2.816
 2255WAT     H1 7007   6.334   4.043   2.746
 2255WAT     H2 7008   6.365   4.200   2.778
 2256WAT      O 7009   7.961   6.950   8.247
 2256WAT     H1 7010   7.936   6.960   8.150
 2256WAT     H2 7011   8.059   6.966   8.258
 2257WAT      O 7012   0.813   6.018   1.137
 2257WAT     H1 7013   0.759   6.054   1.061
 2257WAT     H2 7014   0.838   5.923   1.119
 2258WAT      O 7015   7.684   3.942   8.529
 2258WAT     H1 7016   7.727   3.896   8.451
 2258WAT     H2 7017   7.633   3.875   8.583
 2259WAT      O 7018   4.216   1.777   4.917
 2259WAT     H1 7019   4.120   1.798   4.938
 2259WAT     H2 7020   4.230   1.783   4.819
 2260WAT      O 7021   5.505   3.758   2.535
 2260WAT     H1 7022   5.477   3.853   2.548
 2260WAT     H2 7023   5.488   3.731   2.440
 2261WAT      O 7024   0.986   1.479   6.328
 2261WAT     H1 7025   1.081   1.490   6.298
 2261WAT     H2 7026   0.933   1.435   6.255
 2262WAT      O 7027   9.327   5.781   3.390
 2262WAT     H1 7028   9.292   5.855   3.447
 2262WAT     H2 7029   9.427   5.788   3.384
 2263WAT      O 7030   4.998   4.817   6.138
 2263WAT     H1 7031   4.952   4.906   6.139
 2263WAT     H2 7032   4.991   4.776   6.047
 2264WAT      O 7033   0.234   8.659   8.509
 2264WAT     H1 7034   0.142   8.641   8.474
 2264WAT     H2 7035   0.300   8.602   8.460
 2265WAT      O 7036   1.324   6.384   5.819
 2265WAT     H1 7037   1.372   6.299   5.796
 2265WAT     H2 7038   1.391   6.454   5.846
 2266WAT      O 7039   6.273   8.521   4.437
 2266WAT     H1 7040   6.363   8.497   4.474
 2266WAT     H2 7041   6.244   8.451   4.372
 2267WAT      O 7042   0.673   2.311   2.120
 2267WAT     H1 7043   0.603   2.278   2.056
 2267WAT     H2 7044   0.672   2.255   2.202
 2268WAT      O 7045   8.309   5.507   6.597
 2268WAT     H1 7046   8.350   5.485   6.508
 2268WAT     H2 7047   8.381   5.537   6.660
 2269WAT      O 7048   0.337   3.338   8.926
 2269WAT     H1 7049   0.268   3.270   8.952
 2269WAT     H2 7050   0.386   3.307   8.845
 2270WAT      O 7051   3.861   1.657   3.806
 2270WAT     H1 7052   3.822   1.666   3.715
 2270WAT     H2 7053   3.961   1.664   3.800
 2271WAT      O 7054   3.712   9.208   1.944
 2271WAT     H1 7055   3.758   9.156   2.016
 2271WAT     H2 7056   3.781   9.250   1.885
 2272WAT      O 7057   4.167   4.936   0.542
 2272WAT     H1 7058   4.092   4.936   0.477
 2272WAT     H2 7059   4.187   4.842   0.571
 2273WAT      O 7060   8.077   2.358   0.956
 2273WAT     H1 7061   8.044   2.382   1.047
 2273WAT     H2 7062   8.006   2.376   0.888
 2274WAT      O 7063   4.014   8.030   8.031
 2274WAT     H1 7064   3.938   7.978   7.993
 2274WAT     H2 7065   4.035   8.108   7.972
 2275WAT      O 7066   5.457   7.762   5.966
 2275WAT     H1 7067   5.535   7.823   5.984
 2275WAT     H2 7068   5.471   7.715   5.879
 2276WAT      O 7069   1.030   0.953   3.236
 2276WAT     H1 7070   1.076   0.912   3.157
 2276WAT     H2 7071   1.042   0.894   3.315
 2277WAT      O 7072   8.368   4.423   9.887
 2277WAT     H1 7073   8.288   4.478   9.912
 2277WAT     H2 7074   8.448   4.482   9.878
 2278WAT      O 7075   3.077   8.031   5.656
 2278WAT     H1 7076   3.140   8.055   5.730
 2278WAT     H2 7077   3.117   8.056   5.568
 2279WAT      O 7078   9.164   1.997   0.731
 2279WAT     H1 7079   9.067   2.024   0.732
 2279WAT     H2 7080   9.221   2.078   0.717
 2280WAT      O 7081   5.965   1.333   2.207
 2280WAT     H1 7082   5.906   1.339   2.127
 2280WAT     H2 7083   6.029   1.257   2.196
 2281WAT      O 7084   5.305   1.829   1.607
 2281WAT     H1 7085   5.348   1.826   1.517
 2281WAT     H2 7086   5.205   1.826   1.596
 2282WAT      O 7087   4.873   6.841   6.541
 2282WAT     H1 7088   4.821   6.763   6.576
 2282WAT     H2 7089   4.815   6.922   6.538
 2283WAT      O 7090   2.919   6.991   0.695
 2283WAT     H1 7091   2.990   6.926   0.724
 2283WAT     H2 7092   2.920   6.998   0.595
 2284WAT      O 7093   5.527   8.220   6.274
 2284WAT     H1 7094   5.623   8.225   6.245
 2284WAT     H2 7095   5.508   8.130   6.312
 2285WAT      O 7096   0.906   4.579   8.592
 2285WAT     H1 7097   0.890   4.487   8.630
 2285WAT     H2 7098   0.846   4.644   8.638
 2286WAT      O 7099   5.208   0.710   7.988
 2286WAT     H1 7100   5.172   0.661   8.067
 2286WAT     H2 7101   5.298   0.673   7.964
 2287WAT      O 7102   0.013   1.101   5.995
 2287WAT     H1 7103   0.050   1.080   5.905
 2287WAT     H2 7104  -0.028   1.192   5.994
 2288WAT      O 7105   9.819   3.802   0.835
 2288WAT     H1 7106   9.747   3.796   0.904
 2288WAT     H2 7107   9.818   3.893   0.794
 2289WAT      O 7108   1.143   4.783   7.459
 2289WAT     H1 7109   1.218   4.804   7.523
 2289WAT     H2 7110   1.177   4.787   7.366
 2290WAT      O 7111   6.816   1.497   8.014
 2290WAT     H1 7112   6.835   1.548   7.931
 2290WAT     H2 7113   6.848   1.549   8.093
 2291WAT      O 7114   0.520   5.135   2.191
 2291WAT     H1 7115   0.449   5.204   2.187
 2291WAT     H2 7116   0.610   5.179   2.195
 2292WAT      O 7117   7.788   0.967   8.170
 2292WAT     H1 7118   7.800   0.868   8.173
 2292WAT     H2 7119   7.787   1.002   8.264
 2293WAT      O 7120   9.743   3.305   1.000
 2293WAT     H1 7121   9.654   3.272   0.969
 2293WAT     H2 7122   9.814   3.268   0.940
 2294WAT      O 7123   3.906   6.710   0.181
 2294WAT     H1 7124   3.884   6.613   0.174
 2294WAT     H2 7125   3.864   6.760   0.105
 2295WAT      O 7126   3.098   4.889   3.165
 2295WAT     H1 7127   3.139   4.926   3.249
 2295WAT     H2 7128   3.028   4.953   3.132
 2296WAT      O 7129   8.710   0.661   0.743
 2296WAT     H1 7130   8.736   0.695   0.653
 2296WAT     H2 7131   8.650   0.727   0.788
 2297WAT      O 7132   4.254   3.447   6.381
 2297WAT     H1 7133   4.313   3.388   6.435
 2297WAT     H2 7134   4.261   3.423   6.284
 2298WAT      O 7135   1.808   5.507   5.533
 2298WAT     H1 7136   1.722   5.547   5.565
 2298WAT     H2 7137   1.792   5.412   5.505
 2299WAT      O 7138   9.160   5.924   3.225
 2299WAT     H1 7139   9.064   5.897   3.238
 2299WAT     H2 7140   9.219   5.854   3.267
 2300WAT      O 7141   8.209   3.267   8.187
 2300WAT     H1 7142   8.121   3.307   8.213
 2300WAT     H2 7143   8.280   3.303   8.247
 2301WAT      O 7144   6.088   0.477   5.568
 2301WAT     H1 7145   6.172   0.522   5.597
 2301WAT     H2 7146   6.100   0.438   5.477
 2302WAT      O 7147   1.361   6.411   6.122
 2302WAT     H1 7148   1.390   6.448   6.210
 2302WAT     H2 7149   1.384   6.476   6.049
 2303WAT      O 7150   9.728   7.417   1.360
 2303WAT     H1 7151   9.754   7.321   1.351
 2303WAT     H2 7152   9.795   7.474   1.312
 2304WAT      O 7153   3.082   2.906   1.786
 2304WAT     H1 7154   2.988   2.887   1.814
 2304WAT     H2 7155   3.088   3.000   1.751
 2305WAT      O 7156   1.409   5.927   8.769
 2305WAT     H1 7157   1.466   5.946   8.690
 2305WAT     H2 7158   1.433   5.989   8.843
 2306WAT      O 7159   7.304   5.659   0.689
 2306WAT     H1 7160   7.229   5.595   0.672
 2306WAT     H2 7161   7.346   5.638   0.778
 2307WAT      O 7162   9.313   1.570   4.201
 2307WAT     H1 7163   9.264   1.524   4.275
 2307WAT     H2 7164   9.312   1.513   4.120
 2308WAT      O 7165   2.929   1.905   5.530
 2308WAT     H1 7166   3.006   1.937   5.474
 2308WAT     H2 7167   2.868   1.983   5.549
 2309WAT      O 7168   3.790   8.493   7.353
 2309WAT     H1 7169   3.691   8.485   7.341
 2309WAT     H2 7170   3.835   8.425   7.295
 2310WAT      O 7171   4.935   5.486   1.528
 2310WAT     H1 7172   4.973   5.406   1.482
 2310WAT     H2 7173   4.987   5.567   1.504
 2311WAT      O 7174   1.079   1.439   4.446
 2311WAT     H1 7175   1.063   1.537   4.445
 2311WAT     H2 7176   0.993   1.391   4.427
 2312WAT      O 7177   7.742   7.035   6.034
 2312WAT     H1 7178   7.663   6.994   5.987
 2312WAT     H2 7179   7.826   7.001   5.993
 2313WAT      O 7180   9.133   3.096   6.757
 2313WAT     H1 7181   9.165   3.072   6.849
 2313WAT     H2 7182   9.078   3.021   6.721
 2314WAT      O 7183   7.516   4.247   4.368
 2314WAT     H1 7184   7.452   4.213   4.436
 2314WAT     H2 7185   7.466   4.301   4.300
 2315WAT      O 7186   3.136   7.854   8.440
 2315WAT     H1 7187   3.056   7.798   8.459
 2315WAT     H2 7188   3.189   7.867   8.524
 2316WAT      O 7189   6.552   8.539   1.004
 2316WAT     H1 7190   6.590   8.451   0.978
 2316WAT     H2 7191   6.623   8.609   0.999
 2317WAT      O 7192   9.698   2.810   8.920
 2317WAT     H1 7193   9.614   2.772   8.882
 2317WAT     H2 7194   9.776   2.756   8.890
 2318WAT      O 7195   1.150   7.617   1.580
 2318WAT     H1 7196   1.100   7.652   1.659
 2318WAT     H2 7197   1.126   7.670   1.499
 2319WAT      O 7198   7.125   8.389   1.705
 2319WAT     H1 7199   7.218   8.366   1.677
 2319WAT     H2 7200   7.066   8.308   1.695
 2320WAT      O 7201   0.481   0.943   8.257
 2320WAT     H1 7202   0.520   1.031   8.229
 2320WAT     H2 7203   0.383   0.943   8.242
 2321WAT      O 7204   5.731   0.490   2.512
 2321WAT     H1 7205   5.828   0.508   2.522
 2321WAT     H2 7206   5.679   0.574   2.531
 2322WAT      O 7207   5.233   8.911   7.380
 2322WAT     H1 7208   5.305   8.866   7.328
 2322WAT     H2 7209   5.148   8.860   7.369
 2323WAT      O 7210   6.578   3.046   0.603
 2323WAT     H1 7211   6.556   2.951   0.581
 2323WAT     H2 7212   6.524   3.076   0.682
 2324WAT      O 7213   7.698   8.730   0.172
 2324WAT     H1 7214   7.682   8.631   0.165
 2324WAT     H2 7215   7.640   8.768   0.243
 2325WAT      O 7216   6.913   0.938   1.004
 2325WAT     H1 7217   6.966   0.899   0.928
 2325WAT     H2 7218   6.933   0.887   1.088
 2326WAT      O 7219   4.720   6.782   3.278
 2326WAT     H1 7220   4.720   6.706   3.343
 2326WAT     H2 7221   4.776   6.758   3.198
 2327WAT      O 7222   4.203   3.013   7.042
 2327WAT     H1 7223   4.199   3.105   7.004
 2327WAT     H2 7224   4.155   3.011   7.130
 2328WAT      O 7225   7.714   7.147   6.906
 2328WAT     H1 7226   7.735   7.096   6.989
 2328WAT     H2 7227   7.616   7.168   6.904
 2329WAT      O 7228   5.510   5.934   8.836
 2329WAT     H1 7229   5.452   5.857   8.863
 2329WAT     H2 7230   5.473   5.979   8.755
 2330WAT      O 7231   2.077   6.256   7.876
 2330WAT     H1 7232   2.064   6.172   7.825
 2330WAT     H2 7233   2.059   6.239   7.973
 2331WAT      O 7234   2.655   3.496   7.401
 2331WAT     H1 7235   2.581   3.561   7.417
 2331WAT     H2 7236   2.725   3.539   7.343
 2332WAT      O 7237   7.237   3.968   9.188
 2332WAT     H1 7238   7.175   3.974   9.266
 2332WAT     H2 7239   7.196   4.015   9.109
 2333WAT      O 7240   1.984   8.648   4.497
 2333WAT     H1 7241   1.912   8.631   4.564
 2333WAT     H2 7242   2.029   8.735   4.517
 2334WAT      O 7243   2.316   3.294   7.209
 2334WAT     H1 7244   2.299   3.219   7.146
 2334WAT     H2 7245   2.250   3.290   7.284
 2335WAT      O 7246   8.288   8.732   9.507
 2335WAT     H1 7247   8.356   8.690   9.447
 2335WAT     H2 7248   8.217   8.665   9.529
 2336WAT      O 7249   7.664   7.713   8.531
 2336WAT     H1 7250   7.670   7.662   8.445
 2336WAT     H2 7251   7.650   7.649   8.607
 2337WAT      O 7252   9.179   8.721   3.361
 2337WAT     H1 7253   9.144   8.634   3.326
 2337WAT     H2 7254   9.106   8.789   3.360
 2338WAT      O 7255   1.149   9.695   4.101
 2338WAT     H1 7256   1.154   9.596   4.089
 2338WAT     H2 7257   1.068   9.731   4.053
 2339WAT      O 7258   5.706   6.040   6.851
 2339WAT     H1 7259   5.762   5.964   6.815
 2339WAT     H2 7260   5.648   6.006   6.925
 2340WAT      O 7261   9.047   3.472   5.709
 2340WAT     H1 7262   9.049   3.502   5.804
 2340WAT     H2 7263   8.972   3.517   5.661
 2341WAT      O 7264   5.022   2.534   5.826
 2341WAT     H1 7265   5.108   2.563   5.867
 2341WAT     H2 7266   5.024   2.436   5.809
 2342WAT      O 7267   7.565   7.664   7.309
 2342WAT     H1 7268   7.635   7.703   7.250
 2342WAT     H2 7269   7.604   7.642   7.398
 2343WAT      O 7270   7.965   4.075   8.232
 2343WAT     H1 7271   7.894   4.136   8.198
 2343WAT     H2 7272   8.000   4.108   8.320
 2344WAT      O 7273   9.607   2.011   3.049
 2344WAT     H1 7274   9.674   2.025   3.121
 2344WAT     H2 7275   9.652   2.016   2.960
 2345WAT      O 7276   1.427   6.818   1.296
 2345WAT     H1 7277   1.508   6.877   1.302
 2345WAT     H2 7278   1.389   6.822   1.204
 2346WAT      O 7279   6.548   0.733   8.588
 2346WAT     H1 7280   6.532   0.778   8.500
 2346WAT     H2 7281   6.644   0.741   8.613
 2347WAT      O 7282   7.472   1.957   0.219
 2347WAT     H1 7283   7.524   2.003   0.147
 2347WAT     H2 7284   7.393   2.013   0.244
 2348WAT      O 7285   6.857   5.370   1.024
 2348WAT     H1 7286   6.952   5.402   1.018
 2348WAT     H2 7287   6.846   5.287   0.969
 2349WAT      O 7288   3.164   1.937   2.997
 2349WAT     H1 7289   3.152   1.961   3.094
 2349WAT     H2 7290   3.078   1.904   2.960
 2350WAT      O 7291   1.026   0.977   1.620
 2350WAT     H1 7292   1.030   1.069   1.658
 2350WAT     H2 7293   1.109   0.959   1.567
 2351WAT      O 7294   5.241   7.891   7.076
 2351WAT     H1 7295   5.219   7.794   7.079
 2351WAT     H2 7296   5.327   7.908   7.123
 2352WAT      O 7297   0.364   6.708   7.609
 2352WAT     H1 7298   0.290   6.716   7.677
 2352WAT     H2 7299   0.450   6.690   7.656
 2353WAT      O 7300   2.184   0.107   7.645
 2353WAT     H1 7301   2.215   0.161   7.568
 2353WAT     H2 7302   2.243   0.123   7.724
 2354WAT      O 7303   0.110   6.495   3.276
 2354WAT     H1 7304   0.130   6.556   3.353
 2354WAT     H2 7305   0.192   6.443   3.253
 2355WAT      O 7306   7.481   8.194   6.964
 2355WAT     H1 7307   7.412   8.154   6.904
 2355WAT     H2 7308   7.572   8.170   6.929
 2356WAT      O 7309   6.603   8.619   0.188
 2356WAT     H1 7310   6.529   8.562   0.153
 2356WAT     H2 7311   6.599   8.709   0.143
 2357WAT      O 7312   2.487   1.400   5.944
 2357WAT     H1 7313   2.482   1.490   5.987
 2357WAT     H2 7314   2.582   1.381   5.917
 2358WAT      O 7315   4.459   9.521   3.928
 2358WAT     H1 7316   4.461   9.620   3.908
 2358WAT     H2 7317   4.552   9.490   3.950
 2359WAT      O 7318   8.960   8.740   4.214
 2359WAT     H1 7319   9.001   8.742   4.123
 2359WAT     H2 7320   8.869   8.697   4.208
 2360WAT      O 7321   6.537   3.681   5.498
 2360WAT     H1 7322   6.608   3.627   5.453
 2360WAT     H2 7323   6.453   3.626   5.506
 2361WAT      O 7324   8.781   2.328   3.288
 2361WAT     H1 7325   8.877   2.318   3.314
 2361WAT     H2 7326   8.766   2.421   3.253
 2362WAT      O 7327   6.664   1.284   8.772
 2362WAT     H1 7328   6.694   1.191   8.793
 2362WAT     H2 7329   6.640   1.290   8.675
 2363WAT      O 7330   6.989   9.301   1.657
 2363WAT     H1 7331   6.911   9.362   1.673
 2363WAT     H2 7332   7.035   9.282   1.743
 2364WAT      O 7333   6.285   5.375   0.488
 2364WAT     H1 7334   6.284   5.441   0.563
 2364WAT     H2 7335   6.206   5.390   0.429
 2365WAT      O 7336   1.744   6.553   0.123
 2365WAT     H1 7337   1.675   6.591   0.061
 2365WAT     H2 7338   1.729   6.455   0.134
 2366WAT      O 7339   9.633   4.472   7.858
 2366WAT     H1 7340   9.643   4.518   7.946
 2366WAT     H2 7341   9.656   4.536   7.784
 2367WAT      O 7342   3.180   9.448   1.415
 2367WAT     H1 7343   3.247   9.437   1.488
 2367WAT     H2 7344   3.089   9.426   1.450
 2368WAT      O 7345   3.461   2.730   5.588
 2368WAT     H1 7346   3.524   2.665   5.546
 2368WAT     H2 7347   3.401   2.769   5.518
 2369WAT      O 7348   1.082   7.276   0.303
 2369WAT     H1 7349   1.130   7.200   0.348
 2369WAT     H2 7350   1.011   7.310   0.364
 2370WAT      O 7351   5.588   3.885   6.542
 2370WAT     H1 7352   5.619   3.916   6.452
 2370WAT     H2 7353   5.531   3.804   6.531
 2371WAT      O 7354   0.162   4.916   8.364
 2371WAT     H1 7355   0.083   4.900   8.305
 2371WAT     H2 7356   0.214   4.832   8.374
 2372WAT      O 7357   6.570   5.613   8.201
 2372WAT     H1 7358   6.497   5.545   8.202
 2372WAT     H2 7359   6.658   5.568   8.209
 2373WAT      O 7360   5.738   8.725   2.469
 2373WAT     H1 7361   5.820   8.707   2.415
 2373WAT     H2 7362   5.759   8.793   2.539
 2374WAT      O 7363   4.396   8.617   3.229
 2374WAT     H1 7364   4.404   8.518   3.213
 2374WAT     H2 7365   4.466   8.665   3.176
 2375WAT      O 7366   7.745   5.336   9.600
 2375WAT     H1 7367   7.831   5.288   9.614
 2375WAT     H2 7368   7.686   5.323   9.680
 2376WAT      O 7369   6.112   1.296   3.293
 2376WAT     H1 7370   6.065   1.242   3.222
 2376WAT     H2 7371   6.055   1.373   3.320
 2377WAT      O 7372   4.510   2.649   6.138
 2377WAT     H1 7373   4.589   2.710   6.149
 2377WAT     H2 7374   4.432   2.702   6.104
 2378WAT      O 7375   1.327   3.742   7.885
 2378WAT     H1 7376   1.382   3.811   7.932
 2378WAT     H2 7377   1.256   3.787   7.831
 2379WAT      O 7378   1.324   1.484   9.679
 2379WAT     H1 7379   1.226   1.495   9.697
 2379WAT     H2 7380   1.356   1.561   9.624
 2380WAT      O 7381   0.947   7.420   0.547
 2380WAT     H1 7382   0.996   7.466   0.621
 2380WAT     H2 7383   0.936   7.323   0.569
 2381WAT      O 7384   7.067   2.682   1.056
 2381WAT     H1 7385   7.101   2.775   1.045
 2381WAT     H2 7386   6.974   2.676   1.018
 2382WAT      O 7387   8.201   8.902   1.787
 2382WAT     H1 7388   8.223   8.953   1.871
 2382WAT     H2 7389   8.232   8.808   1.796
 2383WAT      O 7390   7.412   6.942   4.331
 2383WAT     H1 7391   7.317   6.920   4.311
 2383WAT     H2 7392   7.453   6.868   4.384
 2384WAT      O 7393   7.502   6.971   4.075
 2384WAT     H1 7394   7.491   6.961   4.174
 2384WAT     H2 7395   7.466   6.889   4.029
 2385WAT      O 7396   0.243   3.156   2.364
 2385WAT     H1 7397   0.177   3.203   2.304
 2385WAT     H2 7398   0.225   3.058   2.361
 2386WAT      O 7399   6.535   5.168   5.541
 2386WAT     H1 7400   6.614   5.226   5.519
 2386WAT     H2 7401   6.466   5.177   5.470
 2387WAT      O 7402   0.838   8.378   7.831
 2387WAT     H1 7403   0.738   8.367   7.828
 2387WAT     H2 7404   0.877   8.311   7.895
 2388WAT      O 7405   5.440   6.058   3.887
 2388WAT     H1 7406   5.492   6.139   3.859
 2388WAT     H2 7407   5.461   6.036   3.982
 2389WAT      O 7408   8.020   2.089   4.445
 2389WAT     H1 7409   8.033   1.994   4.417
 2389WAT     H2 7410   7.934   2.098   4.494
 2390WAT      O 7411   8.110   4.546   0.334
 2390WAT     H1 7412   8.185   4.505   0.384
 2390WAT     H2 7413   8.027   4.543   0.389
 2391WAT      O 7414   2.629   2.189   3.587
 2391WAT     H1 7415   2.560   2.195   3.514
 2391WAT     H2 7416   2.698   2.122   3.562
 2392WAT      O 7417   8.125   8.940   0.024
 2392WAT     H1 7418   8.183   8.933  -0.057
 2392WAT     H2 7419   8.182   8.945   0.106
 2393WAT      O 7420   9.770   9.268   0.752
 2393WAT     H1 7421   9.686   9.297   0.706
 2393WAT     H2 7422   9.845   9.265   0.686
 2394WAT      O 7423   6.001   4.186   5.860
 2394WAT     H1 7424   5.931   4.114   5.858
 2394WAT     H2 7425   5.963   4.270   5.822
 2395WAT      O 7426   1.461   1.522   1.921
 2395WAT     H1 7427   1.473   1.476   1.833
 2395WAT     H2 7428   1.491   1.462   1.995
 2396WAT      O 7429   8.596   5.435   6.733
 2396WAT     H1 7430   8.681   5.468   6.692
 2396WAT     H2 7431   8.545   5.512   6.772
 2397WAT      O 7432   5.217   6.239   0.893
 2397WAT     H1 7433   5.314   6.215   0.903
 2397WAT     H2 7434   5.163   6.187   0.959
 2398WAT      O 7435   7.566   2.553   8.694
 2398WAT     H1 7436   7.590   2.486   8.623
 2398WAT     H2 7437   7.649   2.593   8.732
 2399WAT      O 7438   1.135   7.931   2.283
 2399WAT     H1 7439   1.196   7.939   2.361
 2399WAT     H2 7440   1.077   8.012   2.277
 2400WAT      O 7441   4.773   5.093   0.991
 2400WAT     H1 7442   4.756   5.025   1.061
 2400WAT     H2 7443   4.849   5.062   0.933
 2401WAT      O 7444   7.278   3.196   0.457
 2401WAT     H1 7445   7.243   3.190   0.364
 2401WAT     H2 7446   7.378   3.191   0.456
 2402WAT      O 7447   9.403   3.183   9.632
 2402WAT     H1 7448   9.478   3.155   9.571
 2402WAT     H2 7449   9.439   3.244   9.702
 2403WAT      O 7450   7.833   8.983   9.724
 2403WAT     H1 7451   7.921   8.939   9.705
 2403WAT     H2 7452   7.839   9.033   9.810
 2404WAT      O 7453   4.317   1.465   3.295
 2404WAT     H1 7454   4.398   1.466   3.353
 2404WAT     H2 7455   4.298   1.557   3.261
 2405WAT      O 7456   1.885   2.690   6.258
 2405WAT     H1 7457   1.968   2.745   6.263
 2405WAT     H2 7458   1.854   2.668   6.351
 2406WAT      O 7459   1.880   2.055   0.615
 2406WAT     H1 7460   1.875   2.004   0.529
 2406WAT     H2 7461   1.792   2.101   0.632
 2407WAT      O 7462   5.120   1.187   1.926
 2407WAT     H1 7463   5.108   1.088   1.918
 2407WAT     H2 7464   5.184   1.207   2.000
 2408WAT      O 7465   6.729   0.411   7.406
 2408WAT     H1 7466   6.820   0.450   7.416
 2408WAT     H2 7467   6.662   0.484   7.390
 2409WAT      O 7468   5.323   3.275   9.541
 2409WAT     H1 7469   5.227   3.266   9.518
 2409WAT     H2 7470   5.333   3.336   9.620
 2410WAT      O 7471   5.409   6.052   0.011
 2410WAT     H1 7472   5.348   6.066  -0.067
 2410WAT     H2 7473   5.438   6.141   0.048
 2411WAT      O 7474   0.183   6.310   2.964
 2411WAT     H1 7475   0.234   6.272   3.041
 2411WAT     H2 7476   0.092   6.339   2.996
 2412WAT      O 7477   8.686   6.518   3.192
 2412WAT     H1 7478   8.589   6.527   3.173
 2412WAT     H2 7479   8.736   6.503   3.107
 2413WAT      O 7480   9.674   4.204   3.770
 2413WAT     H1 7481   9.579   4.225   3.746
 2413WAT     H2 7482   9.730   4.204   3.687
 2414WAT      O 7483   4.163   7.553   4.990
 2414WAT     H1 7484   4.236   7.593   5.046
 2414WAT     H2 7485   4.116   7.483   5.043
 2415WAT      O 7486   4.982   1.150   3.860
 2415WAT     H1 7487   5.005   1.224   3.797
 2415WAT     H2 7488   5.032   1.162   3.945
 2416WAT      O 7489   5.149   2.655   1.199
 2416WAT     H1 7490   5.219   2.615   1.258
 2416WAT     H2 7491   5.177   2.748   1.173
 2417WAT      O 7492   8.757   8.239   2.396
 2417WAT     H1 7493   8.712   8.163   2.350
 2417WAT     H2 7494   8.848   8.253   2.358
 2418WAT      O 7495   6.210   2.984   2.296
 2418WAT     H1 7496   6.212   3.035   2.210
 2418WAT     H2 7497   6.267   3.030   2.363
 2419WAT      O 7498   7.664   8.352   7.953
 2419WAT     H1 7499   7.712   8.413   8.017
 2419WAT     H2 7500   7.629   8.404   7.876
 2420WAT      O 7501   9.665   5.508   3.437
 2420WAT     H1 7502   9.737   5.445   3.408
 2420WAT     H2 7503   9.595   5.457   3.488
 2421WAT      O 7504   0.864   6.429   2.408
 2421WAT     H1 7505   0.924   6.377   2.347
 2421WAT     H2 7506   0.815   6.367   2.468
 2422WAT      O 7507   9.162   1.735   4.043
 2422WAT     H1 7508   9.151   1.829   4.075
 2422WAT     H2 7509   9.196   1.678   4.117
 2423WAT      O 7510   6.920   1.659   8.198
 2423WAT     H1 7511   7.000   1.615   8.239
 2423WAT     H2 7512   6.919   1.756   8.221
 2424WAT      O 7513   9.825   2.532   1.060
 2424WAT     H1 7514   9.873   2.497   0.980
 2424WAT     H2 7515   9.748   2.471   1.080
 2425WAT      O 7516   0.821   2.944   4.742
 2425WAT     H1 7517   0.772   3.021   4.783
 2425WAT     H2 7518   0.875   2.976   4.664
 2426WAT      O 7519   6.894   3.356   3.775
 2426WAT     H1 7520   6.971   3.411   3.807
 2426WAT     H2 7521   6.891   3.270   3.826
 2427WAT      O 7522   9.838   4.442   1.405
 2427WAT     H1 7523   9.841   4.528   1.355
 2427WAT     H2 7524   9.827   4.460   1.503
 2428WAT      O 7525   5.157   5.593   5.035
 2428WAT     H1 7526   5.072   5.574   4.986
 2428WAT     H2 7527   5.235   5.561   4.981
 2429WAT      O 7528   2.951   4.796   2.490
 2429WAT     H1 7529   3.000   4.796   2.403
 2429WAT     H2 7530   3.018   4.799   2.565
 2430WAT      O 7531   4.235   8.120   8.730
 2430WAT     H1 7532   4.200   8.150   8.819
 2430WAT     H2 7533   4.200   8.181   8.659
 2431WAT      O 7534   3.566   4.058   8.472
 2431WAT     H1 7535   3.472   4.082   8.448
 2431WAT     H2 7536   3.573   4.045   8.571
 2432WAT      O 7537   0.386   5.432   3.457
 2432WAT     H1 7538   0.313   5.386   3.508
 2432WAT     H2 7539   0.470   5.433   3.512
 2433WAT      O 7540   1.372   3.312   8.057
 2433WAT     H1 7541   1.431   3.286   7.980
 2433WAT     H2 7542   1.311   3.236   8.080
 2434WAT      O 7543   7.480   7.978   1.455
 2434WAT     H1 7544   7.414   7.911   1.419
 2434WAT     H2 7545   7.461   8.068   1.415
 2435WAT      O 7546   0.547   9.229   4.452
 2435WAT     H1 7547   0.632   9.261   4.492
 2435WAT     H2 7548   0.487   9.307   4.432
 2436WAT      O 7549   5.547   4.663   5.927
 2436WAT     H1 7550   5.581   4.724   5.999
 2436WAT     H2 7551   5.494   4.590   5.968
 2437WAT      O 7552   8.792   6.122   9.593
 2437WAT     H1 7553   8.825   6.028   9.583
 2437WAT     H2 7554   8.701   6.130   9.553
 2438WAT      O 7555   9.712   1.518   4.917
 2438WAT     H1 7556   9.746   1.606   4.885
 2438WAT     H2 7557   9.696   1.458   4.838
 2439WAT      O 7558   6.772   0.711   9.686
 2439WAT     H1 7559   6.745   0.747   9.596
 2439WAT     H2 7560   6.718   0.629   9.706
 2440WAT      O 7561   5.503   9.691   2.704
 2440WAT     H1 7562   5.410   9.726   2.707
 2440WAT     H2 7563   5.502   9.598   2.667
 2441WAT      O 7564   7.494   4.652   8.730
 2441WAT     H1 7565   7.502   4.711   8.650
 2441WAT     H2 7566   7.524   4.559   8.706
 2442WAT      O 7567   5.569   5.531   6.617
 2442WAT     H1 7568   5.618   5.588   6.551
 2442WAT     H2 7569   5.497   5.585   6.660
 2443WAT      O 7570   3.814   0.021   6.150
 2443WAT     H1 7571   3.811   0.070   6.237
 2443WAT     H2 7572   3.742   0.055   6.090
 2444WAT      O 7573   9.099   2.557   2.957
 2444WAT     H1 7574   9.106   2.461   2.929
 2444WAT     H2 7575   9.049   2.609   2.888
 2445WAT      O 7576   0.870   0.188   1.869
 2445WAT     H1 7577   0.902   0.212   1.777
 2445WAT     H2 7578   0.821   0.101   1.866
 2446WAT      O 7579   9.381   9.614   4.098
 2446WAT     H1 7580   9.318   9.592   4.023
 2446WAT     H2 7581   9.329   9.628   4.182
 2447WAT      O 7582   1.775   2.033   6.456
 2447WAT     H1 7583   1.764   2.037   6.357
 2447WAT     H2 7584   1.797   2.124   6.491
 2448WAT      O 7585   2.732   8.444   0.770
 2448WAT     H1 7586   2.690   8.487   0.690
 2448WAT     H2 7587   2.828   8.471   0.774
 2449WAT      O 7588   8.632   1.205   0.835
 2449WAT     H1 7589   8.532   1.212   0.827
 2449WAT     H2 7590   8.673   1.295   0.820
 2450WAT      O 7591   7.057   2.660   5.696
 2450WAT     H1 7592   6.978   2.599   5.703
 2450WAT     H2 7593   7.068   2.688   5.600
 2451WAT      O 7594   4.793   0.579   3.649
 2451WAT     H1 7595   4.843   0.636   3.584
 2451WAT     H2 7596   4.833   0.487   3.650
 2452WAT      O 7597   0.586   5.161   0.981
 2452WAT     H1 7598   0.611   5.064   0.970
 2452WAT     H2 7599   0.496   5.177   0.940
 2453WAT      O 7600   4.313   1.294   3.087
 2453WAT     H1 7601   4.224   1.281   3.043
 2453WAT     H2 7602   4.303   1.351   3.168
 2454WAT      O 7603   0.791   5.090   8.723
 2454WAT     H1 7604   0.834   5.096   8.633
 2454WAT     H2 7605   0.850   5.134   8.791
 2455WAT      O 7606   7.337   1.416   5.228
 2455WAT     H1 7607   7.249   1.390   5.269
 2455WAT     H2 7608   7.341   1.515   5.219
 2456WAT      O 7609   0.599   9.377   6.152
 2456WAT     H1 7610   0.512   9.377   6.201
 2456WAT     H2 7611   0.590   9.324   6.068
 2457WAT      O 7612   5.620   0.822   6.161
 2457WAT     H1 7613   5.653   0.743   6.110
 2457WAT     H2 7614   5.642   0.811   6.258
 2458WAT      O 7615   9.026   1.596   5.936
 2458WAT     H1 7616   9.025   1.633   5.843
 2458WAT     H2 7617   8.936   1.606   5.977
 2459WAT      O 7618   1.797   9.704   0.093
 2459WAT     H1 7619   1.883   9.675   0.136
 2459WAT     H2 7620   1.722   9.645   0.125
 2460WAT      O 7621   4.365   5.272   6.648
 2460WAT     H1 7622   4.390   5.191   6.594
 2460WAT     H2 7623   4.446   5.325   6.668
 2461WAT      O 7624   3.672   4.956   7.897
 2461WAT     H1 7625   3.630   4.882   7.950
 2461WAT     H2 7626   3.749   4.993   7.949
 2462WAT      O 7627   4.363   7.897   7.855
 2462WAT     H1 7628   4.314   7.824   7.903
 2462WAT     H2 7629   4.302   7.939   7.788
 2463WAT      O 7630   1.335   8.181   5.541
 2463WAT     H1 7631   1.418   8.235   5.530
 2463WAT     H2 7632   1.301   8.189   5.635
 2464WAT      O 7633   7.408   7.420   3.234
 2464WAT     H1 7634   7.366   7.510   3.248
 2464WAT     H2 7635   7.361   7.352   3.290
 2465WAT      O 7636   7.559   3.176   9.206
 2465WAT     H1 7637   7.484   3.241   9.196
 2465WAT     H2 7638   7.541   3.095   9.149
 2466WAT      O 7639   5.693   5.137   3.741
 2466WAT     H1 7640   5.675   5.229   3.777
 2466WAT     H2 7641   5.623   5.113   3.675
 2467WAT      O 7642   4.496   8.369   9.237
 2467WAT     H1 7643   4.443   8.289   9.209
 2467WAT     H2 7644   4.585   8.339   9.272
 2468WAT      O 7645   0.953   9.521   0.646
 2468WAT     H1 7646   0.961   9.569   0.558
 2468WAT     H2 7647   1.043   9.488   0.674
 2469WAT      O 7648   5.118   9.626   5.667
 2469WAT     H1 7649   5.211   9.656   5.688
 2469WAT     H2 7650   5.084   9.569   5.742
 2470WAT      O 7651   6.008   3.162   4.706
 2470WAT     H1 7652   5.949   3.127   4.633
 2470WAT     H2 7653   6.101   3.128   4.693
 2471WAT      O 7654   4.876   8.888   9.324
 2471WAT     H1 7655   4.824   8.830   9.261
 2471WAT     H2 7656   4.938   8.946   9.272
 2472WAT      O 7657   9.598   5.072   8.945
 2472WAT     H1 7658   9.592   5.080   8.845
 2472WAT     H2 7659   9.521   5.119   8.987
 2473WAT      O 7660   5.599   5.809   5.523
 2473WAT     H1 7661   5.571   5.740   5.456
 2473WAT     H2 7662   5.670   5.771   5.582
 2474WAT      O 7663   1.013   2.645   8.685
 2474WAT     H1 7664   1.061   2.595   8.614
 2474WAT     H2 7665   1.027   2.599   8.773
 2475WAT      O 7666   0.914   8.996   6.903
 2475WAT     H1 7667   0.830   8.942   6.908
 2475WAT     H2 7668   0.946   8.997   6.808
 2476WAT      O 7669   4.675   8.080   3.343
 2476WAT     H1 7670   4.670   8.051   3.439
 2476WAT     H2 7671   4.666   8.180   3.338
 2477WAT      O 7672   1.810   8.308   2.014
 2477WAT     H1 7673   1.895   8.272   1.977
 2477WAT     H2 7674   1.801   8.281   2.110
 2478WAT      O 7675   3.242   6.705   2.140
 2478WAT     H1 7676   3.230   6.649   2.058
 2478WAT     H2 7677   3.194   6.792   2.128
 2479WAT      O 7678   7.844   7.176   0.193
 2479WAT     H1 7679   7.927   7.231   0.204
 2479WAT     H2 7680   7.764   7.235   0.206
 2480WAT      O 7681   6.245   4.507   0.754
 2480WAT     H1 7682   6.170   4.452   0.790
 2480WAT     H2 7683   6.330   4.479   0.798
 2481WAT      O 7684   3.212   3.285   1.068
 2481WAT     H1 7685   3.307   3.254   1.068
 2481WAT     H2 7686   3.208   3.378   1.106
 2482WAT      O 7687   9.672   9.843   8.932
 2482WAT     H1 7688   9.720   9.795   9.005
 2482WAT     H2 7689   9.738   9.886   8.871
 2483WAT      O 7690   0.214   6.110   6.305
 2483WAT     H1 7691   0.285   6.079   6.242
 2483WAT     H2 7692   0.236   6.080   6.398
 2484WAT      O 7693   9.083   5.466   8.743
 2484WAT     H1 7694   9.054   5.473   8.647
 2484WAT     H2 7695   9.032   5.532   8.798
 2485WAT      O 7696   0.880   6.894   1.519
 2485WAT     H1 7697   0.827   6.962   1.570
 2485WAT     H2 7698   0.833   6.873   1.433
 2486WAT      O 7699   7.081   2.203   9.126
 2486WAT     H1 7700   7.030   2.179   9.043
 2486WAT     H2 7701   7.152   2.270   9.103
 2487WAT      O 7702   2.028   2.777   1.278
 2487WAT     H1 7703   1.932   2.750   1.291
 2487WAT     H2 7704   2.039   2.873   1.302
 2488WAT      O 7705   8.430   2.890   2.592
 2488WAT     H1 7706   8.349   2.947   2.586
 2488WAT     H2 7707   8.429   2.822   2.518
 2489WAT      O 7708   2.936   8.443   7.989
 2489WAT     H1 7709   2.848   8.435   7.942
 2489WAT     H2 7710   3.010   8.432   7.923
 2490WAT      O 7711   7.994   0.867   9.600
 2490WAT     H1 7712   8.023   0.843   9.692
 2490WAT     H2 7713   8.029   0.798   9.536
 2491WAT      O 7714   3.596   3.661   2.632
 2491WAT     H1 7715   3.645   3.716   2.564
 2491WAT     H2 7716   3.607   3.702   2.723
 2492WAT      O 7717   0.471   1.435   4.759
 2492WAT     H1 7718   0.559   1.386   4.753
 2492WAT     H2 7719   0.441   1.439   4.854
 2493WAT      O 7720   0.260   1.377   5.328
 2493WAT     H1 7721   0.321   1.456   5.329
 2493WAT     H2 7722   0.260   1.333   5.417
 2494WAT      O 7723   9.384   6.349   3.742
 2494WAT     H1 7724   9.419   6.262   3.776
 2494WAT     H2 7725   9.335   6.335   3.656
 2495WAT      O 7726   6.959   4.356   3.094
 2495WAT     H1 7727   6.954   4.452   3.068
 2495WAT     H2 7728   6.889   4.336   3.163
 2496WAT      O 7729   5.495   4.790   5.702
 2496WAT     H1 7730   5.534   4.740   5.779
 2496WAT     H2 7731   5.424   4.852   5.736
 2497WAT      O 7732   0.043   0.226   8.285
 2497WAT     H1 7733   0.059   0.250   8.190
 2497WAT     H2 7734   0.070   0.302   8.344
 2498WAT      O 7735   9.772   7.988   2.639
 2498WAT     H1 7736   9.811   7.925   2.573
 2498WAT     H2 7737   9.754   8.076   2.595
 2499WAT      O 7738   6.839   4.758   9.199
 2499WAT     H1 7739   6.851   4.766   9.100
 2499WAT     H2 7740   6.927   4.775   9.245
 2500WAT      O 7741   2.825   2.726   2.799
 2500WAT     H1 7742   2.756   2.794   2.822
 2500WAT     H2 7743   2.780   2.639   2.776
 2501WAT      O 7744   4.260   7.740   5.250
 2501WAT     H1 7745   4.320   7.741   5.330
 2501WAT     H2 7746   4.258   7.830   5.208
 2502WAT      O 7747   9.717   8.486   7.917
 2502WAT     H1 7748   9.743   8.410   7.858
 2502WAT     H2 7749   9.685   8.563   7.860
 2503WAT      O 7750   4.136   1.778   8.631
 2503WAT     H1 7751   4.124   1.687   8.671
 2503WAT     H2 7752   4.047   1.822   8.621
 2504WAT      O 7753   3.496   4.154   0.011
 2504WAT     H1 7754   3.402   4.129   0.034
 2504WAT     H2 7755   3.555   4.075   0.025
 2505WAT      O 7756   9.326   8.372   2.167
 2505WAT     H1 7757   9.238   8.358   2.121
 2505WAT     H2 7758   9.400   8.339   2.109
 2506WAT      O 7759   3.706   2.062   0.362
 2506WAT     H1 7760   3.771   2.002   0.314
 2506WAT     H2 7761   3.729   2.064   0.459
 2507WAT      O 7762   0.780   1.436   6.131
 2507WAT     H1 7763   0.802   1.526   6.093
 2507WAT     H2 7764   0.709   1.392   6.076
 2508WAT      O 7765   0.705   5.211   3.467
 2508WAT     H1 7766   0.703   5.251   3.559
 2508WAT     H2 7767   0.800   5.203   3.437
 2509WAT      O 7768   4.619   5.391   6.701
 2509WAT     H1 7769   4.688   5.358   6.766
 2509WAT     H2 7770   4.612   5.490   6.708
 2510WAT      O 7771   5.409   1.168   2.769
 2510WAT     H1 7772   5.506   1.177   2.749
 2510WAT     H2 7773   5.356   1.213   2.697
 2511WAT      O 7774   1.902   0.451   3.084
 2511WAT     H1 7775   1.815   0.432   3.039
 2511WAT     H2 7776   1.916   0.384   3.158
 2512WAT      O 7777   7.202   4.608   4.234
 2512WAT     H1 7778   7.104   4.624   4.242
 2512WAT     H2 7779   7.243   4.606   4.326
 2513WAT      O 7780   4.333   2.714   1.924
 2513WAT     H1 7781   4.272   2.786   1.956
 2513WAT     H2 7782   4.323   2.702   1.826
 2514WAT      O 7783   4.100   9.067   2.975
 2514WAT     H1 7784   4.162   9.145   2.964
 2514WAT     H2 7785   4.019   9.080   2.919
 2515WAT      O 7786   2.332   8.849   3.366
 2515WAT     H1 7787   2.332   8.818   3.271
 2515WAT     H2 7788   2.280   8.934   3.373
 2516WAT      O 7789   1.290   7.538   0.559
 2516WAT     H1 7790   1.249   7.499   0.476
 2516WAT     H2 7791   1.253   7.492   0.639
 2517WAT      O 7792   6.766   5.255   3.274
 2517WAT     H1 7793   6.769   5.304   3.187
 2517WAT     H2 7794   6.845   5.283   3.330
 2518WAT      O 7795   8.264   7.503   0.913
 2518WAT     H1 7796   8.203   7.492   0.834
 2518WAT     H2 7797   8.213   7.488   0.997
 2519WAT      O 7798   1.357   5.992   7.038
 2519WAT     H1 7799   1.370   6.014   6.941
 2519WAT     H2 7800   1.446   5.971   7.079
 2520WAT      O 7801   0.242   4.911   3.774
 2520WAT     H1 7802   0.226   4.936   3.679
 2520WAT     H2 7803   0.164   4.941   3.830
 2521WAT      O 7804   2.139   2.332   9.673
 2521WAT     H1 7805   2.238   2.334   9.655
 2521WAT     H2 7806   2.123   2.326   9.772
 2522WAT      O 7807   8.137   3.833   0.090
 2522WAT     H1 7808   8.199   3.907   0.062
 2522WAT     H2 7809   8.084   3.863   0.170
 2523WAT      O 7810   4.344   1.146   5.706
 2523WAT     H1 7811   4.318   1.117   5.614
 2523WAT     H2 7812   4.443   1.160   5.709
 2524WAT      O 7813   4.162   3.168   4.319
 2524WAT     H1 7814   4.239   3.198   4.375
 2524WAT     H2 7815   4.176   3.199   4.225
 2525WAT      O 7816   0.613   9.120   4.776
 2525WAT     H1 7817   0.669   9.138   4.857
 2525WAT     H2 7818   0.652   9.169   4.698
 2526WAT      O 7819   3.681   1.093   0.116
 2526WAT     H1 7820   3.613   1.087   0.188
 2526WAT     H2 7821   3.753   1.157   0.143
 2527WAT      O 7822   0.364   4.335   3.178
 2527WAT     H1 7823   0.407   4.320   3.089
 2527WAT     H2 7824   0.366   4.250   3.231
 2528WAT      O 7825   4.824   5.926   2.053
 2528WAT     H1 7826   4.881   6.002   2.021
 2528WAT     H2 7827   4.731   5.936   2.016
 2529WAT      O 7828   6.026   3.590   4.852
 2529WAT     H1 7829   5.948   3.556   4.904
 2529WAT     H2 7830   6.030   3.690   4.858
 2530WAT      O 7831   5.975   8.206   5.297
 2530WAT     H1 7832   5.951   8.142   5.224
 2530WAT     H2 7833   5.897   8.217   5.358
 2531WAT      O 7834   3.616   0.389   0.549
 2531WAT     H1 7835   3.715   0.402   0.543
 2531WAT     H2 7836   3.591   0.367   0.643
 2532WAT      O 7837   1.734   5.168   5.543
 2532WAT     H1 7838   1.658   5.201   5.487
 2532WAT     H2 7839   1.728   5.068   5.550
 2533WAT      O 7840   5.045   9.069   9.193
 2533WAT     H1 7841   5.123   9.016   9.158
 2533WAT     H2 7842   5.005   9.121   9.118
 2534WAT      O 7843   2.887   9.356   6.235
 2534WAT     H1 7844   2.876   9.443   6.188
 2534WAT     H2 7845   2.970   9.311   6.202
 2535WAT      O 7846   4.778   9.056   1.002
 2535WAT     H1 7847   4.766   8.981   1.067
 2535WAT     H2 7848   4.875   9.074   0.989
 2536WAT      O 7849   0.489   6.116   0.693
 2536WAT     H1 7850   0.488   6.031   0.745
 2536WAT     H2 7851   0.432   6.184   0.740
 2537WAT      O 7852   2.802   8.818   4.547
 2537WAT     H1 7853   2.886   8.871   4.548
 2537WAT     H2 7854   2.824   8.720   4.541
 2538WAT      O 7855   9.704   0.675   3.127
 2538WAT     H1 7856   9.669   0.665   3.220
 2538WAT     H2 7857   9.667   0.603   3.069
 2539WAT      O 7858   1.212   5.428   8.211
 2539WAT     H1 7859   1.199   5.438   8.113
 2539WAT     H2 7860   1.235   5.517   8.251
 2540WAT      O 7861   2.237   7.148   7.095
 2540WAT     H1 7862   2.311   7.138   7.161
 2540WAT     H2 7863   2.218   7.246   7.081
 2541WAT      O 7864   2.000   3.291   3.860
 2541WAT     H1 7865   2.019   3.197   3.833
 2541WAT     H2 7866   2.077   3.327   3.914
 2542WAT      O 7867   1.719   8.645   2.282
 2542WAT     H1 7868   1.662   8.576   2.238
 2542WAT     H2 7869   1.794   8.669   2.221
 2543WAT      O 7870   0.297   8.999   9.566
 2543WAT     H1 7871   0.300   8.964   9.659
 2543WAT     H2 7872   0.372   9.063   9.552
 2544WAT      O 7873   0.108   4.414   7.636
 2544WAT     H1 7874   0.195   4.394   7.682
 2544WAT     H2 7875   0.035   4.361   7.680
 2545WAT      O 7876   3.649   6.093   2.086
 2545WAT     H1 7877   3.593   6.174   2.068
 2545WAT     H2 7878   3.591   6.012   2.089
 2546WAT      O 7879   6.617   1.844   1.971
 2546WAT     H1 7880   6.664   1.797   2.046
 2546WAT     H2 7881   6.595   1.938   1.999
 2547WAT      O 7882   2.161   9.243   3.344
 2547WAT     H1 7883   2.187   9.277   3.253
 2547WAT     H2 7884   2.244   9.217   3.394
 2548WAT      O 7885   6.161   0.165   5.774
 2548WAT     H1 7886   6.215   0.246   5.795
 2548WAT     H2 7887   6.089   0.154   5.843
 2549WAT      O 7888   8.218   8.308   4.680
 2549WAT     H1 7889   8.298   8.360   4.709
 2549WAT     H2 7890   8.234   8.268   4.590
 2550WAT      O 7891   0.564   1.389   5.052
 2550WAT     H1 7892   0.580   1.379   5.150
 2550WAT     H2 7893   0.491   1.456   5.037
 2551WAT      O 7894   7.782   9.476   1.147
 2551WAT     H1 7895   7.741   9.551   1.095
 2551WAT     H2 7896   7.711   9.410   1.172
 2552WAT      O 7897   9.424   3.747   2.475
 2552WAT     H1 7898   9.472   3.708   2.397
 2552WAT     H2 7899   9.482   3.740   2.556
 2553WAT      O 7900   9.585   8.650   3.115
 2553WAT     H1 7901   9.620   8.625   3.206
 2553WAT     H2 7902   9.659   8.689   3.061
 2554WAT      O 7903   9.732   3.553   0.139
 2554WAT     H1 7904   9.664   3.626   0.150
 2554WAT     H2 7905   9.741   3.531   0.042
 2555WAT      O 7906   0.918   8.924   8.003
 2555WAT     H1 7907   0.976   8.903   7.924
 2555WAT     H2 7908   0.971   8.978   8.069
 2556WAT      O 7909   7.557   6.746   8.293
 2556WAT     H1 7910   7.540   6.687   8.372
 2556WAT     H2 7911   7.601   6.831   8.324
 2557WAT      O 7912   0.323   0.367   8.058
 2557WAT     H1 7913   0.333   0.270   8.034
 2557WAT     H2 7914   0.391   0.420   8.008
 2558WAT      O 7915   6.914   6.100   8.410
 2558WAT     H1 7916   6.871   6.072   8.496
 2558WAT     H2 7917   6.853   6.164   8.362
 2559WAT      O 7918   9.519   7.839   4.055
 2559WAT     H1 7919   9.519   7.761   4.117
 2559WAT     H2 7920   9.434   7.890   4.065
 2560WAT      O 7921   2.646   6.298   6.618
 2560WAT     H1 7922   2.612   6.353   6.542
 2560WAT     H2 7923   2.745   6.310   6.627
 2561WAT      O 7924   9.739   8.477   6.725
 2561WAT     H1 7925   9.828   8.491   6.768
 2561WAT     H2 7926   9.734   8.383   6.691
 2562WAT      O 7927   6.488   2.759   2.509
 2562WAT     H1 7928   6.434   2.680   2.479
 2562WAT     H2 7929   6.507   2.751   2.607
 2563WAT      O 7930   9.204   3.700   8.013
 2563WAT     H1 7931   9.258   3.644   8.075
 2563WAT     H2 7932   9.162   3.775   8.065
 2564WAT      O 7933   6.570   6.057   3.489
 2564WAT     H1 7934   6.543   5.960   3.485
 2564WAT     H2 7935   6.669   6.064   3.499
 2565WAT      O 7936   2.558   7.002   8.806
 2565WAT     H1 7937   2.602   7.071   8.864
 2565WAT     H2 7938   2.488   7.047   8.750
 2566WAT      O 7939   4.935   7.086   9.559
 2566WAT     H1 7940   4.938   7.182   9.584
 2566WAT     H2 7941   5.027   7.055   9.532
 2567WAT      O 7942   7.218   1.693   9.619
 2567WAT     H1 7943   7.133   1.707   9.670
 2567WAT     H2 7944   7.296   1.715   9.676
 2568WAT      O 7945   2.099   5.061   7.604
 2568WAT     H1 7946   2.100   5.088   7.700
 2568WAT     H2 7947   2.190   5.030   7.576
 2569WAT      O 7948   5.594   4.371   5.426
 2569WAT     H1 7949   5.508   4.321   5.413
 2569WAT     H2 7950   5.580   4.446   5.490
 2570WAT      O 7951   7.939   8.997   7.837
 2570WAT     H1 7952   8.011   8.993   7.768
 2570WAT     H2 7953   7.864   9.054   7.804
 2571WAT      O 7954   2.814   5.708   3.075
 2571WAT     H1 7955   2.891   5.643   3.080
 2571WAT     H2 7956   2.774   5.720   3.165
 2572WAT      O 7957   7.908   5.902   0.931
 2572WAT     H1 7958   7.823   5.857   0.903
 2572WAT     H2 7959   7.986   5.850   0.896
 2573WAT      O 7960   3.290   3.211   3.595
 2573WAT     H1 7961   3.285   3.112   3.604
 2573WAT     H2 7962   3.386   3.240   3.594
 2574WAT      O 7963   9.394   9.505   6.881
 2574WAT     H1 7964   9.344   9.427   6.921
 2574WAT     H2 7965   9.356   9.590   6.916
 2575WAT      O 7966   4.060   5.906   1.615
 2575WAT     H1 7967   3.974   5.881   1.571
 2575WAT     H2 7968   4.134   5.849   1.580
 2576WAT      O 7969   8.338   3.365   2.054
 2576WAT     H1 7970   8.423   3.356   2.002
 2576WAT     H2 7971   8.330   3.457   2.090
 2577WAT      O 7972   6.671   2.378   5.821
 2577WAT     H1 7973   6.665   2.389   5.722
 2577WAT     H2 7974   6.613   2.302   5.849
 2578WAT      O 7975   8.939   6.959   0.932
 2578WAT     H1 7976   8.925   6.863   0.905
 2578WAT     H2 7977   8.966   7.012   0.851
 2579WAT      O 7978   6.750   9.491   9.116
 2579WAT     H1 7979   6.677   9.454   9.172
 2579WAT     H2 7980   6.711   9.543   9.040
 2580WAT      O 7981   2.464   5.417   0.917
 2580WAT     H1 7982   2.547   5.452   0.873
 2580WAT     H2 7983   2.451   5.321   0.891
 2581WAT      O 7984   3.189   0.798   7.822
 2581WAT     H1 7985   3.148   0.712   7.793
 2581WAT     H2 7986   3.247   0.834   7.749
 2582WAT      O 7987   4.041   0.621   1.206
 2582WAT     H1 7988   4.106   0.564   1.256
 2582WAT     H2 7989   3.965   0.645   1.266
 2583WAT      O 7990   0.813   5.589   9.062
 2583WAT     H1 7991   0.908   5.583   9.093
 2583WAT     H2 7992   0.811   5.619   8.967
 2584WAT      O 7993   4.506   6.759   0.719
 2584WAT     H1 7994   4.545   6.666   0.720
 2584WAT     H2 7995   4.503   6.795   0.812
 2585WAT      O 7996   2.802   2.619   4.114
 2585WAT     H1 7997   2.846   2.646   4.029
 2585WAT     H2 7998   2.724   2.559   4.095
 2586WAT      O 7999   5.482   3.187   2.725
 2586WAT     H1 8000   5.433   3.144   2.801
 2586WAT     H2 8001   5.427   3.261   2.687
 2587WAT      O 8002   2.751   4.612   8.522
 2587WAT     H1 8003   2.815   4.619   8.598
 2587WAT     H2 8004   2.722   4.516   8.512
 2588WAT      O 8005   6.470   3.903   0.186
 2588WAT     H1 8006   6.412   3.860   0.254
 2588WAT     H2 8007   6.499   3.993   0.218
 2589WAT      O 8008   3.928   5.962   9.103
 2589WAT     H1 8009   3.903   6.043   9.050
 2589WAT     H2 8010   3.953   5.990   9.196
 2590WAT      O 8011   1.390   1.395   7.714
 2590WAT     H1 8012   1.397   1.302   7.751
 2590WAT     H2 8013   1.368   1.390   7.617
 2591WAT      O 8014   0.596   5.272   5.119
 2591WAT     H1 8015   0.599   5.173   5.108
 2591WAT     H2 8016   0.532   5.311   5.054
 2592WAT      O 8017   9.323   5.364   8.641
 2592WAT     H1 8018   9.395   5.428   8.667
 2592WAT     H2 8019   9.242   5.379   8.697
 2593WAT      O 8020   6.852   1.152   6.724
 2593WAT     H1 8021   6.770   1.207   6.733
 2593WAT     H2 8022   6.850   1.103   6.636
 2594WAT      O 8023   7.075   8.577   2.616
 2594WAT     H1 8024   7.060   8.640   2.540
 2594WAT     H2 8025   7.008   8.594   2.688
 2595WAT      O 8026   9.054   6.166   8.452
 2595WAT     H1 8027   9.087   6.143   8.360
 2595WAT     H2 8028   8.959   6.197   8.447
 2596WAT      O 8029   0.989   6.201   1.703
 2596WAT     H1 8030   1.026   6.294   1.697
 2596WAT     H2 8031   1.022   6.148   1.625
 2597WAT      O 8032   0.013   8.599   0.714
 2597WAT     H1 8033   0.108   8.586   0.686
 2597WAT     H2 8034  -0.043   8.526   0.674
 2598WAT      O 8035   2.969   3.232   9.037
 2598WAT     H1 8036   2.992   3.213   9.133
 2598WAT     H2 8037   2.971   3.147   8.985
 2599WAT      O 8038   2.895   1.337   0.462
 2599WAT     H1 8039   2.969   1.270   0.455
 2599WAT     H2 8040   2.863   1.341   0.557
 2600WAT      O 8041   6.827   4.934   2.307
 2600WAT     H1 8042   6.869   4.853   2.266
 2600WAT     H2 8043   6.897   4.988   2.353
 2601WAT      O 8044   1.324   4.806   6.860
 2601WAT     H1 8045   1.257   4.780   6.790
 2601WAT     H2 8046   1.279   4.857   6.933
 2602WAT      O 8047   5.035   2.224   2.561
 2602WAT     H1 8048   5.071   2.168   2.636
 2602WAT     H2 8049   5.044   2.321   2.585
 2603WAT      O 8050   7.185   1.963   1.863
 2603WAT     H1 8051   7.270   1.913   1.879
 2603WAT     H2 8052   7.192   2.055   1.903
 2604WAT      O 8053   0.954   1.505   6.865
 2604WAT     H1 8054   1.013   1.425   6.872
 2604WAT     H2 8055   0.864   1.484   6.905
 2605WAT      O 8056   1.222   0.937   9.837
 2605WAT     H1 8057   1.205   0.863   9.901
 2605WAT     H2 8058   1.313   0.975   9.854
 2606WAT      O 8059   9.287   6.635   6.542
 2606WAT     H1 8060   9.362   6.586   6.586
 2606WAT     H2 8061   9.223   6.669   6.611
 2607WAT      O 8062   3.393   2.405   1.718
 2607WAT     H1 8063   3.419   2.475   1.785
 2607WAT     H2 8064   3.327   2.342   1.759
 2608WAT      O 8065   2.543   2.648   8.614
 2608WAT     H1 8066   2.607   2.655   8.537
 2608WAT     H2 8067   2.500   2.558   8.614
 2609WAT      O 8068   2.525   9.170   6.471
 2609WAT     H1 8069   2.596   9.101   6.456
 2609WAT     H2 8070   2.569   9.260   6.482
 2610WAT      O 8071   8.766   0.372   5.347
 2610WAT     H1 8072   8.798   0.465   5.333
 2610WAT     H2 8073   8.842   0.313   5.374
 2611WAT      O 8074   0.516   0.432   8.689
 2611WAT     H1 8075   0.576   0.373   8.635
 2611WAT     H2 8076   0.565   0.464   8.770
 2612WAT      O 8077   1.306   7.383   0.231
 2612WAT     H1 8078   1.327   7.416   0.140
 2612WAT     H2 8079   1.210   7.354   0.235
 2613WAT      O 8080   2.441   6.888   3.111
 2613WAT     H1 8081   2.387   6.908   3.193
 2613WAT     H2 8082   2.524   6.839   3.138
 2614WAT      O 8083   2.025   7.785   1.655
 2614WAT     H1 8084   2.122   7.805   1.661
 2614WAT     H2 8085   1.982   7.804   1.744
 2615WAT      O 8086   2.213   6.266   3.117
 2615WAT     H1 8087   2.264   6.185   3.147
 2615WAT     H2 8088   2.204   6.330   3.194
 2616WAT      O 8089   6.450   7.415   9.816
 2616WAT     H1 8090   6.391   7.489   9.785
 2616WAT     H2 8091   6.522   7.451   9.875
 2617WAT      O 8092   0.519   6.270   7.698
 2617WAT     H1 8093   0.468   6.319   7.769
 2617WAT     H2 8094   0.597   6.326   7.670
 2618WAT      O 8095   7.763   0.940   5.875
 2618WAT     H1 8096   7.703   0.887   5.936
 2618WAT     H2 8097   7.809   1.012   5.928
 2619WAT      O 8098   2.128   9.588   1.098
 2619WAT     H1 8099   2.055   9.525   1.072
 2619WAT     H2 8100   2.111   9.622   1.190
 2620WAT      O 8101   2.362   6.413   8.436
 2620WAT     H1 8102   2.404   6.390   8.348
 2620WAT     H2 8103   2.286   6.476   8.421
 2621WAT      O 8104   0.966   3.461   4.433
 2621WAT     H1 8105   0.972   3.467   4.532
 2621WAT     H2 8106   1.056   3.445   4.394
 2622WAT      O 8107   8.932   3.052   4.090
 2622WAT     H1 8108   8.902   3.138   4.132
 2622WAT     H2 8109   8.995   3.072   4.015
 2623WAT      O 8110   1.189   4.051   0.694
 2623WAT     H1 8111   1.114   4.106   0.730
 2623WAT     H2 8112   1.276   4.088   0.725
 2624WAT      O 8113   0.771   5.954   7.102
 2624WAT     H1 8114   0.801   5.886   7.168
 2624WAT     H2 8115   0.779   5.918   7.010
 2625WAT      O 8116   8.772   1.500   0.373
 2625WAT     H1 8117   8.686   1.505   0.423
 2625WAT     H2 8118   8.828   1.426   0.411
 2626WAT      O 8119   7.146   9.811   9.508
 2626WAT     H1 8120   7.245   9.795   9.507
 2626WAT     H2 8121   7.110   9.791   9.599
 2627WAT      O 8122   0.292   5.621   0.250
 2627WAT     H1 8123   0.363   5.606   0.318
 2627WAT     H2 8124   0.216   5.558   0.267
 2628WAT      O 8125   3.305   6.288   1.234
 2628WAT     H1 8126   3.310   6.209   1.295
 2628WAT     H2 8127   3.391   6.339   1.238
 2629WAT      O 8128   3.093   6.204   9.634
 2629WAT     H1 8129   3.120   6.237   9.725
 2629WAT     H2 8130   3.058   6.111   9.642
 2630WAT      O 8131   2.995   5.034   0.973
 2630WAT     H1 8132   2.935   5.106   0.939
 2630WAT     H2 8133   2.944   4.976   1.036
 2631WAT      O 8134   3.261   8.253   1.479
 2631WAT     H1 8135   3.347   8.211   1.507
 2631WAT     H2 8136   3.210   8.189   1.421
 2632WAT      O 8137   3.028   7.402   8.357
 2632WAT     H1 8138   3.088   7.402   8.437
 2632WAT     H2 8139   3.080   7.422   8.275
 2633WAT      O 8140   1.757   2.534   7.268
 2633WAT     H1 8141   1.759   2.481   7.183
 2633WAT     H2 8142   1.731   2.475   7.344
 2634WAT      O 8143   1.640   8.133   9.623
 2634WAT     H1 8144   1.602   8.179   9.703
 2634WAT     H2 8145   1.740   8.142   9.623
 2635WAT      O 8146   1.066   2.917   0.303
 2635WAT     H1 8147   1.131   2.992   0.312
 2635WAT     H2 8148   1.114   2.830   0.317
 2636WAT      O 8149   0.507   8.336   9.003
 2636WAT     H1 8150   0.469   8.325   9.095
 2636WAT     H2 8151   0.502   8.432   8.976
 2637WAT      O 8152   8.414   2.525   5.562
 2637WAT     H1 8153   8.453   2.447   5.513
 2637WAT     H2 8154   8.457   2.609   5.530
 2638WAT      O 8155   6.912   8.334   0.328
 2638WAT     H1 8156   6.873   8.368   0.243
 2638WAT     H2 8157   6.842   8.331   0.399
 2639WAT      O 8158   9.728   3.873   5.613
 2639WAT     H1 8159   9.757   3.778   5.627
 2639WAT     H2 8160   9.750   3.927   5.695
 2640WAT      O 8161   9.801   4.882   8.573
 2640WAT     H1 8162   9.706   4.865   8.546
 2640WAT     H2 8163   9.814   4.980   8.590
 2641WAT      O 8164   2.158   6.274   7.400
 2641WAT     H1 8165   2.145   6.184   7.442
 2641WAT     H2 8166   2.177   6.342   7.470
 2642WAT      O 8167   4.115   5.669   6.514
 2642WAT     H1 8168   4.038   5.606   6.503
 2642WAT     H2 8169   4.166   5.644   6.597
 2643WAT      O 8170   7.535   7.187   1.477
 2643WAT     H1 8171   7.613   7.195   1.414
 2643WAT     H2 8172   7.545   7.104   1.532
 2644WAT      O 8173   4.579   3.486   6.307
 2644WAT     H1 8174   4.535   3.414   6.361
 2644WAT     H2 8175   4.585   3.570   6.361
 2645WAT      O 8176   2.380   4.909   6.363
 2645WAT     H1 8177   2.403   4.995   6.407
 2645WAT     H2 8178   2.281   4.896   6.366
 2646WAT      O 8179   9.341   2.184   7.683
 2646WAT     H1 8180   9.392   2.264   7.652
 2646WAT     H2 8181   9.404   2.110   7.705
 2647WAT      O 8182   2.719   7.873   9.145
 2647WAT     H1 8183   2.781   7.896   9.070
 2647WAT     H2 8184   2.714   7.774   9.155
 2648WAT      O 8185   0.010   8.896   7.854
 2648WAT     H1 8186   0.083   8.827   7.854
 2648WAT     H2 8187   0.028   8.963   7.781
 2649WAT      O 8188   3.550   3.082   9.251
 2649WAT     H1 8189   3.534   3.163   9.195
 2649WAT     H2 8190   3.477   3.016   9.235
 2650WAT      O 8191   5.154   1.549   4.233
 2650WAT     H1 8192   5.129   1.561   4.137
 2650WAT     H2 8193   5.129   1.631   4.284
 2651WAT      O 8194   8.909   1.964   6.144
 2651WAT     H1 8195   8.932   1.877   6.186
 2651WAT     H2 8196   8.844   1.949   6.069
 2652WAT      O 8197   3.865   8.244   0.517
 2652WAT     H1 8198   3.957   8.219   0.548
 2652WAT     H2 8199   3.840   8.189   0.437
 2653WAT      O 8200   8.852   6.618   7.361
 2653WAT     H1 8201   8.938   6.567   7.352
 2653WAT     H2 8202   8.784   6.580   7.299
 2654WAT      O 8203   6.212   1.975   6.388
 2654WAT     H1 8204   6.242   2.069   6.367
 2654WAT     H2 8205   6.212   1.962   6.487
 2655WAT      O 8206   2.626   4.126   9.246
 2655WAT     H1 8207   2.606   4.207   9.191
 2655WAT     H2 8208   2.719   4.132   9.282
 2656WAT      O 8209   2.557   6.004   4.669
 2656WAT     H1 8210   2.500   5.968   4.595
 2656WAT     H2 8211   2.631   5.939   4.688
 2657WAT      O 8212   9.286   8.283   0.047
 2657WAT     H1 8213   9.364   8.285   0.109
 2657WAT     H2 8214   9.201   8.279   0.100
 2658WAT      O 8215   6.711   4.024   3.114
 2658WAT     H1 8216   6.699   3.928   3.141
 2658WAT     H2 8217   6.623   4.063   3.087
 2659WAT      O 8218   4.305   5.732   3.179
 2659WAT     H1 8219   4.266   5.824   3.173
 2659WAT     H2 8220   4.275   5.689   3.264
 2660WAT      O 8221   6.382   4.549   9.337
 2660WAT     H1 8222   6.436   4.532   9.254
 2660WAT     H2 8223   6.436   4.523   9.417
 2661WAT      O 8224   6.558   0.737   9.101
 2661WAT     H1 8225   6.637   0.749   9.041
 2661WAT     H2 8226   6.474   0.757   9.051
 2662WAT      O 8227   6.603   7.660   7.453
 2662WAT     H1 8228   6.565   7.736   7.507
 2662WAT     H2 8229   6.611   7.688   7.357
 2663WAT      O 8230   8.492   8.528   1.064
 2663WAT     H1 8231   8.585   8.497   1.080
 2663WAT     H2 8232   8.428   8.478   1.122
 2664WAT      O 8233   7.737   4.532   5.985
 2664WAT     H1 8234   7.729   4.506   5.889
 2664WAT     H2 8235   7.717   4.454   6.043
 2665WAT      O 8236   7.559   6.783   7.140
 2665WAT     H1 8237   7.592   6.835   7.219
 2665WAT     H2 8238   7.519   6.697   7.172
 2666WAT      O 8239   7.437   4.758   2.519
 2666WAT     H1 8240   7.465   4.833   2.459
 2666WAT     H2 8241   7.472   4.775   2.612
 2667WAT      O 8242   2.088   3.002   6.720
 2667WAT     H1 8243   2.053   2.972   6.809
 2667WAT     H2 8244   2.095   2.923   6.659
 2668WAT      O 8245   1.938   1.073   3.151
 2668WAT     H1 8246   1.876   1.040   3.079
 2668WAT     H2 8247   1.906   1.042   3.240
 2669WAT      O 8248   6.782   6.732   3.816
 2669WAT     H1 8249   6.754   6.751   3.722
 2669WAT     H2 8250   6.847   6.802   3.846
 2670WAT      O 8251   3.323   9.356   3.594
 2670WAT     H1 8252   3.281   9.285   3.651
 2670WAT     H2 8253   3.360   9.314   3.511
 2671WAT      O 8254   0.400   0.346   7.496
 2671WAT     H1 8255   0.343   0.292   7.434
 2671WAT     H2 8256   0.480   0.293   7.523
 2672WAT      O 8257   6.880   8.928   9.117
 2672WAT     H1 8258   6.922   8.960   9.202
 2672WAT     H2 8259   6.917   8.980   9.040
 2673WAT      O 8260   8.218   7.202   3.961
 2673WAT     H1 8261   8.263   7.210   3.872
 2673WAT     H2 8262   8.130   7.249   3.958
 2674WAT      O 8263   6.130   8.652   7.904
 2674WAT     H1 8264   6.193   8.597   7.849
 2674WAT     H2 8265   6.148   8.635   8.001
 2675WAT      O 8266   5.388   7.649   8.866
 2675WAT     H1 8267   5.471   7.615   8.822
 2675WAT     H2 8268   5.377   7.747   8.846
 2676WAT      O 8269   4.126   0.086   0.877
 2676WAT     H1 8270   4.172   0.148   0.814
 2676WAT     H2 8271   4.194   0.034   0.928
 2677WAT      O 8272   9.192   7.670   7.814
 2677WAT     H1 8273   9.275   7.718   7.841
 2677WAT     H2 8274   9.200   7.640   7.719
 2678WAT      O 8275   1.215   4.746   7.214
 2678WAT     H1 8276   1.194   4.826   7.157
 2678WAT     H2 8277   1.201   4.662   7.160
 2679WAT      O 8278   2.633   6.075   7.708
 2679WAT     H1 8279   2.711   6.101   7.765
 2679WAT     H2 8280   2.553   6.062   7.765
 2680WAT      O 8281   0.048   3.809   5.106
 2680WAT     H1 8282   0.082   3.884   5.049
 2680WAT     H2 8283  -0.017   3.754   5.053
 2681WAT      O 8284   3.694   0.129   2.813
 2681WAT     H1 8285   3.603   0.089   2.818
 2681WAT     H2 8286   3.761   0.065   2.850
 2682WAT      O 8287   9.012   7.265   9.267
 2682WAT     H1 8288   8.933   7.253   9.325
 2682WAT     H2 8289   9.092   7.222   9.308
 2683WAT      O 8290   9.160   4.840   5.431
 2683WAT     H1 8291   9.243   4.863   5.482
 2683WAT     H2 8292   9.180   4.843   5.333
 2684WAT      O 8293   7.818   5.554   0.083
 2684WAT     H1 8294   7.840   5.514  -0.006
 2684WAT     H2 8295   7.842   5.651   0.082
 2685WAT      O 8296   1.000   1.561   7.512
 2685WAT     H1 8297   1.034   1.653   7.495
 2685WAT     H2 8298   0.916   1.565   7.567
 2686WAT      O 8299   4.168   8.149   1.372
 2686WAT     H1 8300   4.187   8.144   1.470
 2686WAT     H2 8301   4.119   8.067   1.343
 2687WAT      O 8302   9.886   5.736   8.961
 2687WAT     H1 8303   9.884   5.696   9.053
 2687WAT     H2 8304   9.862   5.832   8.966
 2688WAT      O 8305   3.917   0.611   6.687
 2688WAT     H1 8306   3.961   0.699   6.669
 2688WAT     H2 8307   3.979   0.553   6.740
 2689WAT      O 8308   9.520   8.668   5.943
 2689WAT     H1 8309   9.540   8.765   5.954
 2689WAT     H2 8310   9.472   8.634   6.024
 2690WAT      O 8311   8.511   5.119   2.422
 2690WAT     H1 8312   8.553   5.153   2.505
 2690WAT     H2 8313   8.541   5.175   2.344
 2691WAT      O 8314   0.965   4.115   7.167
 2691WAT     H1 8315   0.882   4.067   7.196
 2691WAT     H2 8316   0.947   4.213   7.165
 2692WAT      O 8317   4.818   8.311   4.657
 2692WAT     H1 8318   4.801   8.271   4.747
 2692WAT     H2 8319   4.796   8.409   4.659
 2693WAT      O 8320   2.414   9.567   8.332
 2693WAT     H1 8321   2.476   9.576   8.254
 2693WAT     H2 8322   2.464   9.586   8.416
 2694WAT      O 8323   1.106   2.201   6.366
 2694WAT     H1 8324   1.102   2.248   6.278
 2694WAT     H2 8325   1.076   2.263   6.439
 2695WAT      O 8326   6.919   9.032   4.240
 2695WAT     H1 8327   6.920   9.007   4.337
 2695WAT     H2 8328   6.894   8.952   4.185
 2696WAT      O 8329   8.474   3.714   9.707
 2696WAT     H1 8330   8.441   3.684   9.796
 2696WAT     H2 8331   8.495   3.811   9.710
 2697WAT      O 8332   3.359   1.124   3.993
 2697WAT     H1 8333   3.333   1.214   3.958
 2697WAT     H2 8334   3.457   1.108   3.976
 2698WAT      O 8335   7.552   8.799   0.397
 2698WAT     H1 8336   7.457   8.802   0.365
 2698WAT     H2 8337   7.577   8.704   0.419
 2699WAT      O 8338   9.219   5.262   4.534
 2699WAT     H1 8339   9.259   5.298   4.450
 2699WAT     H2 8340   9.119   5.274   4.532
 2700WAT      O 8341   0.714   4.136   5.695
 2700WAT     H1 8342   0.734   4.194   5.774
 2700WAT     H2 8343   0.615   4.138   5.677
 2701WAT      O 8344   5.063   5.755   9.398
 2701WAT     H1 8345   5.137   5.821   9.408
 2701WAT     H2 8346   5.098   5.670   9.358
 2702WAT      O 8347   5.775   7.588   1.285
 2702WAT     H1 8348   5.821   7.643   1.355
 2702WAT     H2 8349   5.838   7.520   1.249
 2703WAT      O 8350   5.325   6.080   8.648
 2703WAT     H1 8351   5.366   6.171   8.637
 2703WAT     H2 8352   5.235   6.089   8.688
 2704WAT      O 8353   3.360   2.998   4.000
 2704WAT     H1 8354   3.266   2.991   3.966
 2704WAT     H2 8355   3.399   3.085   3.970
 2705WAT      O 8356   3.850   8.979   1.684
 2705WAT     H1 8357   3.950   8.976   1.696
 2705WAT     H2 8358   3.808   8.911   1.743
 2706WAT      O 8359   7.524   0.738   2.897
 2706WAT     H1 8360   7.555   0.805   2.965
 2706WAT     H2 8361   7.438   0.697   2.928
 2707WAT      O 8362   4.361   3.200   1.582
 2707WAT     H1 8363   4.417   3.281   1.604
 2707WAT     H2 8364   4.372   3.178   1.486
 2708WAT      O 8365   8.793   3.039   7.905
 2708WAT     H1 8366   8.784   2.984   7.822
 2708WAT     H2 8367   8.863   3.110   7.891
 2709WAT      O 8368   8.922   4.410   7.051
 2709WAT     H1 8369   8.852   4.388   7.119
 2709WAT     H2 8370   9.012   4.404   7.093
 2710WAT      O 8371   9.341   0.352   6.885
 2710WAT     H1 8372   9.275   0.331   6.956
 2710WAT     H2 8373   9.334   0.284   6.812
 2711WAT      O 8374   5.838   9.693   1.587
 2711WAT     H1 8375   5.751   9.681   1.635
 2711WAT     H2 8376   5.877   9.782   1.611
 2712WAT      O 8377   6.993   7.936   8.472
 2712WAT     H1 8378   6.998   8.028   8.433
 2712WAT     H2 8379   7.047   7.931   8.556
 2713WAT      O 8380   1.861   6.761   6.264
 2713WAT     H1 8381   1.944   6.783   6.214
 2713WAT     H2 8382   1.872   6.785   6.361
 2714WAT      O 8383   1.425   4.047   3.030
 2714WAT     H1 8384   1.485   4.023   2.954
 2714WAT     H2 8385   1.393   3.964   3.075
 2715WAT      O 8386   6.609   3.426   0.560
 2715WAT     H1 8387   6.549   3.354   0.525
 2715WAT     H2 8388   6.650   3.397   0.646
 2716WAT      O 8389   2.786   3.799   5.164
 2716WAT     H1 8390   2.718   3.755   5.223
 2716WAT     H2 8391   2.765   3.896   5.155
 2717WAT      O 8392   4.742   4.133   8.159
 2717WAT     H1 8393   4.681   4.058   8.131
 2717WAT     H2 8394   4.774   4.182   8.078
 2718WAT      O 8395   1.336   4.528   9.043
 2718WAT     H1 8396   1.394   4.502   8.966
 2718WAT     H2 8397   1.295   4.446   9.083
 2719WAT      O 8398   0.468   6.880   7.417
 2719WAT     H1 8399   0.417   6.813   7.470
 2719WAT     H2 8400   0.499   6.954   7.476
 2720WAT      O 8401   0.772   7.791   0.597
 2720WAT     H1 8402   0.866   7.787   0.563
 2720WAT     H2 8403   0.733   7.881   0.580
 2721WAT      O 8404   8.544   6.427   6.230
 2721WAT     H1 8405   8.483   6.499   6.198
 2721WAT     H2 8406   8.500   6.338   6.217
 2722WAT      O 8407   0.535   5.496   7.221
 2722WAT     H1 8408   0.570   5.571   7.278
 2722WAT     H2 8409   0.529   5.527   7.126
 2723WAT      O 8410   0.550   5.886   4.164
 2723WAT     H1 8411   0.522   5.833   4.243
 2723WAT     H2 8412   0.483   5.959   4.147
 2724WAT      O 8413   9.890   5.801   7.441
 2724WAT     H1 8414   9.807   5.823   7.390
 2724WAT     H2 8415   9.893   5.702   7.458
 2725WAT      O 8416   3.960   7.685   5.933
 2725WAT     H1 8417   4.008   7.762   5.891
 2725WAT     H2 8418   3.867   7.681   5.897
 2726WAT      O 8419   7.306   7.919   9.090
 2726WAT     H1 8420   7.330   8.013   9.066
 2726WAT     H2 8421   7.279   7.915   9.186
 2727WAT      O 8422   8.753   0.422   7.300
 2727WAT     H1 8423   8.769   0.372   7.384
 2727WAT     H2 8424   8.666   0.472   7.307
 2728WAT      O 8425   1.379   7.771   4.343
 2728WAT     H1 8426   1.314   7.752   4.269
 2728WAT     H2 8427   1.446   7.697   4.347
 2729WAT      O 8428   2.877   5.572   6.455
 2729WAT     H1 8429   2.975   5.564   6.435
 2729WAT     H2 8430   2.831   5.486   6.432
 2730WAT      O 8431   9.525   9.192   1.544
 2730WAT     H1 8432   9.497   9.132   1.619
 2730WAT     H2 8433   9.618   9.224   1.560
 2731WAT      O 8434   6.371   3.536   7.786
 2731WAT     H1 8435   6.296   3.479   7.753
 2731WAT     H2 8436   6.352   3.565   7.880
 2732WAT      O 8437   8.071   5.445   8.949
 2732WAT     H1 8438   8.168   5.424   8.954
 2732WAT     H2 8439   8.046   5.465   8.855
 2733WAT      O 8440   4.303   9.507   2.094
 2733WAT     H1 8441   4.266   9.546   2.178
 2733WAT     H2 8442   4.333   9.580   2.033
 2734WAT      O 8443   8.921   7.841   2.385
 2734WAT     H1 8444   8.875   7.817   2.300
 2734WAT     H2 8445   8.986   7.915   2.368
 2735WAT      O 8446   1.259   2.208   8.268
 2735WAT     H1 8447   1.167   2.222   8.305
 2735WAT     H2 8448   1.254   2.165   8.178
 2736WAT      O 8449   0.100   5.644   6.896
 2736WAT     H1 8450   0.130   5.610   6.985
 2736WAT     H2 8451   0.000   5.638   6.890
 2737WAT      O 8452   9.540   6.752   6.769
 2737WAT     H1 8453   9.457   6.805   6.752
 2737WAT     H2 8454   9.534   6.707   6.858
 2738WAT      O 8455   1.735   0.929   5.558
 2738WAT     H1 8456   1.677   0.969   5.487
 2738WAT     H2 8457   1.751   0.832   5.538
 2739WAT      O 8458   4.592   8.044   7.820
 2739WAT     H1 8459   4.596   8.127   7.765
 2739WAT     H2 8460   4.516   7.987   7.789
 2740WAT      O 8461   2.518   7.699   1.561
 2740WAT     H1 8462   2.578   7.619   1.569
 2740WAT     H2 8463   2.531   7.740   1.470
 2741WAT      O 8464   0.496   1.782   0.833
 2741WAT     H1 8465   0.466   1.691   0.865
 2741WAT     H2 8466   0.523   1.837   0.911
 2742WAT      O 8467   2.971   8.904   0.350
 2742WAT     H1 8468   2.901   8.894   0.279
 2742WAT     H2 8469   2.948   8.846   0.428
 2743WAT      O 8470   4.981   7.931   6.230
 2743WAT     H1 8471   5.061   7.936   6.171
 2743WAT     H2 8472   4.906   7.887   6.181
 2744WAT      O 8473   3.708   2.272   8.985
 2744WAT     H1 8474   3.786   2.322   9.024
 2744WAT     H2 8475   3.637   2.263   9.054
 2745WAT      O 8476   9.866   7.918   7.782
 2745WAT     H1 8477   9.945   7.886   7.833
 2745WAT     H2 8478   9.826   7.997   7.827
 2746WAT      O 8479   2.789   3.132   2.566
 2746WAT     H1 8480   2.888   3.136   2.561
 2746WAT     H2 8481   2.757   3.194   2.638
 2747WAT      O 8482   6.933   5.579   6.204
 2747WAT     H1 8483   6.946   5.516   6.281
 2747WAT     H2 8484   6.977   5.541   6.122
 2748WAT      O 8485   9.492   3.917   0.453
 2748WAT     H1 8486   9.429   3.871   0.516
 2748WAT     H2 8487   9.516   3.854   0.379
 2749WAT      O 8488   9.344   6.956   7.022
 2749WAT     H1 8489   9.388   6.880   7.071
 2749WAT     H2 8490   9.317   6.926   6.931
 2750WAT      O 8491   8.085   7.528   4.595
 2750WAT     H1 8492   8.032   7.474   4.661
 2750WAT     H2 8493   8.137   7.466   4.536
 2751WAT      O 8494   2.248   9.720   8.129
 2751WAT     H1 8495   2.301   9.671   8.197
 2751WAT     H2 8496   2.309   9.755   8.058
 2752WAT      O 8497   3.595   6.492   4.912
 2752WAT     H1 8498   3.649   6.429   4.855
 2752WAT     H2 8499   3.574   6.449   4.999
 2753WAT      O 8500   3.827   2.510   3.088
 2753WAT     H1 8501   3.832   2.585   3.154
 2753WAT     H2 8502   3.741   2.516   3.038
 2754WAT      O 8503   7.621   8.676   3.165
 2754WAT     H1 8504   7.574   8.614   3.103
 2754WAT     H2 8505   7.709   8.703   3.126
 2755WAT      O 8506   5.996   4.018   3.135
 2755WAT     H1 8507   6.044   3.947   3.186
 2755WAT     H2 8508   5.930   3.975   3.072
 2756WAT      O 8509   9.068   3.404   6.436
 2756WAT     H1 8510   9.154   3.363   6.408
 2756WAT     H2 8511   9.038   3.363   6.522
 2757WAT      O 8512   6.158   6.154   7.429
 2757WAT     H1 8513   6.192   6.243   7.458
 2757WAT     H2 8514   6.093   6.166   7.354
 2758WAT      O 8515   6.525   0.537   6.622
 2758WAT     H1 8516   6.516   0.623   6.571
 2758WAT     H2 8517   6.499   0.460   6.564
 2759WAT      O 8518   3.575   0.074   6.002
 2759WAT     H1 8519   3.560  -0.020   5.972
 2759WAT     H2 8520   3.538   0.137   5.933
 2760WAT      O 8521   7.829   9.658   0.570
 2760WAT     H1 8522   7.764   9.662   0.647
 2760WAT     H2 8523   7.841   9.749   0.531
 2761WAT      O 8524   7.273   3.369   3.269
 2761WAT     H1 8525   7.196   3.307   3.257
 2761WAT     H2 8526   7.241   3.463   3.264
 2762WAT      O 8527   6.679   7.792   5.813
 2762WAT     H1 8528   6.713   7.705   5.777
 2762WAT     H2 8529   6.749   7.835   5.870
 2763WAT      O 8530   0.895   1.094   4.629
 2763WAT     H1 8531   0.894   1.157   4.551
 2763WAT     H2 8532   0.917   1.002   4.596
 2764WAT      O 8533   3.945   2.501   3.636
 2764WAT     H1 8534   3.952   2.490   3.735
 2764WAT     H2 8535   3.989   2.587   3.609
 2765WAT      O 8536   5.142   7.789   8.409
 2765WAT     H1 8537   5.221   7.753   8.458
 2765WAT     H2 8538   5.114   7.725   8.338
 2766WAT      O 8539   0.183   0.914   7.387
 2766WAT     H1 8540   0.160   0.819   7.365
 2766WAT     H2 8541   0.102   0.971   7.379
 2767WAT      O 8542   3.056   1.971   1.766
 2767WAT     H1 8543   3.140   2.024   1.775
 2767WAT     H2 8544   3.065   1.885   1.816
 2768WAT      O 8545   9.652   5.470   6.580
 2768WAT     H1 8546   9.711   5.526   6.638
 2768WAT     H2 8547   9.572   5.440   6.632
 2769WAT      O 8548   7.006   0.241   0.523
 2769WAT     H1 8549   7.102   0.270   0.521
 2769WAT     H2 8550   6.979   0.222   0.617
 2770WAT      O 8551   9.398   3.892   8.292
 2770WAT     H1 8552   9.434   3.824   8.356
 2770WAT     H2 8553   9.475   3.940   8.249
 2771WAT      O 8554   7.135   5.396   7.690
 2771WAT     H1 8555   7.151   5.386   7.592
 2771WAT     H2 8556   7.168   5.315   7.738
 2772WAT      O 8557   8.279   3.970   5.537
 2772WAT     H1 8558   8.243   3.929   5.453
 2772WAT     H2 8559   8.379   3.966   5.535
 2773WAT      O 8560   5.200   2.453   4.086
 2773WAT     H1 8561   5.150   2.406   4.158
 2773WAT     H2 8562   5.140   2.467   4.007
 2774WAT      O 8563   5.847   1.403   7.856
 2774WAT     H1 8564   5.938   1.370   7.831
 2774WAT     H2 8565   5.803   1.338   7.917
 2775WAT      O 8566   3.236   5.715   0.870
 2775WAT     H1 8567   3.197   5.802   0.840
 2775WAT     H2 8568   3.282   5.728   0.958
 2776WAT      O 8569   9.820   3.061   7.125
 2776WAT     H1 8570   9.766   2.991   7.078
 2776WAT     H2 8571   9.852   3.024   7.213
 2777WAT      O 8572   3.905   7.555   7.778
 2777WAT     H1 8573   3.918   7.639   7.725
 2777WAT     H2 8574   3.845   7.493   7.727
 2778WAT      O 8575   7.931   4.747   5.650
 2778WAT     H1 8576   8.017   4.702   5.625
 2778WAT     H2 8577   7.895   4.797   5.571
 2779WAT      O 8578   4.899   0.629   1.428
 2779WAT     H1 8579   4.851   0.590   1.349
 2779WAT     H2 8580   4.922   0.725   1.408
 2780WAT      O 8581   7.973   0.298   7.575
 2780WAT     H1 8582   7.906   0.334   7.510
 2780WAT     H2 8583   7.965   0.348   7.661
 2781WAT      O 8584   4.521   4.815   3.722
 2781WAT     H1 8585   4.607   4.792   3.768
 2781WAT     H2 8586   4.478   4.892   3.770
 2782WAT      O 8587   7.289   1.489   6.616
 2782WAT     H1 8588   7.263   1.466   6.523
 2782WAT     H2 8589   7.209   1.483   6.676
 2783WAT      O 8590   8.819   8.032   6.476
 2783WAT     H1 8591   8.783   8.117   6.514
 2783WAT     H2 8592   8.837   7.967   6.550
 2784WAT      O 8593   3.964   8.611   3.899
 2784WAT     H1 8594   3.879   8.610   3.952
 2784WAT     H2 8595   3.944   8.637   3.804
 2785WAT      O 8596   1.346   8.285   9.570
 2785WAT     H1 8597   1.261   8.283   9.622
 2785WAT     H2 8598   1.352   8.204   9.512
 2786WAT      O 8599   5.394   6.811   1.360
 2786WAT     H1 8600   5.394   6.842   1.266
 2786WAT     H2 8601   5.355   6.881   1.419
 2787WAT      O 8602   8.707   6.939   3.887
 2787WAT     H1 8603   8.805   6.953   3.902
 2787WAT     H2 8604   8.656   6.966   3.969
 2788WAT      O 8605   1.063   1.692   0.207
 2788WAT     H1 8606   1.091   1.606   0.251
 2788WAT     H2 8607   0.964   1.698   0.205
 2789WAT      O 8608   0.931   5.598   0.686
 2789WAT     H1 8609   1.006   5.659   0.663
 2789WAT     H2 8610   0.931   5.580   0.785
 2790WAT      O 8611   4.878   6.652   2.859
 2790WAT     H1 8612   4.915   6.633   2.950
 2790WAT     H2 8613   4.786   6.613   2.851
 2791WAT      O 8614   4.631   7.269   3.315
 2791WAT     H1 8615   4.548   7.266   3.371
 2791WAT     H2 8616   4.647   7.362   3.284
 2792WAT      O 8617   3.878   1.333   2.714
 2792WAT     H1 8618   3.795   1.279   2.702
 2792WAT     H2 8619   3.957   1.278   2.687
 2793WAT      O 8620   0.043   7.065   3.934
 2793WAT     H1 8621   0.082   6.997   3.871
 2793WAT     H2 8622  -0.057   7.059   3.933
 2794WAT      O 8623   5.414   0.340   0.002
 2794WAT     H1 8624   5.510   0.355   0.024
 2794WAT     H2 8625   5.357   0.390   0.068
 2795WAT      O 8626   7.541   9.609   5.988
 2795WAT     H1 8627   7.558   9.637   5.893
 2795WAT     H2 8628   7.568   9.514   6.000
 2796WAT      O 8629   5.591   2.052   5.143
 2796WAT     H1 8630   5.550   1.973   5.189
 2796WAT     H2 8631   5.532   2.081   5.067
 2797WAT      O 8632   5.989   8.553   0.130
 2797WAT     H1 8633   5.893   8.550   0.158
 2797WAT     H2 8634   6.047   8.557   0.212
 2798WAT      O 8635   0.633   4.784   4.616
 2798WAT     H1 8636   0.556   4.740   4.570
 2798WAT     H2 8637   0.610   4.880   4.633
 2799WAT      O 8638   8.351   6.993   4.088
 2799WAT     H1 8639   8.298   7.070   4.054
 2799WAT     H2 8640   8.440   7.025   4.121
 2800WAT      O 8641   5.390   3.469   6.624
 2800WAT     H1 8642   5.314   3.450   6.562
 2800WAT     H2 8643   5.354   3.508   6.709
 2801WAT      O 8644   7.977   0.399   9.377
 2801WAT     H1 8645   7.889   0.399   9.329
 2801WAT     H2 8646   7.973   0.334   9.453
 2802WAT      O 8647   9.281   4.996   3.452
 2802WAT     H1 8648   9.330   4.915   3.418
 2802WAT     H2 8649   9.231   5.039   3.377
 2803WAT      O 8650   5.948   4.342   1.193
 2803WAT     H1 8651   5.986   4.424   1.237
 2803WAT     H2 8652   5.887   4.295   1.256
 2804WAT      O 8653   5.763   5.666   2.109
 2804WAT     H1 8654   5.669   5.663   2.076
 2804WAT     H2 8655   5.823   5.621   2.043
 2805WAT      O 8656   8.502   5.224   6.875
 2805WAT     H1 8657   8.560   5.148   6.846
 2805WAT     H2 8658   8.540   5.310   6.840
 2806WAT      O 8659   0.109   1.914   2.810
 2806WAT     H1 8660   0.176   1.951   2.746
 2806WAT     H2 8661   0.156   1.884   2.894
 2807WAT      O 8662   2.727   0.709   2.417
 2807WAT     H1 8663   2.629   0.720   2.434
 2807WAT     H2 8664   2.769   0.660   2.494
 2808WAT      O 8665   8.307   2.887   6.866
 2808WAT     H1 8666   8.307   2.887   6.766
 2808WAT     H2 8667   8.369   2.958   6.900
 2809WAT      O 8668   0.573   2.757   5.667
 2809WAT     H1 8669   0.512   2.725   5.739
 2809WAT     H2 8670   0.648   2.692   5.655
 2810WAT      O 8671   4.883   7.452   5.390
 2810WAT     H1 8672   4.867   7.365   5.438
 2810WAT     H2 8673   4.966   7.444   5.334
 2811WAT      O 8674   4.589   8.365   8.727
 2811WAT     H1 8675   4.575   8.293   8.659
 2811WAT     H2 8676   4.553   8.451   8.692
 2812WAT      O 8677   4.329   4.365   6.784
 2812WAT     H1 8678   4.325   4.389   6.882
 2812WAT     H2 8679   4.238   4.371   6.745
 2813WAT      O 8680   0.061   7.530   7.358
 2813WAT     H1 8681   0.139   7.591   7.361
 2813WAT     H2 8682   0.092   7.436   7.346
 2814WAT      O 8683   4.027   9.711   0.643
 2814WAT     H1 8684   4.068   9.795   0.607
 2814WAT     H2 8685   4.055   9.698   0.739
 2815WAT      O 8686   7.309   3.716   4.150
 2815WAT     H1 8687   7.296   3.626   4.191
 2815WAT     H2 8688   7.219   3.758   4.134
 2816WAT      O 8689   4.526   5.925   4.887
 2816WAT     H1 8690   4.605   5.986   4.892
 2816WAT     H2 8691   4.525   5.867   4.969
 2817WAT      O 8692   9.451   9.709   3.385
 2817WAT     H1 8693   9.548   9.686   3.397
 2817WAT     H2 8694   9.396   9.626   3.395
 2818WAT      O 8695   3.670   8.606   7.677
 2818WAT     H1 8696   3.640   8.512   7.660
 2818WAT     H2 8697   3.770   8.608   7.685
 2819WAT      O 8698   2.036   0.032   6.862
 2819WAT     H1 8699   2.011   0.062   6.770
 2819WAT     H2 8700   1.998   0.096   6.929
 2820WAT      O 8701   9.318   2.168   8.770
 2820WAT     H1 8702   9.230   2.201   8.734
 2820WAT     H2 8703   9.392   2.220   8.728
 2821WAT      O 8704   1.463   8.268   6.014
 2821WAT     H1 8705   1.490   8.192   5.954
 2821WAT     H2 8706   1.375   8.304   5.984
 2822WAT      O 8707   3.784   5.936   4.562
 2822WAT     H1 8708   3.762   6.033   4.550
 2822WAT     H2 8709   3.703   5.886   4.592
 2823WAT      O 8710   3.250   1.946   5.124
 2823WAT     H1 8711   3.291   2.001   5.051
 2823WAT     H2 8712   3.320   1.892   5.170
 2824WAT      O 8713   5.467   2.432   2.664
 2824WAT     H1 8714   5.505   2.428   2.756
 2824WAT     H2 8715   5.378   2.480   2.667
 2825WAT      O 8716   9.554   6.349   4.066
 2825WAT     H1 8717   9.512   6.392   4.145
 2825WAT     H2 8718   9.532   6.251   4.066
 2826WAT      O 8719   6.872   8.259   5.715
 2826WAT     H1 8720   6.962   8.303   5.720
 2826WAT     H2 8721   6.840   8.259   5.621
 2827WAT      O 8722   9.633   8.407   7.005
 2827WAT     H1 8723   9.698   8.436   6.935
 2827WAT     H2 8724   9.604   8.487   7.059
 2828WAT      O 8725   3.320   1.592   0.221
 2828WAT     H1 8726   3.273   1.507   0.244
 2828WAT     H2 8727   3.362   1.630   0.304
 2829WAT      O 8728   9.292   7.176   0.927
 2829WAT     H1 8729   9.346   7.143   0.849
 2829WAT     H2 8730   9.266   7.098   0.985
 2830WAT      O 8731   3.177   9.180   3.746
 2830WAT     H1 8732   3.122   9.139   3.819
 2830WAT     H2 8733   3.132   9.165   3.658
 2831WAT      O 8734   0.919   1.348   0.404
 2831WAT     H1 8735   0.847   1.396   0.354
 2831WAT     H2 8736   0.987   1.313   0.339
 2832WAT      O 8737   5.643   7.727   2.593
 2832WAT     H1 8738   5.634   7.700   2.497
 2832WAT     H2 8739   5.572   7.683   2.647
 2833WAT      O 8740   4.827   8.256   8.807
 2833WAT     H1 8741   4.749   8.311   8.778
 2833WAT     H2 8742   4.912   8.304   8.786
 2834WAT      O 8743   6.583   7.215   5.169
 2834WAT     H1 8744   6.612   7.159   5.247
 2834WAT     H2 8745   6.645   7.199   5.092
 2835WAT      O 8746   5.944   9.447   1.607
 2835WAT     H1 8747   5.946   9.420   1.703
 2835WAT     H2 8748   5.908   9.540   1.601
 2836WAT      O 8749   6.607   3.131   9.554
 2836WAT     H1 8750   6.621   3.223   9.518
 2836WAT     H2 8751   6.529   3.131   9.616
 2837WAT      O 8752   6.151   1.932   1.559
 2837WAT     H1 8753   6.193   1.868   1.494
 2837WAT     H2 8754   6.219   1.998   1.590
 2838WAT      O 8755   8.216   7.861   2.967
 2838WAT     H1 8756   8.176   7.885   3.055
 2838WAT     H2 8757   8.151   7.806   2.915
 2839WAT      O 8758   7.281   7.217   9.265
 2839WAT     H1 8759   7.219   7.185   9.193
 2839WAT     H2 8760   7.263   7.314   9.283
 2840WAT      O 8761   3.987   2.980   4.198
 2840WAT     H1 8762   4.059   3.022   4.252
 2840WAT     H2 8763   3.911   3.044   4.188
 2841WAT      O 8764   5.993   6.060   2.452
 2841WAT     H1 8765   6.019   5.966   2.475
 2841WAT     H2 8766   6.065   6.102   2.397
 2842WAT      O 8767   4.349   0.805   4.002
 2842WAT     H1 8768   4.311   0.713   4.004
 2842WAT     H2 8769   4.449   0.800   4.000
 2843WAT      O 8770   0.077   0.331   5.787
 2843WAT     H1 8771   0.116   0.358   5.875
 2843WAT     H2 8772   0.003   0.394   5.762
 2844WAT      O 8773   0.410   6.957   6.835
 2844WAT     H1 8774   0.369   7.034   6.884
 2844WAT     H2 8775   0.501   6.939   6.873
 2845WAT      O 8776   5.999   1.016   0.825
 2845WAT     H1 8777   6.076   1.072   0.793
 2845WAT     H2 8778   6.032   0.948   0.891
 2846WAT      O 8779   8.963   4.682   0.511
 2846WAT     H1 8780   8.894   4.706   0.442
 2846WAT     H2 8781   8.936   4.598   0.557
 2847WAT      O 8782   1.009   3.094   1.619
 2847WAT     H1 8783   0.976   3.057   1.531
 2847WAT     H2 8784   1.033   3.190   1.607
 2848WAT      O 8785   6.145   0.197   8.272
 2848WAT     H1 8786   6.084   0.205   8.351
 2848WAT     H2 8787   6.158   0.287   8.230
 2849WAT      O 8788   7.552   8.338   5.919
 2849WAT     H1 8789   7.551   8.436   5.904
 2849WAT     H2 8790   7.461   8.306   5.943
 2850WAT      O 8791   8.713   6.280   6.403
 2850WAT     H1 8792   8.803   6.321   6.420
 2850WAT     H2 8793   8.651   6.349   6.366
 2851WAT      O 8794   5.917   7.793   5.302
 2851WAT     H1 8795   5.959   7.730   5.237
 2851WAT     H2 8796   5.844   7.747   5.351
 2852WAT      O 8797   6.386   2.511   5.165
 2852WAT     H1 8798   6.382   2.427   5.220
 2852WAT     H2 8799   6.294   2.545   5.148
 2853WAT      O 8800   7.059   3.597   2.641
 2853WAT     H1 8801   7.110   3.557   2.564
 2853WAT     H2 8802   7.121   3.609   2.718
 2854WAT      O 8803   1.110   8.235   7.002
 2854WAT     H1 8804   1.035   8.266   6.943
 2854WAT     H2 8805   1.193   8.223   6.948
 2855WAT      O 8806   0.118   5.398   6.332
 2855WAT     H1 8807   0.189   5.337   6.295
 2855WAT     H2 8808   0.110   5.479   6.274
 2856WAT      O 8809   4.463   6.073   4.663
 2856WAT     H1 8810   4.475   6.031   4.753
 2856WAT     H2 8811   4.482   6.171   4.668
 2857WAT      O 8812   1.330   8.719   1.917
 2857WAT     H1 8813   1.343   8.622   1.897
 2857WAT     H2 8814   1.412   8.754   1.963
 2858WAT      O 8815   2.558   5.543   0.282
 2858WAT     H1 8816   2.596   5.535   0.374
 2858WAT     H2 8817   2.534   5.453   0.248
 2859WAT      O 8818   4.873   8.758   8.602
 2859WAT     H1 8819   4.834   8.804   8.681
 2859WAT     H2 8820   4.960   8.715   8.628
 2860WAT      O 8821   3.083   8.048   3.858
 2860WAT     H1 8822   3.109   7.975   3.795
 2860WAT     H2 8823   3.143   8.046   3.938
 2861WAT      O 8824   7.494   2.691   6.074
 2861WAT     H1 8825   7.564   2.657   6.011
 2861WAT     H2 8826   7.493   2.635   6.157
 2862WAT      O 8827   8.355   6.084   6.972
 2862WAT     H1 8828   8.366   6.137   7.056
 2862WAT     H2 8829   8.257   6.075   6.951
 2863WAT      O 8830   3.876   2.635   7.903
 2863WAT     H1 8831   3.967   2.642   7.862
 2863WAT     H2 8832   3.837   2.726   7.914
 2864WAT      O 8833   9.742   7.170   4.958
 2864WAT     H1 8834   9.795   7.150   4.876
 2864WAT     H2 8835   9.753   7.095   5.024
 2865WAT      O 8836   6.063   7.711   2.596
 2865WAT     H1 8837   6.000   7.655   2.543
 2865WAT     H2 8838   6.153   7.668   2.598
 2866WAT      O 8839   0.861   8.061   5.851
 2866WAT     H1 8840   0.908   7.977   5.877
 2866WAT     H2 8841   0.863   8.126   5.927
 2867WAT      O 8842   8.438   7.804   3.324
 2867WAT     H1 8843   8.361   7.866   3.303
 2867WAT     H2 8844   8.450   7.740   3.248
 2868WAT      O 8845   5.392   0.815   0.755
 2868WAT     H1 8846   5.432   0.793   0.667
 2868WAT     H2 8847   5.464   0.842   0.819
 2869WAT      O 8848   4.218   4.196   2.266
 2869WAT     H1 8849   4.303   4.243   2.244
 2869WAT     H2 8850   4.234   4.097   2.267
 2870WAT      O 8851   2.319   7.412   5.457
 2870WAT     H1 8852   2.375   7.467   5.395
 2870WAT     H2 8853   2.223   7.440   5.449
 2871WAT      O 8854   5.365   4.391   2.242
 2871WAT     H1 8855   5.341   4.475   2.194
 2871WAT     H2 8856   5.460   4.396   2.273
 2872WAT      O 8857   8.940   2.058   7.882
 2872WAT     H1 8858   8.912   2.054   7.787
 2872WAT     H2 8859   8.916   1.973   7.928
 2873WAT      O 8860   6.797   2.888   8.320
 2873WAT     H1 8861   6.721   2.950   8.301
 2873WAT     H2 8862   6.871   2.904   8.256
 2874WAT      O 8863   2.597   9.808   6.019
 2874WAT     H1 8864   2.551   9.851   6.096
 2874WAT     H2 8865   2.694   9.794   6.041
 2875WAT      O 8866   2.657   3.231   0.617
 2875WAT     H1 8867   2.716   3.284   0.678
 2875WAT     H2 8868   2.690   3.240   0.523
 2876WAT      O 8869   6.334   9.153   1.709
 2876WAT     H1 8870   6.369   9.063   1.733
 2876WAT     H2 8871   6.316   9.206   1.792
 2877WAT      O 8872   2.875   1.000   7.419
 2877WAT     H1 8873   2.866   1.000   7.518
 2877WAT     H2 8874   2.970   1.017   7.394
 2878WAT      O 8875   3.383   8.459   3.423
 2878WAT     H1 8876   3.335   8.371   3.424
 2878WAT     H2 8877   3.473   8.448   3.464
 2879WAT      O 8878   9.473   4.072   6.770
 2879WAT     H1 8879   9.565   4.036   6.784
 2879WAT     H2 8880   9.476   4.144   6.701
 2880WAT      O 8881   8.338   5.605   5.562
 2880WAT     H1 8882   8.361   5.562   5.475
 2880WAT     H2 8883   8.352   5.540   5.637
 2881WAT      O 8884   3.735   4.098   3.576
 2881WAT     H1 8885   3.752   4.191   3.606
 2881WAT     H2 8886   3.790   4.034   3.630
 2882WAT      O 8887   0.094   5.739   1.049
 2882WAT     H1 8888   0.133   5.831   1.044
 2882WAT     H2 8889   0.070   5.718   1.144
 2883WAT      O 8890   1.128   6.554   4.618
 2883WAT     H1 8891   1.130   6.565   4.717
 2883WAT     H2 8892   1.136   6.644   4.574
 2884WAT      O 8893   6.120   6.227   8.983
 2884WAT     H1 8894   6.031   6.182   8.972
 2884WAT     H2 8895   6.177   6.206   8.904
 2885WAT      O 8896   5.157   7.999   4.261
 2885WAT     H1 8897   5.133   7.986   4.358
 2885WAT     H2 8898   5.180   7.911   4.221
 2886WAT      O 8899   0.086   2.885   3.022
 2886WAT     H1 8900   0.083   2.985   3.025
 2886WAT     H2 8901   0.179   2.856   2.999
 2887WAT      O 8902   6.101   1.276   8.129
 2887WAT     H1 8903   6.095   1.205   8.059
 2887WAT     H2 8904   6.121   1.364   8.086
 2888WAT      O 8905   9.191   2.701   0.058
 2888WAT     H1 8906   9.138   2.729   0.138
 2888WAT     H2 8907   9.248   2.622   0.082
 2889WAT      O 8908   3.839   4.825   3.572
 2889WAT     H1 8909   3.923   4.837   3.625
 2889WAT     H2 8910   3.800   4.914   3.550
 2890WAT      O 8911   7.316   0.094   6.688
 2890WAT     H1 8912   7.388   0.146   6.734
 2890WAT     H2 8913   7.274   0.031   6.753
 2891WAT      O 8914   2.744   3.711   3.311
 2891WAT     H1 8915   2.650   3.700   3.280
 2891WAT     H2 8916   2.807   3.689   3.237
 2892WAT      O 8917   4.889   1.066   7.102
 2892WAT     H1 8918   4.967   1.019   7.142
 2892WAT     H2 8919   4.920   1.126   7.028
 2893WAT      O 8920   1.743   2.483   3.278
 2893WAT     H1 8921   1.747   2.499   3.179
 2893WAT     H2 8922   1.651   2.502   3.311
 2894WAT      O 8923   7.377   8.436   7.229
 2894WAT     H1 8924   7.301   8.499   7.221
 2894WAT     H2 8925   7.351   8.346   7.194
 2895WAT      O 8926   0.467   9.800   3.363
 2895WAT     H1 8927   0.404   9.847   3.425
 2895WAT     H2 8928   0.414   9.746   3.297
 2896WAT      O 8929   7.369   1.046   8.971
 2896WAT     H1 8930   7.364   0.970   8.906
 2896WAT     H2 8931   7.453   1.097   8.955
 2897WAT      O 8932   8.257   9.625   5.510
 2897WAT     H1 8933   8.344   9.575   5.514
 2897WAT     H2 8934   8.182   9.561   5.496
 2898WAT      O 8935   6.531   2.193   9.102
 2898WAT     H1 8936   6.540   2.155   9.010
 2898WAT     H2 8937   6.482   2.280   9.097
 2899WAT      O 8938   2.008   4.290   3.531
 2899WAT     H1 8939   1.985   4.195   3.512
 2899WAT     H2 8940   1.974   4.348   3.457
 2900WAT      O 8941   0.654   3.921   5.062
 2900WAT     H1 8942   0.615   4.013   5.062
 2900WAT     H2 8943   0.743   3.922   5.017
 2901WAT      O 8944   1.980   3.723   6.848
 2901WAT     H1 8945   2.061   3.675   6.815
 2901WAT     H2 8946   1.974   3.714   6.947
 2902WAT      O 8947   5.440   6.908   1.090
 2902WAT     H1 8948   5.379   6.962   1.032
 2902WAT     H2 8949   5.507   6.860   1.034
 2903WAT      O 8950   2.364   0.206   1.564
 2903WAT     H1 8951   2.298   0.136   1.536
 2903WAT     H2 8952   2.319   0.295   1.566
 2904WAT      O 8953   5.746   8.282   6.073
 2904WAT     H1 8954   5.761   8.315   5.980
 2904WAT     H2 8955   5.809   8.328   6.136
 2905WAT      O 8956   8.042   0.343   1.013
 2905WAT     H1 8957   7.985   0.319   0.935
 2905WAT     H2 8958   8.090   0.262   1.047
 2906WAT      O 8959   2.034   0.508   0.380
 2906WAT     H1 8960   2.016   0.440   0.309
 2906WAT     H2 8961   2.097   0.470   0.448
 2907WAT      O 8962   8.084   1.174   1.548
 2907WAT     H1 8963   8.013   1.238   1.521
 2907WAT     H2 8964   8.156   1.171   1.479
 2908WAT      O 8965   5.656   0.116   4.219
 2908WAT     H1 8966   5.595   0.074   4.151
 2908WAT     H2 8967   5.697   0.044   4.276
 2909WAT      O 8968   6.616   8.827   2.768
 2909WAT     H1 8969   6.523   8.861   2.762
 2909WAT     H2 8970   6.626   8.768   2.848
 2910WAT      O 8971   7.174   8.923   3.579
 2910WAT     H1 8972   7.268   8.896   3.594
 2910WAT     H2 8973   7.124   8.922   3.666
 2911WAT      O 8974   7.251   0.742   5.471
 2911WAT     H1 8975   7.175   0.770   5.412
 2911WAT     H2 8976   7.338   0.770   5.429
 2912WAT      O 8977   6.554   3.973   8.356
 2912WAT     H1 8978   6.481   4.011   8.412
 2912WAT     H2 8979   6.598   3.897   8.405
 2913WAT      O 8980   3.753   7.728   0.242
 2913WAT     H1 8981   3.708   7.740   0.331
 2913WAT     H2 8982   3.720   7.644   0.199
 2914WAT      O 8983   3.859   7.267   8.034
 2914WAT     H1 8984   3.872   7.278   7.936
 2914WAT     H2 8985   3.947   7.256   8.079
 2915WAT      O 8986   8.021   7.505   7.729
 2915WAT     H1 8987   8.111   7.465   7.742
 2915WAT     H2 8988   8.022   7.567   7.651
 2916WAT      O 8989   9.811   2.080   9.198
 2916WAT     H1 8990   9.886   2.033   9.150
 2916WAT     H2 8991   9.836   2.176   9.212
 2917WAT      O 8992   3.335   1.746   6.883
 2917WAT     H1 8993   3.410   1.717   6.823
 2917WAT     H2 8994   3.363   1.827   6.935
 2918WAT      O 8995   4.997   8.408   0.282
 2918WAT     H1 8996   4.914   8.380   0.331
 2918WAT     H2 8997   4.979   8.409   0.184
 2919WAT      O 8998   5.060   2.156   7.163
 2919WAT     H1 8999   5.030   2.198   7.078
 2919WAT     H2 9000   4.997   2.178   7.237
 2920WAT      O 9001   7.955   3.263   3.326
 2920WAT     H1 9002   7.876   3.313   3.290
 2920WAT     H2 9003   7.995   3.206   3.253
 2921WAT      O 9004   8.147   1.517   8.822
 2921WAT     H1 9005   8.204   1.505   8.903
 2921WAT     H2 9006   8.144   1.614   8.797
 2922WAT      O 9007   4.564   3.423   4.094
 2922WAT     H1 9008   4.606   3.512   4.108
 2922WAT     H2 9009   4.464   3.433   4.089
 2923WAT      O 9010   1.063   4.626   0.268
 2923WAT     H1 9011   1.073   4.723   0.244
 2923WAT     H2 9012   1.068   4.616   0.368
 2924WAT      O 9013   6.418   1.639   4.162
 2924WAT     H1 9014   6.421   1.542   4.137
 2924WAT     H2 9015   6.325   1.663   4.189
 2925WAT      O 9016   8.959   4.468   0.234
 2925WAT     H1 9017   9.021   4.492   0.308
 2925WAT     H2 9018   8.982   4.521   0.152
 2926WAT      O 9019   9.479   3.224   7.275
 2926WAT     H1 9020   9.383   3.244   7.256
 2926WAT     H2 9021   9.485   3.144   7.335
 2927WAT      O 9022   1.221   8.118   8.952
 2927WAT     H1 9023   1.251   8.180   9.025
 2927WAT     H2 9024   1.123   8.103   8.959
 2928WAT      O 9025   1.440   3.545   7.735
 2928WAT     H1 9026   1.392   3.611   7.792
 2928WAT     H2 9027   1.384   3.462   7.725
 2929WAT      O 9028   5.608   7.885   9.073
 2929WAT     H1 9029   5.651   7.796   9.055
 2929WAT     H2 9030   5.509   7.876   9.064
 2930WAT      O 9031   1.608   4.916   5.913
 2930WAT     H1 9032   1.540   4.845   5.892
 2930WAT     H2 9033   1.575   5.004   5.879
 2931WAT      O 9034   0.777   0.194   1.255
 2931WAT     H1 9035   0.685   0.229   1.274
 2931WAT     H2 9036   0.827   0.261   1.200
 2932WAT      O 9037   9.815   6.715   0.394
 2932WAT     H1 9038   9.909   6.725   0.361
 2932WAT     H2 9039   9.797   6.785   0.463
 2933WAT      O 9040   9.808   5.964   1.714
 2933WAT     H1 9041   9.857   6.029   1.772
 2933WAT     H2 9042   9.766   6.013   1.638
 2934WAT      O 9043   2.712   2.588   8.388
 2934WAT     H1 9044   2.808   2.587   8.417
 2934WAT     H2 9045   2.705   2.626   8.296
 2935WAT      O 9046   2.345   2.258   5.749
 2935WAT     H1 9047   2.317   2.235   5.842
 2935WAT     H2 9048   2.307   2.190   5.686
 2936WAT      O 9049   6.229   3.969   2.610
 2936WAT     H1 9050   6.136   3.935   2.594
 2936WAT     H2 9051   6.253   4.034   2.537
 2937WAT      O 9052   6.372   0.770   9.542
 2937WAT     H1 9053   6.466   0.754   9.513
 2937WAT     H2 9054   6.325   0.826   9.474
 2938WAT      O 9055   9.765   5.065   6.633
 2938WAT     H1 9056   9.736   5.120   6.555
 2938WAT     H2 9057   9.846   5.011   6.608
 2939WAT      O 9058   1.940   6.527   8.921
 2939WAT     H1 9059   2.018   6.562   8.869
 2939WAT     H2 9060   1.944   6.560   9.015
 2940WAT      O 9061   2.857   5.515   7.983
 2940WAT     H1 9062   2.828   5.515   7.888
 2940WAT     H2 9063   2.783   5.551   8.041
 2941WAT      O 9064   9.629   9.654   1.418
 2941WAT     H1 9065   9.666   9.701   1.337
 2941WAT     H2 9066   9.536   9.686   1.435
 2942WAT      O 9067   5.613   9.207   8.992
 2942WAT     H1 9068   5.521   9.169   9.005
 2942WAT     H2 9069   5.624   9.286   9.052
 2943WAT      O 9070   8.580   7.764   6.012
 2943WAT     H1 9071   8.633   7.822   6.073
 2943WAT     H2 9072   8.600   7.787   5.917
 2944WAT      O 9073   8.565   0.087   2.813
 2944WAT     H1 9074   8.549  -0.005   2.777
 2944WAT     H2 9075   8.657   0.091   2.853
 2945WAT      O 9076   9.600   8.286   8.665
 2945WAT     H1 9077   9.501   8.285   8.681
 2945WAT     H2 9078   9.638   8.196   8.687
 2946WAT      O 9079   7.486   6.751   5.104
 2946WAT     H1 9080   7.522   6.660   5.082
 2946WAT     H2 9081   7.386   6.749   5.104
 2947WAT      O 9082   1.451   9.271   4.354
 2947WAT     H1 9083   1.441   9.371   4.354
 2947WAT     H2 9084   1.413   9.234   4.270
 2948WAT      O 9085   7.290   2.346   7.913
 2948WAT     H1 9086   7.291   2.389   8.003
 2948WAT     H2 9087   7.337   2.405   7.848
 2949WAT      O 9088   0.807   0.574   4.884
 2949WAT     H1 9089   0.757   0.488   4.889
 2949WAT     H2 9090   0.770   0.629   4.809
 2950WAT      O 9091   9.609   1.488   3.089
 2950WAT     H1 9092   9.681   1.516   3.025
 2950WAT     H2 9093   9.641   1.501   3.183
 2951WAT      O 9094   7.787   5.585   1.058
 2951WAT     H1 9095   7.806   5.501   1.007
 2951WAT     H2 9096   7.853   5.595   1.132
 2952WAT      O 9097   2.805   8.766   3.516
 2952WAT     H1 9098   2.856   8.687   3.482
 2952WAT     H2 9099   2.747   8.738   3.592
 2953WAT      O 9100   4.803   2.970   0.400
 2953WAT     H1 9101   4.768   3.045   0.456
 2953WAT     H2 9102   4.733   2.899   0.393
 2954WAT      O 9103   7.098   1.375   4.159
 2954WAT     H1 9104   7.018   1.410   4.110
 2954WAT     H2 9105   7.181   1.419   4.123
 2955WAT      O 9106   8.881   9.713   2.808
 2955WAT     H1 9107   8.831   9.697   2.724
 2955WAT     H2 9108   8.899   9.626   2.853
 2956WAT      O 9109   5.250   2.710   2.278
 2956WAT     H1 9110   5.151   2.703   2.291
 2956WAT     H2 9111   5.292   2.620   2.284
 2957WAT      O 9112   0.837   4.217   4.516
 2957WAT     H1 9113   0.806   4.123   4.525
 2957WAT     H2 9114   0.862   4.253   4.606
 2958WAT      O 9115   7.356   9.787   4.686
 2958WAT     H1 9116   7.453   9.798   4.705
 2958WAT     H2 9117   7.307   9.871   4.712
 2959WAT      O 9118   4.314   7.659   0.304
 2959WAT     H1 9119   4.319   7.573   0.254
 2959WAT     H2 9120   4.405   7.702   0.306
 2960WAT      O 9121   3.088   1.223   2.934
 2960WAT     H1 9122   3.090   1.276   2.850
 2960WAT     H2 9123   3.015   1.258   2.993
 2961WAT      O 9124   9.249   2.755   7.262
 2961WAT     H1 9125   9.266   2.678   7.322
 2961WAT     H2 9126   9.156   2.748   7.224
 2962WAT      O 9127   0.404   1.562   4.388
 2962WAT     H1 9128   0.312   1.544   4.424
 2962WAT     H2 9129   0.398   1.597   4.295
 2963WAT      O 9130   5.490   6.416   9.328
 2963WAT     H1 9131   5.560   6.451   9.390
 2963WAT     H2 9132   5.412   6.382   9.380
 2964WAT      O 9133   7.302   0.067   1.426
 2964WAT     H1 9134   7.359   0.087   1.347
 2964WAT     H2 9135   7.345  -0.006   1.480
 2965WAT      O 9136   1.040   7.483   4.023
 2965WAT     H1 9137   1.101   7.404   4.013
 2965WAT     H2 9138   1.027   7.527   3.935
 2966WAT      O 9139   8.004   0.798   5.380
 2966WAT     H1 9140   8.090   0.818   5.334
 2966WAT     H2 9141   7.937   0.766   5.312
 2967WAT      O 9142   7.740   7.795   6.956
 2967WAT     H1 9143   7.820   7.759   7.004
 2967WAT     H2 9144   7.697   7.866   7.011
 2968WAT      O 9145   8.845   8.640   4.817
 2968WAT     H1 9146   8.847   8.686   4.728
 2968WAT     H2 9147   8.936   8.606   4.839
 2969WAT      O 9148   2.054   0.861   2.900
 2969WAT     H1 9149   2.127   0.830   2.840
 2969WAT     H2 9150   2.008   0.940   2.858
 2970WAT      O 9151   2.609   8.277   6.516
 2970WAT     H1 9152   2.606   8.307   6.421
 2970WAT     H2 9153   2.700   8.293   6.554
 2971WAT      O 9154   6.185   8.136   7.929
 2971WAT     H1 9155   6.169   8.082   8.011
 2971WAT     H2 9156   6.283   8.149   7.916
 2972WAT      O 9157   1.140   1.207   6.203
 2972WAT     H1 9158   1.219   1.146   6.211
 2972WAT     H2 9159   1.165   1.299   6.232
 2973WAT      O 9160   0.526   5.036   8.654
 2973WAT     H1 9161   0.619   5.051   8.688
 2973WAT     H2 9162   0.529   5.014   8.557
 2974WAT      O 9163   3.025   8.784   8.959
 2974WAT     H1 9164   2.997   8.831   9.043
 2974WAT     H2 9165   2.946   8.734   8.921
 2975WAT      O 9166   0.470   7.957   8.691
 2975WAT     H1 9167   0.483   8.052   8.720
 2975WAT     H2 9168   0.436   7.902   8.768
 2976WAT      O 9169   7.461   0.647   4.458
 2976WAT     H1 9170   7.480   0.560   4.412
 2976WAT     H2 9171   7.362   0.656   4.472
 2977WAT      O 9172   2.668   9.321   2.671
 2977WAT     H1 9173   2.761   9.284   2.672
 2977WAT     H2 9174   2.616   9.278   2.598
 2978WAT      O 9175   2.403   2.759   2.062
 2978WAT     H1 9176   2.502   2.769   2.060
 2978WAT     H2 9177   2.363   2.806   1.983
 2979WAT      O 9178   8.358   5.901   4.223
 2979WAT     H1 9179   8.356   5.936   4.316
 2979WAT     H2 9180   8.447   5.921   4.181
 2980WAT      O 9181   2.866   7.841   2.925
 2980WAT     H1 9182   2.778   7.873   2.958
 2980WAT     H2 9183   2.862   7.742   2.908
 2981WAT      O 9184   6.266   5.298   8.942
 2981WAT     H1 9185   6.279   5.205   8.908
 2981WAT     H2 9186   6.169   5.323   8.937
 2982WAT      O 9187   8.382   0.216   8.333
 2982WAT     H1 9188   8.419   0.269   8.257
 2982WAT     H2 9189   8.456   0.166   8.378
 2983WAT      O 9190   7.470   1.670   6.511
 2983WAT     H1 9191   7.417   1.600   6.559
 2983WAT     H2 9192   7.410   1.724   6.453
 2984WAT      O 9193   0.599   7.635   0.232
 2984WAT     H1 9194   0.581   7.617   0.329
 2984WAT     H2 9195   0.516   7.668   0.188
 2985WAT      O 9196   0.065   6.757   3.200
 2985WAT     H1 9197   0.066   6.658   3.215
 2985WAT     H2 9198   0.152   6.796   3.228
 2986WAT      O 9199   7.412   8.721   6.008
 2986WAT     H1 9200   7.337   8.664   6.043
 2986WAT     H2 9201   7.454   8.770   6.084
 2987WAT      O 9202   0.835   7.326   1.440
 2987WAT     H1 9203   0.735   7.330   1.444
 2987WAT     H2 9204   0.866   7.353   1.349
 2988WAT      O 9205   2.934   0.907   8.190
 2988WAT     H1 9206   2.847   0.870   8.222
 2988WAT     H2 9207   2.959   0.987   8.245
 2989WAT      O 9208   0.705   7.918   2.808
 2989WAT     H1 9209   0.647   7.898   2.729
 2989WAT     H2 9210   0.741   7.833   2.846
 2990WAT      O 9211   3.327   1.834   2.053
 2990WAT     H1 9212   3.254   1.784   2.100
 2990WAT     H2 9213   3.356   1.912   2.109
 2991WAT      O 9214   7.883   5.833   7.198
 2991WAT     H1 9215   7.802   5.812   7.141
 2991WAT     H2 9216   7.966   5.815   7.145
 2992WAT      O 9217   9.887   6.587   9.456
 2992WAT     H1 9218   9.805   6.641   9.473
 2992WAT     H2 9219   9.931   6.565   9.543
 2993WAT      O 9220   1.348   8.370   2.078
 2993WAT     H1 9221   1.287   8.407   2.008
 2993WAT     H2 9222   1.300   8.363   2.165
 2994WAT      O 9223   0.782   4.378   4.281
 2994WAT     H1 9224   0.802   4.333   4.368
 2994WAT     H2 9225   0.826   4.329   4.206
 2995WAT      O 9226   7.912   3.104   2.032
 2995WAT     H1 9227   7.929   3.137   1.939
 2995WAT     H2 9228   7.891   3.006   2.029
 2996WAT      O 9229   8.292   9.518   6.678
 2996WAT     H1 9230   8.340   9.604   6.656
 2996WAT     H2 9231   8.268   9.518   6.775
 2997WAT      O 9232   9.013   2.062   1.263
 2997WAT     H1 9233   9.087   2.001   1.291
 2997WAT     H2 9234   8.971   2.103   1.344
 2998WAT      O 9235   0.816   3.830   0.338
 2998WAT     H1 9236   0.892   3.837   0.274
 2998WAT     H2 9237   0.732   3.807   0.289
 2999WAT      O 9238   3.856   5.353   5.843
 2999WAT     H1 9239   3.956   5.352   5.843
 2999WAT     H2 9240   3.823   5.394   5.758
 3000WAT      O 9241   6.939   0.513   4.769
 3000WAT     H1 9242   6.941   0.490   4.672
 3000WAT     H2 9243   6.969   0.435   4.823
 3001WAT      O 9244   0.779   6.985   2.744
 3001WAT     H1 9245   0.733   6.916   2.800
 3001WAT     H2 9246   0.877   6.966   2.741
 3002WAT      O 9247   7.770   3.284   9.089
 3002WAT     H1 9248   7.688   3.249   9.134
 3002WAT     H2 9249   7.838   3.309   9.158
 3003WAT      O 9250   8.200   2.342   5.969
 3003WAT     H1 9251   8.244   2.336   6.059
 3003WAT     H2 9252   8.221   2.430   5.927
 3004WAT      O 9253   4.268   4.149   1.681
 3004WAT     H1 9254   4.171   4.163   1.702
 3004WAT     H2 9255   4.317   4.127   1.765
 3005WAT      O 9256   8.050   9.361   9.008
 3005WAT     H1 9257   8.007   9.391   9.093
 3005WAT     H2 9258   8.010   9.274   8.979
 3006WAT      O 9259   7.744   4.277   5.041
 3006WAT     H1 9260   7.789   4.247   4.957
 3006WAT     H2 9261   7.797   4.351   5.082
 3007WAT      O 9262   3.652   2.685   4.860
 3007WAT     H1 9263   3.733   2.628   4.875
 3007WAT     H2 9264   3.675   2.759   4.796
 3008WAT      O 9265   5.739   4.082   7.008
 3008WAT     H1 9266   5.736   4.012   6.936
 3008WAT     H2 9267   5.745   4.037   7.097
 3009WAT      O 9268   9.098   2.810   1.275
 3009WAT     H1 9269   9.158   2.876   1.319
 3009WAT     H2 9270   9.151   2.730   1.247
 3010WAT      O 9271   0.303   7.143   8.275
 3010WAT     H1 9272   0.279   7.194   8.358
 3010WAT     H2 9273   0.354   7.061   8.300
 3011WAT      O 9274   5.711   5.876   9.061
 3011WAT     H1 9275   5.677   5.810   9.128
 3011WAT     H2 9276   5.640   5.893   8.993
 3012WAT      O 9277   0.753   9.834   9.707
 3012WAT     H1 9278   0.789   9.926   9.688
 3012WAT     H2 9279   0.654   9.839   9.721
 3013WAT      O 9280   4.195   4.732   8.606
 3013WAT     H1 9281   4.235   4.740   8.515
 3013WAT     H2 9282   4.116   4.793   8.613
 3014WAT      O 9283   4.444   0.715   1.891
 3014WAT     H1 9284   4.459   0.623   1.926
 3014WAT     H2 9285   4.528   0.769   1.905
 3015WAT      O 9286   1.021   4.518   2.185
 3015WAT     H1 9287   1.071   4.486   2.265
 3015WAT     H2 9288   1.053   4.609   2.159
 3016WAT      O 9289   7.387   0.098   9.844
 3016WAT     H1 9290   7.470   0.128   9.890
 3016WAT     H2 9291   7.344   0.175   9.798
 3017WAT      O 9292   1.737   6.663   8.769
 3017WAT     H1 9293   1.647   6.673   8.812
 3017WAT     H2 9294   1.787   6.589   8.814
 3018WAT      O 9295   3.143   7.131   8.145
 3018WAT     H1 9296   3.241   7.111   8.139
 3018WAT     H2 9297   3.099   7.065   8.205
 3019WAT      O 9298   2.234   3.317   1.462
 3019WAT     H1 9299   2.317   3.367   1.486
 3019WAT     H2 9300   2.254   3.250   1.390
 3020WAT      O 9301   7.245   3.088   3.884
 3020WAT     H1 9302   7.236   3.126   3.792
 3020WAT     H2 9303   7.295   3.002   3.880
 3021WAT      O 9304   0.490   6.382   8.206
 3021WAT     H1 9305   0.541   6.464   8.230
 3021WAT     H2 9306   0.554   6.309   8.182
 3022WAT      O 9307   9.103   1.199   3.579
 3022WAT     H1 9308   9.084   1.243   3.491
 3022WAT     H2 9309   9.073   1.104   3.576
 3023WAT      O 9310   8.001   2.485   1.197
 3023WAT     H1 9311   8.044   2.570   1.167
 3023WAT     H2 9312   8.028   2.465   1.291
 3024WAT      O 9313   4.256   8.256   4.869
 3024WAT     H1 9314   4.346   8.288   4.840
 3024WAT     H2 9315   4.201   8.233   4.788
 3025WAT      O 9316   9.743   0.286   9.818
 3025WAT     H1 9317   9.655   0.324   9.847
 3025WAT     H2 9318   9.815   0.355   9.831
 3026WAT      O 9319   6.614   6.468   2.541
 3026WAT     H1 9320   6.549   6.440   2.613
 3026WAT     H2 9321   6.633   6.390   2.481
 3027WAT      O 9322   7.789   6.687   3.196
 3027WAT     H1 9323   7.721   6.761   3.199
 3027WAT     H2 9324   7.847   6.692   3.277
 3028WAT      O 9325   6.685   6.383   3.763
 3028WAT     H1 9326   6.611   6.331   3.721
 3028WAT     H2 9327   6.648   6.463   3.809
 3029WAT      O 9328   2.811   8.717   9.584
 3029WAT     H1 9329   2.729   8.667   9.558
 3029WAT     H2 9330   2.889   8.654   9.585
 3030WAT      O 9331   1.569   7.899   8.490
 3030WAT     H1 9332   1.655   7.892   8.540
 3030WAT     H2 9333   1.586   7.892   8.392
 3031WAT      O 9334   6.016   4.397   4.107
 3031WAT     H1 9335   5.949   4.387   4.033
 3031WAT     H2 9336   5.995   4.479   4.160
 3032WAT      O 9337   2.188   8.992   0.564
 3032WAT     H1 9338   2.231   8.957   0.647
 3032WAT     H2 9339   2.101   8.946   0.550
 3033WAT      O 9340   2.492   0.460   6.572
 3033WAT     H1 9341   2.444   0.525   6.513
 3033WAT     H2 9342   2.428   0.420   6.637
 3034WAT      O 9343   7.311   3.986   7.071
 3034WAT     H1 9344   7.262   4.067   7.102
 3034WAT     H2 9345   7.269   3.904   7.110
 3035WAT      O 9346   0.902   5.131   6.047
 3035WAT     H1 9347   0.926   5.061   6.114
 3035WAT     H2 9348   0.981   5.189   6.030
 3036WAT      O 9349   2.491   2.289   0.991
 3036WAT     H1 9350   2.543   2.206   0.966
 3036WAT     H2 9351   2.474   2.343   0.909
 3037WAT      O 9352   9.135   5.213   8.848
 3037WAT     H1 9353   9.058   5.150   8.853
 3037WAT     H2 9354   9.106   5.298   8.804
 3038WAT      O 9355   6.198   1.476   2.202
 3038WAT     H1 9356   6.167   1.495   2.109
 3038WAT     H2 9357   6.125   1.429   2.253
 3039WAT      O 9358   7.404   0.123   0.884
 3039WAT     H1 9359   7.373   0.083   0.970
 3039WAT     H2 9360   7.361   0.076   0.808
 3040WAT      O 9361   5.601   1.581   6.593
 3040WAT     H1 9362   5.681   1.591   6.653
 3040WAT     H2 9363   5.632   1.551   6.503
 3041WAT      O 9364   9.424   1.057   0.969
 3041WAT     H1 9365   9.334   1.027   1.001
 3041WAT     H2 9366   9.416   1.093   0.876
 3042WAT      O 9367   3.171   4.580   9.194
 3042WAT     H1 9368   3.242   4.525   9.238
 3042WAT     H2 9369   3.202   4.608   9.103
 3043WAT      O 9370   0.744   6.014   2.676
 3043WAT     H1 9371   0.810   6.059   2.615
 3043WAT     H2 9372   0.720   5.925   2.639
 3044WAT      O 9373   7.081   4.842   6.283
 3044WAT     H1 9374   7.111   4.871   6.192
 3044WAT     H2 9375   7.154   4.791   6.328
 3045WAT      O 9376   2.576   5.764   4.338
 3045WAT     H1 9377   2.578   5.801   4.245
 3045WAT     H2 9378   2.496   5.800   4.386
 3046WAT      O 9379   4.296   9.582   0.263
 3046WAT     H1 9380   4.268   9.667   0.218
 3046WAT     H2 9381   4.277   9.504   0.202
 3047WAT      O 9382   3.249   1.986   3.501
 3047WAT     H1 9383   3.221   1.891   3.514
 3047WAT     H2 9384   3.348   1.991   3.495
 3048WAT      O 9385   8.223   7.960   3.238
 3048WAT     H1 9386   8.291   8.034   3.234
 3048WAT     H2 9387   8.133   7.998   3.259
 3049WAT      O 9388   0.309   6.308   3.218
 3049WAT     H1 9389   0.379   6.284   3.150
 3049WAT     H2 9390   0.322   6.253   3.300
 3050WAT      O 9391   9.247   4.954   3.092
 3050WAT     H1 9392   9.284   5.014   3.021
 3050WAT     H2 9393   9.248   4.859   3.059
 3051WAT      O 9394   5.260   7.921   3.852
 3051WAT     H1 9395   5.322   7.933   3.774
 3051WAT     H2 9396   5.268   7.999   3.913
 3052WAT      O 9397   6.546   6.615   3.859
 3052WAT     H1 9398   6.628   6.672   3.861
 3052WAT     H2 9399   6.465   6.673   3.861
 3053WAT      O 9400   5.830   5.443   9.448
 3053WAT     H1 9401   5.811   5.527   9.499
 3053WAT     H2 9402   5.913   5.400   9.485
 3054WAT      O 9403   6.790   2.818   0.406
 3054WAT     H1 9404   6.742   2.730   0.414
 3054WAT     H2 9405   6.838   2.837   0.491
 3055WAT      O 9406   5.942   0.573   8.936
 3055WAT     H1 9407   6.025   0.527   8.905
 3055WAT     H2 9408   5.865   0.509   8.929
 3056WAT      O 9409   6.173   1.699   4.225
 3056WAT     H1 9410   6.110   1.700   4.148
 3056WAT     H2 9411   6.169   1.787   4.273
 3057WAT      O 9412   9.714   5.120   1.730
 3057WAT     H1 9413   9.778   5.195   1.745
 3057WAT     H2 9414   9.711   5.097   1.633
 3058WAT      O 9415   9.395   1.854   6.525
 3058WAT     H1 9416   9.352   1.779   6.573
 3058WAT     H2 9417   9.365   1.941   6.564
 3059WAT      O 9418   0.227   4.955   7.738
 3059WAT     H1 9419   0.252   5.045   7.705
 3059WAT     H2 9420   0.129   4.939   7.722
 3060WAT      O 9421   2.793   5.988   0.717
 3060WAT     H1 9422   2.854   6.067   0.720
 3060WAT     H2 9423   2.838   5.914   0.667
 3061WAT      O 9424   2.957   7.066   1.890
 3061WAT     H1 9425   2.864   7.048   1.924
 3061WAT     H2 9426   2.954   7.076   1.790
 3062WAT      O 9427   6.553   6.014   2.235
 3062WAT     H1 9428   6.627   5.960   2.276
 3062WAT     H2 9429   6.476   5.954   2.215
 3063WAT      O 9430   3.342   8.623   4.613
 3063WAT     H1 9431   3.416   8.596   4.551
 3063WAT     H2 9432   3.381   8.653   4.701
 3064WAT      O 9433   4.376   7.142   7.347
 3064WAT     H1 9434   4.326   7.224   7.319
 3064WAT     H2 9435   4.392   7.084   7.268
 3065WAT      O 9436   1.240   0.840   1.472
 3065WAT     H1 9437   1.224   0.774   1.399
 3065WAT     H2 9438   1.299   0.914   1.437
 3066WAT      O 9439   8.570   6.241   8.560
 3066WAT     H1 9440   8.504   6.259   8.488
 3066WAT     H2 9441   8.663   6.247   8.523
 3067WAT      O 9442   1.937   0.201   6.054
 3067WAT     H1 9443   2.004   0.275   6.046
 3067WAT     H2 9444   1.968   0.135   6.122
 3068WAT      O 9445   8.642   8.643   5.230
 3068WAT     H1 9446   8.698   8.611   5.307
 3068WAT     H2 9447   8.647   8.743   5.225
 3069WAT      O 9448   5.602   6.475   5.532
 3069WAT     H1 9449   5.527   6.441   5.475
 3069WAT     H2 9450   5.686   6.480   5.477
 3070WAT      O 9451   0.387   1.853   6.548
 3070WAT     H1 9452   0.407   1.947   6.572
 3070WAT     H2 9453   0.445   1.825   6.472
 3071WAT      O 9454   1.053   7.057   3.094
 3071WAT     H1 9455   1.092   6.973   3.056
 3071WAT     H2 9456   1.117   7.095   3.161
 3072WAT      O 9457   6.420   7.852   4.764
 3072WAT     H1 9458   6.429   7.755   4.742
 3072WAT     H2 9459   6.489   7.904   4.714
 3073WAT      O 9460   5.220   4.100   7.856
 3073WAT     H1 9461   5.188   4.120   7.764
 3073WAT     H2 9462   5.152   4.043   7.903
 3074WAT      O 9463   2.864   5.227   0.854
 3074WAT     H1 9464   2.800   5.208   0.780
 3074WAT     H2 9465   2.933   5.294   0.824
 3075WAT      O 9466   8.505   7.283   1.275
 3075WAT     H1 9467   8.415   7.308   1.312
 3075WAT     H2 9468   8.577   7.322   1.333
 3076WAT      O 9469   0.813   1.499   4.983
 3076WAT     H1 9470   0.817   1.490   4.883
 3076WAT     H2 9471   0.723   1.470   5.016
 3077WAT      O 9472   5.681   7.357   2.541
 3077WAT     H1 9473   5.586   7.325   2.543
 3077WAT     H2 9474   5.742   7.278   2.547
 3078WAT      O 9475   9.711   4.232   5.706
 3078WAT     H1 9476   9.740   4.144   5.743
 3078WAT     H2 9477   9.753   4.247   5.617
 3079WAT      O 9478   1.455   6.345   9.878
 3079WAT     H1 9479   1.543   6.322   9.918
 3079WAT     H2 9480   1.461   6.436   9.836
 3080WAT      O 9481   2.584   7.484   4.123
 3080WAT     H1 9482   2.627   7.395   4.140
 3080WAT     H2 9483   2.636   7.533   4.053
 3081WAT      O 9484   6.463   4.455   3.623
 3081WAT     H1 9485   6.439   4.546   3.590
 3081WAT     H2 9486   6.469   4.456   3.723
 3082WAT      O 9487   7.744   6.872   5.425
 3082WAT     H1 9488   7.697   6.892   5.510
 3082WAT     H2 9489   7.749   6.954   5.368
 3083WAT      O 9490   5.032   8.668   3.815
 3083WAT     H1 9491   5.067   8.758   3.840
 3083WAT     H2 9492   4.939   8.677   3.779
 3084WAT      O 9493   5.661   1.169   4.358
 3084WAT     H1 9494   5.652   1.234   4.282
 3084WAT     H2 9495   5.588   1.101   4.352
 3085WAT      O 9496   3.124   5.587   7.965
 3085WAT     H1 9497   3.151   5.616   8.056
 3085WAT     H2 9498   3.037   5.538   7.970
 3086WAT      O 9499   0.323   3.680   2.448
 3086WAT     H1 9500   0.412   3.724   2.433
 3086WAT     H2 9501   0.278   3.721   2.527
 3087WAT      O 9502   6.395   9.230   2.442
 3087WAT     H1 9503   6.302   9.210   2.472
 3087WAT     H2 9504   6.445   9.275   2.516
 3088WAT      O 9505   7.570   0.180   9.374
 3088WAT     H1 9506   7.577   0.170   9.274
 3088WAT     H2 9507   7.509   0.256   9.395
 3089WAT      O 9508   3.106   3.956   5.134
 3089WAT     H1 9509   3.175   4.005   5.187
 3089WAT     H2 9510   3.042   4.021   5.093
 3090WAT      O 9511   4.280   0.685   8.656
 3090WAT     H1 9512   4.327   0.599   8.677
 3090WAT     H2 9513   4.185   0.666   8.633
 3091WAT      O 9514   0.011   6.801   2.938
 3091WAT     H1 9515   0.027   6.781   3.035
 3091WAT     H2 9516  -0.073   6.856   2.929
 3092WAT      O 9517   2.889   7.507   1.131
 3092WAT     H1 9518   2.927   7.419   1.160
 3092WAT     H2 9519   2.961   7.561   1.086
 3093WAT      O 9520   7.608   3.069   4.836
 3093WAT     H1 9521   7.618   3.162   4.871
 3093WAT     H2 9522   7.566   3.011   4.906
 3094WAT      O 9523   9.318   1.478   8.921
 3094WAT     H1 9524   9.327   1.380   8.901
 3094WAT     H2 9525   9.259   1.490   9.001
 3095WAT      O 9526   7.320   1.682   2.600
 3095WAT     H1 9527   7.384   1.757   2.621
 3095WAT     H2 9528   7.364   1.594   2.620
 3096WAT      O 9529   7.948   2.774   3.392
 3096WAT     H1 9530   7.951   2.819   3.481
 3096WAT     H2 9531   8.005   2.691   3.394
 3097WAT      O 9532   1.566   7.312   2.922
 3097WAT     H1 9533   1.628   7.252   2.973
 3097WAT     H2 9534   1.476   7.268   2.915
 3098WAT      O 9535   2.570   5.487   0.584
 3098WAT     H1 9536   2.624   5.413   0.544
 3098WAT     H2 9537   2.620   5.525   0.662
 3099WAT      O 9538   7.599   7.825   6.328
 3099WAT     H1 9539   7.577   7.785   6.239
 3099WAT     H2 9540   7.539   7.904   6.345
 3100WAT      O 9541   7.550   0.240   9.089
 3100WAT     H1 9542   7.454   0.242   9.061
 3100WAT     H2 9543   7.607   0.213   9.011
 3101WAT      O 9544   4.281   4.416   1.931
 3101WAT     H1 9545   4.262   4.423   1.833
 3101WAT     H2 9546   4.196   4.396   1.980
 3102WAT      O 9547   6.440   1.142   2.593
 3102WAT     H1 9548   6.540   1.137   2.603
 3102WAT     H2 9549   6.418   1.207   2.520
 3103WAT      O 9550   9.046   5.531   3.329
 3103WAT     H1 9551   8.991   5.613   3.311
 3103WAT     H2 9552   9.118   5.525   3.259
 3104WAT      O 9553   9.216   3.141   5.877
 3104WAT     H1 9554   9.143   3.107   5.818
 3104WAT     H2 9555   9.243   3.069   5.941
 3105WAT      O 9556   9.633   7.444   7.216
 3105WAT     H1 9557   9.637   7.420   7.313
 3105WAT     H2 9558   9.708   7.400   7.168
 3106WAT      O 9559   5.256   9.717   4.195
 3106WAT     H1 9560   5.294   9.761   4.114
 3106WAT     H2 9561   5.166   9.756   4.215
 3107WAT      O 9562   2.043   3.759   1.217
 3107WAT     H1 9563   1.982   3.695   1.170
 3107WAT     H2 9564   2.112   3.708   1.268
 3108WAT      O 9565   7.310   8.429   6.291
 3108WAT     H1 9566   7.283   8.469   6.203
 3108WAT     H2 9567   7.394   8.375   6.279
 3109WAT      O 9568   6.114   3.821   5.664
 3109WAT     H1 9569   6.087   3.822   5.760
 3109WAT     H2 9570   6.181   3.894   5.647
 3110WAT      O 9571   0.497   4.082   7.565
 3110WAT     H1 9572   0.400   4.090   7.540
 3110WAT     H2 9573   0.509   4.110   7.660
 3111WAT      O 9574   8.695   0.922   2.834
 3111WAT     H1 9575   8.771   0.969   2.790
 3111WAT     H2 9576   8.684   0.956   2.927
 3112WAT      O 9577   1.941   4.077   9.078
 3112WAT     H1 9578   1.908   4.168   9.106
 3112WAT     H2 9579   1.928   4.013   9.153
 3113WAT      O 9580   0.475   4.782   6.851
 3113WAT     H1 9581   0.455   4.700   6.906
 3113WAT     H2 9582   0.481   4.861   6.912
 3114WAT      O 9583   0.242   0.470   3.013
 3114WAT     H1 9584   0.206   0.511   3.096
 3114WAT     H2 9585   0.263   0.374   3.029
 3115WAT      O 9586   3.091   5.449   2.337
 3115WAT     H1 9587   3.113   5.546   2.330
 3115WAT     H2 9588   3.159   5.403   2.395
 3116WAT      O 9589   8.709   3.775   6.779
 3116WAT     H1 9590   8.727   3.809   6.871
 3116WAT     H2 9591   8.748   3.683   6.769
 3117WAT      O 9592   6.264   2.980   5.628
 3117WAT     H1 9593   6.338   3.010   5.688
 3117WAT     H2 9594   6.225   2.896   5.663
 3118WAT      O 9595   0.043   1.495   0.696
 3118WAT     H1 9596   0.094   1.560   0.753
 3118WAT     H2 9597  -0.001   1.427   0.755
 3119WAT      O 9598   5.134   4.410   1.537
 3119WAT     H1 9599   5.035   4.396   1.526
 3119WAT     H2 9600   5.150   4.503   1.571
 3120WAT      O 9601   6.696   0.513   1.194
 3120WAT     H1 9602   6.700   0.529   1.095
 3120WAT     H2 9603   6.787   0.528   1.233
 3121WAT      O 9604   2.093   3.104   1.014
 3121WAT     H1 9605   2.034   3.171   1.060
 3121WAT     H2 9606   2.036   3.040   0.962
 3122WAT      O 9607   5.072   1.904   6.001
 3122WAT     H1 9608   5.101   1.835   6.068
 3122WAT     H2 9609   5.102   1.876   5.910
 3123WAT      O 9610   7.435   2.133   8.084
 3123WAT     H1 9611   7.426   2.063   8.013
 3123WAT     H2 9612   7.394   2.219   8.052
 3124WAT      O 9613   8.944   8.312   0.743
 3124WAT     H1 9614   9.036   8.352   0.737
 3124WAT     H2 9615   8.950   8.218   0.776
 3125WAT      O 9616   6.907   6.613   9.167
 3125WAT     H1 9617   6.880   6.687   9.106
 3125WAT     H2 9618   6.891   6.640   9.262
 3126WAT      O 9619   7.350   8.617   3.832
 3126WAT     H1 9620   7.373   8.665   3.747
 3126WAT     H2 9621   7.313   8.682   3.898
 3127WAT      O 9622   9.678   5.294   6.811
 3127WAT     H1 9623   9.740   5.329   6.881
 3127WAT     H2 9624   9.717   5.211   6.770
 3128WAT      O 9625   0.250   0.287   2.602
 3128WAT     H1 9626   0.261   0.373   2.652
 3128WAT     H2 9627   0.292   0.213   2.654
 3129WAT      O 9628   9.321   7.144   4.172
 3129WAT     H1 9629   9.259   7.083   4.122
 3129WAT     H2 9630   9.356   7.213   4.109
 3130WAT      O 9631   0.486   2.920   0.597
 3130WAT     H1 9632   0.485   2.844   0.532
 3130WAT     H2 9633   0.498   3.006   0.546
 3131WAT      O 9634   6.913   2.574   0.630
 3131WAT     H1 9635   6.976   2.638   0.585
 3131WAT     H2 9636   6.912   2.488   0.580
 3132WAT      O 9637   2.137   0.003   1.002
 3132WAT     H1 9638   2.213   0.062   1.031
 3132WAT     H2 9639   2.153  -0.089   1.036
 3133WAT      O 9640   4.910   3.856   3.021
 3133WAT     H1 9641   4.958   3.785   3.073
 3133WAT     H2 9642   4.970   3.936   3.012
 3134WAT      O 9643   6.440   8.915   6.128
 3134WAT     H1 9644   6.390   8.829   6.132
 3134WAT     H2 9645   6.461   8.946   6.221
 3135WAT      O 9646   4.281   5.563   5.683
 3135WAT     H1 9647   4.379   5.543   5.690
 3135WAT     H2 9648   4.255   5.571   5.587
 3136WAT      O 9649   4.362   8.130   4.201
 3136WAT     H1 9650   4.425   8.169   4.133
 3136WAT     H2 9651   4.320   8.204   4.254
 3137WAT      O 9652   7.216   3.121   6.210
 3137WAT     H1 9653   7.274   3.040   6.208
 3137WAT     H2 9654   7.159   3.123   6.129
 3138WAT      O 9655   6.863   4.890   1.429
 3138WAT     H1 9656   6.936   4.858   1.491
 3138WAT     H2 9657   6.784   4.830   1.438
 3139WAT      O 9658   2.579   9.309   2.048
 3139WAT     H1 9659   2.627   9.394   2.029
 3139WAT     H2 9660   2.606   9.274   2.138
 3140WAT      O 9661   6.318   7.715   3.660
 3140WAT     H1 9662   6.311   7.767   3.575
 3140WAT     H2 9663   6.374   7.766   3.726
 3141WAT      O 9664   8.234   7.088   4.438
 3141WAT     H1 9665   8.174   7.090   4.518
 3141WAT     H2 9666   8.179   7.087   4.355
 3142WAT      O 9667   0.100   0.696   5.770
 3142WAT     H1 9668   0.009   0.670   5.738
 3142WAT     H2 9669   0.169   0.653   5.712
 3143WAT      O 9670   5.936   2.541   9.493
 3143WAT     H1 9671   5.958   2.611   9.425
 3143WAT     H2 9672   5.930   2.583   9.583
 3144WAT      O 9673   1.460   7.188   3.934
 3144WAT     H1 9674   1.434   7.164   4.028
 3144WAT     H2 9675   1.559   7.196   3.927
 3145WAT      O 9676   6.085   2.763   7.344
 3145WAT     H1 9677   5.989   2.736   7.339
 3145WAT     H2 9678   6.107   2.822   7.266
 3146WAT      O 9679   3.958   0.701   1.777
 3146WAT     H1 9680   3.906   0.760   1.839
 3146WAT     H2 9681   4.042   0.748   1.749
 3147WAT      O 9682   7.711   3.390   6.828
 3147WAT     H1 9683   7.750   3.299   6.821
 3147WAT     H2 9684   7.714   3.421   6.923
 3148WAT      O 9685   0.725   0.193   0.928
 3148WAT     H1 9686   0.815   0.151   0.934
 3148WAT     H2 9687   0.655   0.121   0.933
 3149WAT      O 9688   9.649   6.521   3.901
 3149WAT     H1 9689   9.598   6.475   3.974
 3149WAT     H2 9690   9.584   6.559   3.834
 3150WAT      O 9691   6.823   8.780   2.595
 3150WAT     H1 9692   6.747   8.802   2.655
 3150WAT     H2 9693   6.863   8.864   2.558
 3151WAT      O 9694   0.463   8.852   3.842
 3151WAT     H1 9695   0.441   8.884   3.934
 3151WAT     H2 9696   0.560   8.869   3.822
 3152WAT      O 9697   6.201   7.748   2.207
 3152WAT     H1 9698   6.273   7.697   2.160
 3152WAT     H2 9699   6.238   7.832   2.246
 3153WAT      O 9700   2.096   1.698   9.025
 3153WAT     H1 9701   2.038   1.617   9.027
 3153WAT     H2 9702   2.092   1.745   9.113
 3154WAT      O 9703   5.824   2.455   0.056
 3154WAT     H1 9704   5.862   2.407   0.135
 3154WAT     H2 9705   5.894   2.514   0.015
 3155WAT      O 9706   1.606   7.420   7.889
 3155WAT     H1 9707   1.675   7.448   7.823
 3155WAT     H2 9708   1.516   7.418   7.846
 3156WAT      O 9709   4.757   8.145   5.223
 3156WAT     H1 9710   4.663   8.126   5.195
 3156WAT     H2 9711   4.783   8.083   5.297
 3157WAT      O 9712   1.377   5.209   9.062
 3157WAT     H1 9713   1.414   5.301   9.061
 3157WAT     H2 9714   1.438   5.148   9.113
 3158WAT      O 9715   8.054   1.204   8.444
 3158WAT     H1 9716   8.103   1.267   8.504
 3158WAT     H2 9717   8.100   1.115   8.445
 3159WAT      O 9718   5.349   7.128   4.361
 3159WAT     H1 9719   5.260   7.081   4.360
 3159WAT     H2 9720   5.334   7.226   4.350
 3160WAT      O 9721   0.777   7.210   9.866
 3160WAT     H1 9722   0.730   7.293   9.894
 3160WAT     H2 9723   0.720   7.160   9.801
 3161WAT      O 9724   0.540   6.401   1.872
 3161WAT     H1 9725   0.588   6.426   1.788
 3161WAT     H2 9726   0.603   6.353   1.933
 3162WAT      O 9727   3.823   9.124   7.666
 3162WAT     H1 9728   3.795   9.182   7.590
 3162WAT     H2 9729   3.777   9.036   7.660
 3163WAT      O 9730   4.682   5.473   5.153
 3163WAT     H1 9731   4.752   5.531   5.112
 3163WAT     H2 9732   4.720   5.428   5.234
 3164WAT      O 9733   2.277   8.798   6.578
 3164WAT     H1 9734   2.274   8.722   6.643
 3164WAT     H2 9735   2.365   8.798   6.531
 3165WAT      O 9736   6.063   4.242   5.515
 3165WAT     H1 9737   5.977   4.222   5.469
 3165WAT     H2 9738   6.048   4.311   5.586
 3166WAT      O 9739   3.963   9.047   1.452
 3166WAT     H1 9740   3.901   9.049   1.530
 3166WAT     H2 9741   4.052   9.013   1.482
 3167WAT      O 9742   2.119   8.692   5.322
 3167WAT     H1 9743   2.068   8.619   5.276
 3167WAT     H2 9744   2.073   8.716   5.407
 3168WAT      O 9745   2.109   0.434   7.500
 3168WAT     H1 9746   2.169   0.381   7.440
 3168WAT     H2 9747   2.030   0.466   7.448
 3169WAT      O 9748   4.426   6.824   5.335
 3169WAT     H1 9749   4.420   6.824   5.235
 3169WAT     H2 9750   4.343   6.784   5.373
 3170WAT      O 9751   1.971   2.955   8.584
 3170WAT     H1 9752   1.960   2.872   8.638
 3170WAT     H2 9753   1.955   3.035   8.642
 3171WAT      O 9754   2.977   6.658   4.609
 3171WAT     H1 9755   3.052   6.612   4.563
 3171WAT     H2 9756   3.011   6.707   4.689
 3172WAT      O 9757   4.879   0.139   4.827
 3172WAT     H1 9758   4.814   0.159   4.901
 3172WAT     H2 9759   4.874   0.042   4.804
 3173WAT      O 9760   1.801   3.530   8.761
 3173WAT     H1 9761   1.763   3.623   8.763
 3173WAT     H2 9762   1.746   3.473   8.701
 3174WAT      O 9763   8.886   1.649   7.654
 3174WAT     H1 9764   8.885   1.653   7.555
 3174WAT     H2 9765   8.924   1.562   7.684
 3175WAT      O 9766   5.212   4.046   6.469
 3175WAT     H1 9767   5.307   4.044   6.499
 3175WAT     H2 9768   5.206   4.093   6.381
 3176WAT      O 9769   9.351   4.972   6.833
 3176WAT     H1 9770   9.299   4.897   6.875
 3176WAT     H2 9771   9.425   4.934   6.776
 3177WAT      O 9772   2.680   2.765   2.204
 3177WAT     H1 9773   2.736   2.822   2.264
 3177WAT     H2 9774   2.645   2.686   2.254
 3178WAT      O 9775   1.503   5.342   6.025
 3178WAT     H1 9776   1.473   5.436   6.039
 3178WAT     H2 9777   1.539   5.331   5.933
 3179WAT      O 9778   9.848   5.371   8.081
 3179WAT     H1 9779   9.868   5.321   7.997
 3179WAT     H2 9780   9.884   5.322   8.160
 3180WAT      O 9781   3.883   8.797   6.686
 3180WAT     H1 9782   3.874   8.890   6.723
 3180WAT     H2 9783   3.825   8.735   6.738
 3181WAT      O 9784   8.312   5.642   7.877
 3181WAT     H1 9785   8.315   5.680   7.970
 3181WAT     H2 9786   8.402   5.648   7.835
 3182WAT      O 9787   9.349   3.575   0.377
 3182WAT     H1 9788   9.276   3.543   0.437
 3182WAT     H2 9789   9.331   3.544   0.284
 3183WAT      O 9790   4.465   7.834   6.221
 3183WAT     H1 9791   4.522   7.794   6.149
 3183WAT     H2 9792   4.445   7.764   6.290
 3184WAT      O 9793   7.999   7.071   2.661
 3184WAT     H1 9794   7.984   7.166   2.686
 3184WAT     H2 9795   7.928   7.014   2.703
 3185WAT      O 9796   0.325   8.663   9.365
 3185WAT     H1 9797   0.313   8.673   9.464
 3185WAT     H2 9798   0.281   8.739   9.319
 3186WAT      O 9799   6.174   6.534   5.539
 3186WAT     H1 9800   6.200   6.622   5.500
 3186WAT     H2 9801   6.255   6.488   5.575
 3187WAT      O 9802   3.462   5.889   2.053
 3187WAT     H1 9803   3.443   5.820   1.984
 3187WAT     H2 9804   3.506   5.846   2.132
 3188WAT      O 9805   0.146   5.138   7.424
 3188WAT     H1 9806   0.231   5.103   7.386
 3188WAT     H2 9807   0.075   5.069   7.417
 3189WAT      O 9808   0.189   6.864   9.618
 3189WAT     H1 9809   0.138   6.943   9.651
 3189WAT     H2 9810   0.126   6.788   9.602
 3190WAT      O 9811   5.215   8.874   6.766
 3190WAT     H1 9812   5.121   8.843   6.756
 3190WAT     H2 9813   5.242   8.871   6.863
 3191WAT      O 9814   1.026   1.974   3.568
 3191WAT     H1 9815   1.021   2.062   3.616
 3191WAT     H2 9816   1.098   1.977   3.499
 3192WAT      O 9817   7.438   4.030   7.495
 3192WAT     H1 9818   7.461   4.087   7.573
 3192WAT     H2 9819   7.369   4.075   7.438
 3193WAT      O 9820   3.533   9.805   4.605
 3193WAT     H1 9821   3.523   9.731   4.538
 3193WAT     H2 9822   3.629   9.814   4.630
 3194WAT      O 9823   2.333   1.921   0.810
 3194WAT     H1 9824   2.283   1.964   0.886
 3194WAT     H2 9825   2.273   1.915   0.730
 3195WAT      O 9826   5.229   8.410   8.215
 3195WAT     H1 9827   5.201   8.465   8.136
 3195WAT     H2 9828   5.306   8.455   8.261
 3196WAT      O 9829   6.212   0.909   5.563
 3196WAT     H1 9830   6.170   0.956   5.640
 3196WAT     H2 9831   6.240   0.817   5.591
 3197WAT      O 9832   8.692   1.317   5.712
 3197WAT     H1 9833   8.615   1.255   5.727
 3197WAT     H2 9834   8.755   1.277   5.645
 3198WAT      O 9835   6.856   9.055   8.042
 3198WAT     H1 9836   6.932   9.088   8.099
 3198WAT     H2 9837   6.772   9.055   8.095
 3199WAT      O 9838   5.214   1.717   8.348
 3199WAT     H1 9839   5.229   1.691   8.253
 3199WAT     H2 9840   5.271   1.661   8.408
 3200WAT      O 9841   5.895   3.990   6.261
 3200WAT     H1 9842   5.940   4.043   6.188
 3200WAT     H2 9843   5.963   3.966   6.331
 3201WAT      O 9844   5.009   2.731   7.037
 3201WAT     H1 9845   4.913   2.741   7.065
 3201WAT     H2 9846   5.063   2.805   7.077
 3202WAT      O 9847   8.301   7.775   4.084
 3202WAT     H1 9848   8.343   7.862   4.057
 3202WAT     H2 9849   8.333   7.750   4.176
 3203WAT      O 9850   7.377   2.272   0.734
 3203WAT     H1 9851   7.357   2.174   0.740
 3203WAT     H2 9852   7.464   2.291   0.779
 3204WAT      O 9853   1.611   4.675   0.925
 3204WAT     H1 9854   1.699   4.631   0.906
 3204WAT     H2 9855   1.627   4.763   0.970
 3205WAT      O 9856   3.532   9.657   5.971
 3205WAT     H1 9857   3.574   9.568   5.990
 3205WAT     H2 9858   3.434   9.645   5.958
 3206WAT      O 9859   9.314   3.548   6.731
 3206WAT     H1 9860   9.304   3.560   6.632
 3206WAT     H2 9861   9.335   3.635   6.774
 3207WAT      O 9862   1.323   4.185   1.429
 3207WAT     H1 9863   1.357   4.253   1.365
 3207WAT     H2 9864   1.289   4.106   1.379
 3208WAT      O 9865   0.220   5.253   5.661
 3208WAT     H1 9866   0.164   5.170   5.653
 3208WAT     H2 9867   0.265   5.271   5.574
 3209WAT      O 9868   7.613   5.913   9.671
 3209WAT     H1 9869   7.665   5.958   9.599
 3209WAT     H2 9870   7.654   5.934   9.760
 3210WAT      O 9871   6.587   8.813   2.190
 3210WAT     H1 9872   6.584   8.904   2.231
 3210WAT     H2 9873   6.498   8.791   2.150
 3211WAT      O 9874   2.252   2.071   8.066
 3211WAT     H1 9875   2.297   2.009   8.002
 3211WAT     H2 9876   2.211   2.018   8.140
 3212WAT      O 9877   7.740   7.164   2.235
 3212WAT     H1 9878   7.768   7.126   2.147
 3212WAT     H2 9879   7.675   7.101   2.279
 3213WAT      O 9880   0.484   3.024   3.649
 3213WAT     H1 9881   0.401   2.976   3.619
 3213WAT     H2 9882   0.461   3.084   3.726
 3214WAT      O 9883   1.950   0.448   5.836
 3214WAT     H1 9884   1.878   0.455   5.767
 3214WAT     H2 9885   1.919   0.491   5.921
 3215WAT      O 9886   5.617   3.535   3.430
 3215WAT     H1 9887   5.537   3.583   3.466
 3215WAT     H2 9888   5.627   3.447   3.476
 3216WAT      O 9889   2.887   8.981   2.161
 3216WAT     H1 9890   2.801   8.932   2.171
 3216WAT     H2 9891   2.959   8.933   2.212
 3217WAT      O 9892   2.209   2.776   4.903
 3217WAT     H1 9893   2.287   2.722   4.871
 3217WAT     H2 9894   2.196   2.760   5.001
 3218WAT      O 9895   7.979   1.948   0.658
 3218WAT     H1 9896   7.992   1.863   0.607
 3218WAT     H2 9897   8.067   1.992   0.673
 3219WAT      O 9898   6.498   4.818   5.019
 3219WAT     H1 9899   6.409   4.773   5.013
 3219WAT     H2 9900   6.541   4.819   4.928
 3220WAT      O 9901   8.741   0.301   7.548
 3220WAT     H1 9902   8.665   0.337   7.603
 3220WAT     H2 9903   8.720   0.208   7.519
 3221WAT      O 9904   4.675   1.231   7.117
 3221WAT     H1 9905   4.735   1.158   7.149
 3221WAT     H2 9906   4.630   1.203   7.033
 3222WAT      O 9907   4.300   5.244   9.853
 3222WAT     H1 9908   4.273   5.189   9.932
 3222WAT     H2 9909   4.400   5.251   9.851
 3223WAT      O 9910   7.931   2.959   3.094
 3223WAT     H1 9911   7.898   2.908   3.175
 3223WAT     H2 9912   7.866   2.946   3.019
 3224WAT      O 9913   5.181   1.405   0.167
 3224WAT     H1 9914   5.264   1.456   0.189
 3224WAT     H2 9915   5.136   1.446   0.088
 3225WAT      O 9916   2.818   1.659   3.747
 3225WAT     H1 9917   2.805   1.562   3.763
 3225WAT     H2 9918   2.823   1.708   3.834
 3226WAT      O 9919   3.247   8.079   4.092
 3226WAT     H1 9920   3.333   8.028   4.082
 3226WAT     H2 9921   3.260   8.172   4.058
 3227WAT      O 9922   2.113   2.530   2.841
 3227WAT     H1 9923   2.139   2.470   2.917
 3227WAT     H2 9924   2.017   2.514   2.817
 3228WAT      O 9925   0.330   1.428   8.459
 3228WAT     H1 9926   0.416   1.409   8.505
 3228WAT     H2 9927   0.334   1.393   8.365
 3229WAT      O 9928   0.024   5.679   5.397
 3229WAT     H1 9929   0.077   5.740   5.339
 3229WAT     H2 9930  -0.027   5.733   5.465
 3230WAT      O 9931   1.797   0.669   5.547
 3230WAT     H1 9932   1.776   0.609   5.624
 3230WAT     H2 9933   1.886   0.644   5.509
 3231WAT      O 9934   1.805   0.262   2.848
 3231WAT     H1 9935   1.872   0.191   2.870
 3231WAT     H2 9936   1.847   0.330   2.788
 3232WAT      O 9937   0.547   2.834   6.653
 3232WAT     H1 9938   0.494   2.866   6.731
 3232WAT     H2 9939   0.640   2.868   6.660
 3233WAT      O 9940   1.089   6.234   8.508
 3233WAT     H1 9941   1.164   6.298   8.524
 3233WAT     H2 9942   1.015   6.280   8.459
 3234WAT      O 9943   5.029   3.568   8.822
 3234WAT     H1 9944   5.119   3.561   8.866
 3234WAT     H2 9945   5.027   3.509   8.741
 3235WAT      O 9946   5.679   4.087   2.161
 3235WAT     H1 9947   5.767   4.114   2.122
 3235WAT     H2 9948   5.668   3.988   2.155
 3236WAT      O 9949   9.781   3.920   5.345
 3236WAT     H1 9950   9.841   3.845   5.316
 3236WAT     H2 9951   9.761   3.911   5.442
 3237WAT      O 9952   8.508   5.616   7.683
 3237WAT     H1 9953   8.458   5.529   7.686
 3237WAT     H2 9954   8.483   5.666   7.600
 3238WAT      O 9955   9.814   4.454   6.899
 3238WAT     H1 9956   9.790   4.550   6.910
 3238WAT     H2 9957   9.796   4.406   6.985
 3239WAT      O 9958   8.862   0.821   8.078
 3239WAT     H1 9959   8.803   0.880   8.132
 3239WAT     H2 9960   8.930   0.777   8.138
 3240WAT      O 9961   1.636   0.599   1.525
 3240WAT     H1 9962   1.548   0.644   1.536
 3240WAT     H2 9963   1.626   0.501   1.543
 3241WAT      O 9964   0.010   4.502   8.917
 3241WAT     H1 9965  -0.015   4.507   9.014
 3241WAT     H2 9966   0.110   4.500   8.909
 3242WAT      O 9967   9.048   6.614   3.856
 3242WAT     H1 9968   9.121   6.577   3.914
 3242WAT     H2 9969   9.073   6.601   3.760
 3243WAT      O 9970   9.239   2.513   1.499
 3243WAT     H1 9971   9.169   2.453   1.461
 3243WAT     H2 9972   9.316   2.459   1.532
 3244WAT      O 9973   5.367   0.208   2.047
 3244WAT     H1 9974   5.451   0.170   2.009
 3244WAT     H2 9975   5.377   0.307   2.059
 3245WAT      O 9976   5.139   6.295   8.340
 3245WAT     H1 9977   5.167   6.391   8.343
 3245WAT     H2 9978   5.207   6.242   8.288
 3246WAT      O 9979   6.153   5.142   7.430
 3246WAT     H1 9980   6.203   5.225   7.455
 3246WAT     H2 9981   6.197   5.062   7.472
 3247WAT      O 9982   9.557   0.442   3.871
 3247WAT     H1 9983   9.622   0.502   3.918
 3247WAT     H2 9984   9.601   0.401   3.791
 3248WAT      O 9985   0.160   2.837   9.115
 3248WAT     H1 9986   0.166   2.868   9.020
 3248WAT     H2 9987   0.131   2.913   9.173
 3249WAT      O 9988   6.936   6.774   8.782
 3249WAT     H1 9989   6.952   6.862   8.737
 3249WAT     H2 9990   7.016   6.749   8.836
 3250WAT      O 9991   4.934   7.690   7.762
 3250WAT     H1 9992   4.889   7.778   7.780
 3250WAT     H2 9993   4.868   7.616   7.774
 3251WAT      O 9994   7.158   1.484   6.941
 3251WAT     H1 9995   7.099   1.462   6.863
 3251WAT     H2 9996   7.242   1.432   6.935
 3252WAT      O 9997   1.090   7.107   5.413
 3252WAT     H1 9998   1.147   7.100   5.495
 3252WAT     H2 9999   1.129   7.175   5.350
 3253WAT      O10000   3.860   2.594   5.849
 3253WAT     H110001   3.919   2.616   5.926
 3253WAT     H210002   3.916   2.584   5.766
 3254WAT      O10003   4.512   0.137   0.332
 3254WAT     H110004   4.467   0.197   0.267
 3254WAT     H210005   4.487   0.163   0.425
 3255WAT      O10006   5.241   5.081   0.155
 3255WAT     H110007   5.307   5.153   0.133
 3255WAT     H210008   5.182   5.111   0.230
 3256WAT      O10009   1.599   0.589   5.966
 3256WAT     H110010   1.562   0.496   5.961
 3256WAT     H210011   1.524   0.655   5.954
 3257WAT      O10012   6.003   7.494   6.773
 3257WAT     H110013   6.064   7.443   6.711
 3257WAT     H210014   5.908   7.468   6.754
 3258WAT      O10015   7.416   6.854   3.693
 3258WAT     H110016   7.474   6.897   3.624
 3258WAT     H210017   7.413   6.755   3.678
 3259WAT      O10018   9.677   1.037   7.171
 3259WAT     H110019   9.613   1.114   7.167
 3259WAT     H210020   9.769   1.071   7.154
 3260WAT      O10021   8.268   8.268   5.636
 3260WAT     H110022   8.205   8.198   5.669
 3260WAT     H210023   8.267   8.269   5.536
 3261WAT      O10024   6.083   4.507   8.071
 3261WAT     H110025   6.048   4.446   8.000
 3261WAT     H210026   6.059   4.601   8.048
 3262WAT      O10027   2.180   2.314   2.153
 3262WAT     H110028   2.230   2.401   2.148
 3262WAT     H210029   2.119   2.306   2.074
 3263WAT      O10030   0.899   8.625   8.624
 3263WAT     H110031   0.840   8.660   8.551
 3263WAT     H210032   0.844   8.573   8.689
 3264WAT      O10033   2.795   8.491   0.125
 3264WAT     H110034   2.769   8.480   0.221
 3264WAT     H210035   2.823   8.403   0.088
 3265WAT      O10036   7.371   0.050   5.885
 3265WAT     H110037   7.303  -0.023   5.898
 3265WAT     H210038   7.415   0.071   5.972
 3266WAT      O10039   8.595   2.865   6.655
 3266WAT     H110040   8.647   2.804   6.595
 3266WAT     H210041   8.505   2.883   6.614
 3267WAT      O10042   7.583   3.071   8.003
 3267WAT     H110043   7.555   2.975   7.996
 3267WAT     H210044   7.648   3.083   8.078
 3268WAT      O10045   8.287   3.981   7.172
 3268WAT     H110046   8.310   3.989   7.269
 3268WAT     H210047   8.370   3.992   7.118
 3269WAT      O10048   0.313   0.394   0.477
 3269WAT     H110049   0.380   0.407   0.549
 3269WAT     H210050   0.233   0.347   0.514
 3270WAT      O10051   1.830   4.515   7.961
 3270WAT     H110052   1.885   4.588   8.002
 3270WAT     H210053   1.733   4.532   7.980
 3271WAT      O10054   1.499   5.661   2.728
 3271WAT     H110055   1.554   5.627   2.804
 3271WAT     H210056   1.403   5.663   2.755
 3272WAT      O10057   9.233   0.713   0.032
 3272WAT     H110058   9.228   0.813   0.035
 3272WAT     H210059   9.319   0.683   0.074
 3273WAT      O10060   6.804   6.852   7.387
 3273WAT     H110061   6.757   6.887   7.468
 3273WAT     H210062   6.865   6.778   7.412
 3274WAT      O10063   1.946   5.945   4.089
 3274WAT     H110064   1.969   5.848   4.084
 3274WAT     H210065   2.001   5.990   4.159
 3275WAT      O10066   1.849   9.160   7.664
 3275WAT     H110067   1.831   9.131   7.570
 3275WAT     H210068   1.947   9.172   7.677
 3276WAT      O10069   6.462   8.673   6.302
 3276WAT     H110070   6.555   8.705   6.314
 3276WAT     H210071   6.463   8.579   6.267
 3277WAT      O10072   6.197   2.290   2.273
 3277WAT     H110073   6.112   2.241   2.289
 3277WAT     H210074   6.241   2.310   2.360
 3278WAT      O10075   0.221   0.295   1.468
 3278WAT     H110076   0.286   0.248   1.529
 3278WAT     H210077   0.148   0.232   1.442
 3279WAT      O10078   1.062   9.018   4.025
 3279WAT     H110079   1.035   8.929   4.062
 3279WAT     H210080   1.134   9.004   3.956
 3280WAT      O10081   7.363   7.744   0.907
 3280WAT     H110082   7.327   7.650   0.904
 3280WAT     H210083   7.402   7.767   0.818
 3281WAT      O10084   8.282   1.724   9.789
 3281WAT     H110085   8.276   1.633   9.829
 3281WAT     H210086   8.299   1.791   9.862
 3282WAT      O10087   4.603   3.884   7.873
 3282WAT     H110088   4.590   3.883   7.972
 3282WAT     H210089   4.529   3.936   7.830
 3283WAT      O10090   2.809   4.055   0.323
 3283WAT     H110091   2.856   4.088   0.405
 3283WAT     H210092   2.761   4.131   0.279
 3284WAT      O10093   4.998   5.177   3.661
 3284WAT     H110094   5.014   5.089   3.705
 3284WAT     H210095   4.970   5.162   3.566
 3285WAT      O10096   2.029   4.042   6.903
 3285WAT     H110097   2.110   4.081   6.859
 3285WAT     H210098   2.012   3.951   6.866
 3286WAT      O10099   5.791   0.984   9.147
 3286WAT     H110100   5.728   1.004   9.072
 3286WAT     H210101   5.845   0.902   9.126
 3287WAT      O10102   6.462   4.184   7.594
 3287WAT     H110103   6.497   4.118   7.660
 3287WAT     H210104   6.390   4.143   7.539
 3288WAT      O10105   1.689   8.963   8.548
 3288WAT     H110106   1.732   8.879   8.513
 3288WAT     H210107   1.648   9.014   8.472
 3289WAT      O10108   4.126   8.534   8.475
 3289WAT     H110109   4.217   8.575   8.463
 3289WAT     H210110   4.056   8.604   8.460
 3290WAT      O10111   5.362   3.977   2.573
 3290WAT     H110112   5.393   4.035   2.649
 3290WAT     H210113   5.273   4.011   2.540
 3291WAT      O10114   7.495   3.676   2.618
 3291WAT     H110115   7.588   3.689   2.653
 3291WAT     H210116   7.439   3.632   2.688
 3292WAT      O10117   8.629   3.605   9.494
 3292WAT     H110118   8.672   3.522   9.529
 3292WAT     H210119   8.561   3.637   9.561
 3293WAT      O10120   7.600   3.112   1.665
 3293WAT     H110121   7.616   3.210   1.650
 3293WAT     H210122   7.675   3.074   1.719
 3294WAT      O10123   3.987   5.754   3.851
 3294WAT     H110124   3.944   5.844   3.851
 3294WAT     H210125   4.065   5.755   3.914
 3295WAT      O10126   5.472   1.793   8.021
 3295WAT     H110127   5.416   1.824   7.944
 3295WAT     H210128   5.462   1.694   8.032
 3296WAT      O10129   8.325   5.412   7.608
 3296WAT     H110130   8.256   5.390   7.676
 3296WAT     H210131   8.282   5.454   7.528
 3297WAT      O10132   0.415   6.658   1.571
 3297WAT     H110133   0.365   6.690   1.491
 3297WAT     H210134   0.356   6.598   1.625
 3298WAT      O10135   9.613   3.389   5.657
 3298WAT     H110136   9.571   3.375   5.567
 3298WAT     H210137   9.575   3.471   5.699
 3299WAT      O10138   1.808   3.618   6.664
 3299WAT     H110139   1.836   3.658   6.751
 3299WAT     H210140   1.852   3.529   6.652
 3300WAT      O10141   9.017   7.067   7.051
 3300WAT     H110142   9.024   7.006   6.972
 3300WAT     H210143   9.038   7.160   7.023
 3301WAT      O10144   1.873   6.091   9.188
 3301WAT     H110145   1.905   6.130   9.274
 3301WAT     H210146   1.882   6.159   9.115
 3302WAT      O10147   8.112   6.939   9.238
 3302WAT     H110148   8.060   6.946   9.323
 3302WAT     H210149   8.065   6.990   9.166
 3303WAT      O10150   9.426   4.129   5.538
 3303WAT     H110151   9.407   4.184   5.619
 3303WAT     H210152   9.435   4.033   5.563
 3304WAT      O10153   0.911   7.465   5.123
 3304WAT     H110154   0.930   7.392   5.056
 3304WAT     H210155   0.828   7.442   5.174
 3305WAT      O10156   0.773   6.901   4.834
 3305WAT     H110157   0.869   6.876   4.824
 3305WAT     H210158   0.737   6.933   4.746
 3306WAT      O10159   2.403   7.538   9.463
 3306WAT     H110160   2.345   7.600   9.410
 3306WAT     H210161   2.498   7.569   9.456
 3307WAT      O10162   0.177   8.926   8.533
 3307WAT     H110163   0.228   8.841   8.518
 3307WAT     H210164   0.092   8.906   8.582
 3308WAT      O10165   4.234   9.231   5.126
 3308WAT     H110166   4.306   9.214   5.058
 3308WAT     H210167   4.174   9.305   5.094
 3309WAT      O10168   3.782   0.833   1.913
 3309WAT     H110169   3.838   0.843   1.995
 3309WAT     H210170   3.687   0.858   1.933
 3310WAT      O10171   8.725   2.896   9.529
 3310WAT     H110172   8.716   2.819   9.593
 3310WAT     H210173   8.803   2.878   9.468
 3311WAT      O10174   4.018   0.156   8.383
 3311WAT     H110175   4.095   0.181   8.325
 3311WAT     H210176   3.978   0.070   8.349
 3312WAT      O10177   8.250   1.824   4.851
 3312WAT     H110178   8.176   1.866   4.799
 3312WAT     H210179   8.319   1.893   4.873
 3313WAT      O10180   6.467   8.073   8.542
 3313WAT     H110181   6.422   8.092   8.454
 3313WAT     H210182   6.539   8.141   8.558
 3314WAT      O10183   2.859   4.175   6.246
 3314WAT     H110184   2.762   4.179   6.266
 3314WAT     H210185   2.911   4.215   6.322
 3315WAT      O10186   1.555   0.416   2.199
 3315WAT     H110187   1.564   0.507   2.159
 3315WAT     H210188   1.512   0.423   2.289
 3316WAT      O10189   6.447   6.881   3.235
 3316WAT     H110190   6.375   6.832   3.285
 3316WAT     H210191   6.535   6.838   3.254
 3317WAT      O10192   9.669   9.221   1.142
 3317WAT     H110193   9.674   9.122   1.154
 3317WAT     H210194   9.661   9.243   1.045
 3318WAT      O10195   0.141   2.831   4.894
 3318WAT     H110196   0.170   2.801   4.985
 3318WAT     H210197   0.060   2.889   4.903
 3319WAT      O10198   6.736   2.396   0.439
 3319WAT     H110199   6.782   2.388   0.351
 3319WAT     H210200   6.746   2.311   0.490
 3320WAT      O10201   1.334   2.451   8.246
 3320WAT     H110202   1.316   2.353   8.245
 3320WAT     H210203   1.248   2.502   8.249
 3321WAT      O10204   1.181   9.058   5.810
 3321WAT     H110205   1.274   9.096   5.806
 3321WAT     H210206   1.115   9.133   5.811
 3322WAT      O10207   7.584   6.801   6.113
 3322WAT     H110208   7.545   6.713   6.084
 3322WAT     H210209   7.512   6.871   6.113
 3323WAT      O10210   1.114   1.792   6.508
 3323WAT     H110211   1.045   1.853   6.469
 3323WAT     H210212   1.070   1.731   6.574
 3324WAT      O10213   1.829   1.505   7.551
 3324WAT     H110214   1.858   1.421   7.597
 3324WAT     H210215   1.810   1.486   7.455
 3325WAT      O10216   8.029   2.467   3.656
 3325WAT     H110217   7.968   2.542   3.683
 3325WAT     H210218   7.981   2.407   3.592
 3326WAT      O10219   8.302   9.385   1.847
 3326WAT     H110220   8.225   9.408   1.906
 3326WAT     H210221   8.279   9.303   1.794
 3327WAT      O10222   5.707   5.092   0.896
 3327WAT     H110223   5.644   5.143   0.837
 3327WAT     H210224   5.700   4.995   0.877
 3328WAT      O10225   2.830   9.644   8.099
 3328WAT     H110226   2.846   9.740   8.124
 3328WAT     H210227   2.916   9.594   8.104
 3329WAT      O10228   4.626   5.422   7.033
 3329WAT     H110229   4.685   5.462   7.103
 3329WAT     H210230   4.623   5.482   6.953
 3330WAT      O10231   9.009   8.189   6.728
 3330WAT     H110232   8.992   8.188   6.826
 3330WAT     H210233   9.082   8.255   6.707
 3331WAT      O10234   2.249   3.156   8.653
 3331WAT     H110235   2.242   3.250   8.619
 3331WAT     H210236   2.224   3.093   8.580
 3332WAT      O10237   3.766   5.532   0.663
 3332WAT     H110238   3.796   5.609   0.607
 3332WAT     H210239   3.841   5.500   0.720
 3333WAT      O10240   1.563   5.328   0.358
 3333WAT     H110241   1.497   5.289   0.294
 3333WAT     H210242   1.631   5.382   0.307
 3334WAT      O10243   2.636   8.703   3.730
 3334WAT     H110244   2.652   8.610   3.764
 3334WAT     H210245   2.639   8.767   3.806
 3335WAT      O10246   6.512   2.109   5.839
 3335WAT     H110247   6.488   2.020   5.799
 3335WAT     H210248   6.467   2.182   5.787
 3336WAT      O10249   3.468   3.951   0.690
 3336WAT     H110250   3.450   3.977   0.595
 3336WAT     H210251   3.391   3.898   0.725
 3337WAT      O10252   1.631   8.334   8.970
 3337WAT     H110253   1.638   8.433   8.958
 3337WAT     H210254   1.557   8.299   8.912
 3338WAT      O10255   5.420   2.189   2.286
 3338WAT     H110256   5.477   2.172   2.205
 3338WAT     H210257   5.365   2.108   2.305
 3339WAT      O10258   3.014   2.184   5.909
 3339WAT     H110259   3.006   2.178   6.008
 3339WAT     H210260   3.045   2.275   5.883
 3340WAT      O10261   3.150   8.396   2.137
 3340WAT     H110262   3.228   8.451   2.167
 3340WAT     H210263   3.178   8.300   2.130
 3341WAT      O10264   3.985   1.190   1.824
 3341WAT     H110265   3.911   1.131   1.791
 3341WAT     H210266   4.053   1.201   1.753
 3342WAT      O10267   3.464   7.396   4.585
 3342WAT     H110268   3.458   7.469   4.653
 3342WAT     H210269   3.482   7.436   4.495
 3343WAT      O10270   5.984   6.848   0.404
 3343WAT     H110271   6.024   6.881   0.318
 3343WAT     H210272   6.030   6.892   0.481
 3344WAT      O10273   2.626   6.440   1.810
 3344WAT     H110274   2.619   6.513   1.742
 3344WAT     H210275   2.575   6.466   1.892
 3345WAT      O10276   0.198   8.394   7.699
 3345WAT     H110277   0.220   8.454   7.621
 3345WAT     H210278   0.276   8.334   7.717
 3346WAT      O10279   6.890   1.067   7.673
 3346WAT     H110280   6.916   0.975   7.699
 3346WAT     H210281   6.902   1.129   7.751
 3347WAT      O10282   2.499   6.516   0.605
 3347WAT     H110283   2.529   6.511   0.509
 3347WAT     H210284   2.575   6.491   0.665
 3348WAT      O10285   4.743   9.160   5.360
 3348WAT     H110286   4.830   9.114   5.380
 3348WAT     H210287   4.690   9.105   5.296
 3349WAT      O10288   8.940   1.996   0.367
 3349WAT     H110289   8.943   2.094   0.390
 3349WAT     H210290   9.034   1.961   0.360
 3350WAT      O10291   0.391   8.397   1.014
 3350WAT     H110292   0.405   8.469   0.946
 3350WAT     H210293   0.479   8.367   1.050
 3351WAT      O10294   1.552   4.146   9.124
 3351WAT     H110295   1.623   4.216   9.122
 3351WAT     H210296   1.498   4.155   9.208
 3352WAT      O10297   0.120   3.210   2.092
 3352WAT     H110298   0.166   3.204   2.004
 3352WAT     H210299   0.118   3.305   2.122
 3353WAT      O10300   6.121   2.425   5.926
 3353WAT     H110301   6.099   2.444   6.021
 3353WAT     H210302   6.159   2.507   5.883
 3354WAT      O10303   5.261   2.205   5.177
 3354WAT     H110304   5.326   2.280   5.189
 3354WAT     H210305   5.199   2.202   5.256
 3355WAT      O10306   5.250   7.694   3.251
 3355WAT     H110307   5.337   7.703   3.300
 3355WAT     H210308   5.248   7.607   3.203
 3356WAT      O10309   1.392   3.038   7.770
 3356WAT     H110310   1.392   3.133   7.740
 3356WAT     H210311   1.332   2.984   7.711
 3357WAT      O10312   4.393   4.241   2.694
 3357WAT     H110313   4.411   4.340   2.687
 3357WAT     H210314   4.374   4.217   2.789
 3358WAT      O10315   8.131   1.062   1.800
 3358WAT     H110316   8.089   1.106   1.721
 3358WAT     H210317   8.228   1.046   1.781
 3359WAT      O10318   6.220   6.845   6.033
 3359WAT     H110319   6.250   6.923   5.979
 3359WAT     H210320   6.293   6.817   6.095
 3360WAT      O10321   2.119   0.671   4.951
 3360WAT     H110322   2.026   0.642   4.974
 3360WAT     H210323   2.118   0.722   4.865
 3361WAT      O10324   0.110   4.811   6.094
 3361WAT     H110325   0.109   4.762   6.181
 3361WAT     H210326   0.163   4.759   6.027
 3362WAT      O10327   2.236   2.672   2.432
 3362WAT     H110328   2.236   2.621   2.346
 3362WAT     H210329   2.304   2.745   2.427
 3363WAT      O10330   2.143   9.296   8.190
 3363WAT     H110331   2.100   9.384   8.172
 3363WAT     H210332   2.177   9.295   8.284
 3364WAT      O10333   1.717   6.765   7.774
 3364WAT     H110334   1.663   6.765   7.689
 3364WAT     H210335   1.716   6.674   7.814
 3365WAT      O10336   1.733   2.992   2.871
 3365WAT     H110337   1.807   3.028   2.927
 3365WAT     H210338   1.653   2.976   2.929
 3366WAT      O10339   7.078   0.215   9.555
 3366WAT     H110340   6.987   0.194   9.592
 3366WAT     H210341   7.112   0.136   9.504
 3367WAT      O10342   5.670   9.179   7.713
 3367WAT     H110343   5.678   9.232   7.798
 3367WAT     H210344   5.747   9.115   7.707
 3368WAT      O10345   1.399   2.644   1.472
 3368WAT     H110346   1.470   2.703   1.510
 3368WAT     H210347   1.313   2.660   1.520
 3369WAT      O10348   2.873   4.635   6.466
 3369WAT     H110349   2.888   4.613   6.562
 3369WAT     H210350   2.805   4.572   6.428
 3370WAT      O10351   6.152   6.015   5.809
 3370WAT     H110352   6.105   6.006   5.721
 3370WAT     H210353   6.084   6.024   5.882
 3371WAT      O10354   7.664   8.220   2.818
 3371WAT     H110355   7.736   8.156   2.791
 3371WAT     H210356   7.619   8.255   2.736
 3372WAT      O10357   2.320   4.920   1.294
 3372WAT     H110358   2.327   4.898   1.392
 3372WAT     H210359   2.410   4.908   1.252
 3373WAT      O10360   4.776   4.533   3.382
 3373WAT     H110361   4.867   4.505   3.413
 3373WAT     H210362   4.715   4.540   3.461
 3374WAT      O10363   6.134   0.698   8.583
 3374WAT     H110364   6.174   0.769   8.525
 3374WAT     H210365   6.085   0.632   8.527
 3375WAT      O10366   1.727   8.507   5.058
 3375WAT     H110367   1.664   8.441   5.098
 3375WAT     H210368   1.677   8.563   4.991
 3376WAT      O10369   6.076   9.790   7.394
 3376WAT     H110370   6.148   9.734   7.436
 3376WAT     H210371   6.111   9.881   7.375
 3377WAT      O10372   6.251   1.029   7.957
 3377WAT     H110373   6.247   0.970   8.037
 3377WAT     H210374   6.342   1.070   7.950
 3378WAT      O10375   0.152   2.903   8.683
 3378WAT     H110376   0.105   2.965   8.745
 3378WAT     H210377   0.250   2.922   8.683
 3379WAT      O10378   0.200   5.391   9.799
 3379WAT     H110379   0.235   5.405   9.707
 3379WAT     H210380   0.239   5.308   9.838
 3380WAT      O10381   7.889   8.394   4.120
 3380WAT     H110382   7.904   8.469   4.185
 3380WAT     H210383   7.919   8.308   4.162
 3381WAT      O10384   3.660   5.062   3.503
 3381WAT     H110385   3.656   5.073   3.603
 3381WAT     H210386   3.736   5.116   3.467
 3382WAT      O10387   8.112   3.426   6.107
 3382WAT     H110388   8.200   3.436   6.060
 3382WAT     H210389   8.110   3.338   6.155
 3383WAT      O10390   7.232   2.225   1.081
 3383WAT     H110391   7.155   2.185   1.031
 3383WAT     H210392   7.253   2.315   1.043
 3384WAT      O10393   2.732   7.955   7.757
 3384WAT     H110394   2.683   7.890   7.699
 3384WAT     H210395   2.761   8.034   7.702
 3385WAT      O10396   7.739   8.106   6.870
 3385WAT     H110397   7.819   8.159   6.897
 3385WAT     H210398   7.767   8.017   6.835
 3386WAT      O10399   3.677   8.879   7.568
 3386WAT     H110400   3.675   8.787   7.609
 3386WAT     H210401   3.678   8.871   7.468
 3387WAT      O10402   0.291   1.195   1.781
 3387WAT     H110403   0.344   1.201   1.866
 3387WAT     H210404   0.348   1.158   1.708
 3388WAT      O10405   4.409   4.523   2.725
 3388WAT     H110406   4.343   4.548   2.655
 3388WAT     H210407   4.500   4.557   2.698
 3389WAT      O10408   8.652   8.527   7.160
 3389WAT     H110409   8.709   8.446   7.176
 3389WAT     H210410   8.594   8.512   7.080
 3390WAT      O10411   7.281   3.466   3.646
 3390WAT     H110412   7.267   3.497   3.740
 3390WAT     H210413   7.193   3.442   3.605
 3391WAT      O10414   6.422   3.599   6.657
 3391WAT     H110415   6.417   3.515   6.711
 3391WAT     H210416   6.434   3.677   6.717
 3392WAT      O10417   2.145   6.471   9.769
 3392WAT     H110418   2.117   6.497   9.861
 3392WAT     H210419   2.223   6.408   9.774
 3393WAT      O10420   6.750   7.603   0.903
 3393WAT     H110421   6.812   7.599   0.981
 3393WAT     H210422   6.755   7.695   0.862
 3394WAT      O10423   1.549   3.610   9.121
 3394WAT     H110424   1.481   3.579   9.055
 3394WAT     H210425   1.592   3.694   9.089
 3395WAT      O10426   6.200   1.589   6.913
 3395WAT     H110427   6.170   1.640   6.832
 3395WAT     H210428   6.300   1.596   6.920
 3396WAT      O10429   8.701   2.314   1.176
 3396WAT     H110430   8.690   2.282   1.270
 3396WAT     H210431   8.612   2.344   1.141
 3397WAT      O10432   0.263   4.685   2.673
 3397WAT     H110433   0.210   4.729   2.600
 3397WAT     H210434   0.246   4.733   2.759
 3398WAT      O10435   7.776   7.977   0.640
 3398WAT     H110436   7.699   7.968   0.577
 3398WAT     H210437   7.742   7.998   0.731
 3399WAT      O10438   2.988   7.430   0.555
 3399WAT     H110439   2.916   7.486   0.514
 3399WAT     H210440   3.026   7.477   0.635
 3400WAT      O10441   3.774   5.397   2.949
 3400WAT     H110442   3.726   5.309   2.956
 3400WAT     H210443   3.830   5.398   2.866
 3401WAT      O10444   7.599   5.190   8.080
 3401WAT     H110445   7.521   5.195   8.143
 3401WAT     H210446   7.620   5.282   8.046
 3402WAT      O10447   2.541   2.560   5.204
 3402WAT     H110448   2.512   2.644   5.159
 3402WAT     H210449   2.461   2.514   5.243
 3403WAT      O10450   0.331   5.665   8.579
 3403WAT     H110451   0.409   5.727   8.588
 3403WAT     H210452   0.294   5.644   8.669
 3404WAT      O10453   5.874   1.320   2.941
 3404WAT     H110454   5.889   1.418   2.956
 3404WAT     H210455   5.934   1.267   3.000
 3405WAT      O10456   1.532   8.049   5.891
 3405WAT     H110457   1.451   7.992   5.875
 3405WAT     H210458   1.612   8.006   5.850
 3406WAT      O10459   6.706   5.429   9.585
 3406WAT     H110460   6.618   5.457   9.547
 3406WAT     H210461   6.774   5.421   9.512
 3407WAT      O10462   9.190   0.171   9.601
 3407WAT     H110463   9.103   0.128   9.628
 3407WAT     H210464   9.237   0.205   9.682
 3408WAT      O10465   9.743   8.314   3.965
 3408WAT     H110466   9.768   8.332   4.060
 3408WAT     H210467   9.737   8.215   3.951
 3409WAT      O10468   6.142   0.096   2.457
 3409WAT     H110469   6.187   0.184   2.465
 3409WAT     H210470   6.164   0.054   2.369
 3410WAT      O10471   9.592   5.456   7.499
 3410WAT     H110472   9.546   5.371   7.524
 3410WAT     H210473   9.685   5.455   7.533
 3411WAT      O10474   3.223   0.939   1.563
 3411WAT     H110475   3.152   0.871   1.580
 3411WAT     H210476   3.231   0.954   1.465
 3412WAT      O10477   8.879   2.357   7.928
 3412WAT     H110478   8.798   2.370   7.986
 3412WAT     H210479   8.912   2.263   7.938
 3413WAT      O10480   4.219   9.710   7.261
 3413WAT     H110481   4.171   9.715   7.349
 3413WAT     H210482   4.158   9.672   7.192
 3414WAT      O10483   6.225   6.319   5.302
 3414WAT     H110484   6.307   6.368   5.332
 3414WAT     H210485   6.163   6.383   5.256
 3415WAT      O10486   5.937   6.901   1.311
 3415WAT     H110487   6.011   6.962   1.337
 3415WAT     H210488   5.917   6.911   1.213
 3416WAT      O10489   5.208   7.195   5.047
 3416WAT     H110490   5.189   7.109   5.001
 3416WAT     H210491   5.206   7.270   4.981
 3417WAT      O10492   5.753   0.158   6.538
 3417WAT     H110493   5.661   0.129   6.566
 3417WAT     H210494   5.748   0.253   6.505
 3418WAT      O10495   6.071   8.338   7.788
 3418WAT     H110496   5.971   8.340   7.780
 3418WAT     H210497   6.098   8.261   7.846
 3419WAT      O10498   6.423   8.916   5.505
 3419WAT     H110499   6.338   8.961   5.477
 3419WAT     H210500   6.497   8.982   5.507
 3420WAT      O10501   6.638   6.717   8.394
 3420WAT     H110502   6.639   6.814   8.371
 3420WAT     H210503   6.721   6.695   8.446
 3421WAT      O10504   4.801   0.682   5.249
 3421WAT     H110505   4.736   0.650   5.318
 3421WAT     H210506   4.871   0.738   5.294
 3422WAT      O10507   5.562   1.482   6.294
 3422WAT     H110508   5.599   1.389   6.295
 3422WAT     H210509   5.466   1.479   6.320
 3423WAT      O10510   0.788   2.018   9.396
 3423WAT     H110511   0.764   1.928   9.361
 3423WAT     H210512   0.721   2.085   9.364
 3424WAT      O10513   7.724   3.164   8.237
 3424WAT     H110514   7.779   3.106   8.298
 3424WAT     H210515   7.784   3.230   8.192
 3425WAT      O10516   6.739   7.180   6.020
 3425WAT     H110517   6.837   7.197   6.008
 3425WAT     H210518   6.714   7.096   5.971
 3426WAT      O10519   1.001   1.502   3.344
 3426WAT     H110520   0.978   1.560   3.265
 3426WAT     H210521   0.988   1.406   3.319
 3427WAT      O10522   1.876   4.487   4.594
 3427WAT     H110523   1.958   4.540   4.569
 3427WAT     H210524   1.841   4.519   4.681
 3428WAT      O10525   2.981   5.081   2.479
 3428WAT     H110526   2.945   5.139   2.405
 3428WAT     H210527   2.973   4.985   2.453
 3429WAT      O10528   8.523   7.132   1.953
 3429WAT     H110529   8.545   7.100   1.861
 3429WAT     H210530   8.554   7.227   1.964
 3430WAT      O10531   2.758   6.715   4.090
 3430WAT     H110532   2.791   6.659   4.014
 3430WAT     H210533   2.755   6.659   4.173
 3431WAT      O10534   3.327   2.332   4.673
 3431WAT     H110535   3.384   2.412   4.653
 3431WAT     H210536   3.294   2.338   4.767
 3432WAT      O10537   4.382   2.167   0.300
 3432WAT     H110538   4.434   2.177   0.216
 3432WAT     H210539   4.443   2.140   0.374
 3433WAT      O10540   1.248   3.611   5.760
 3433WAT     H110541   1.241   3.623   5.661
 3433WAT     H210542   1.177   3.548   5.792
 3434WAT      O10543   0.851   8.261   6.076
 3434WAT     H110544   0.822   8.204   6.153
 3434WAT     H210545   0.780   8.330   6.058
 3435WAT      O10546   4.700   3.918   3.282
 3435WAT     H110547   4.661   3.928   3.374
 3435WAT     H210548   4.795   3.887   3.290
 3436WAT      O10549   5.597   7.563   3.992
 3436WAT     H110550   5.538   7.597   4.065
 3436WAT     H210551   5.585   7.464   3.983
 3437WAT      O10552   2.218   5.237   4.232
 3437WAT     H110553   2.317   5.236   4.216
 3437WAT     H210554   2.192   5.160   4.290
 3438WAT      O10555   2.367   0.401   9.417
 3438WAT     H110556   2.338   0.365   9.505
 3438WAT     H210557   2.302   0.372   9.346
 3439WAT      O10558   1.333   6.814   5.616
 3439WAT     H110559   1.390   6.739   5.583
 3439WAT     H210560   1.237   6.796   5.594
 3440WAT      O10561   8.210   2.129   7.614
 3440WAT     H110562   8.278   2.163   7.679
 3440WAT     H210563   8.257   2.089   7.534
 3441WAT      O10564   5.618   3.749   0.294
 3441WAT     H110565   5.631   3.847   0.307
 3441WAT     H210566   5.638   3.702   0.380
 3442WAT      O10567   6.687   4.580   2.908
 3442WAT     H110568   6.677   4.514   2.834
 3442WAT     H210569   6.607   4.575   2.968
 3443WAT      O10570   4.191   4.093   6.702
 3443WAT     H110571   4.130   4.172   6.705
 3443WAT     H210572   4.208   4.068   6.607
 3444WAT      O10573   7.021   3.046   1.791
 3444WAT     H110574   6.923   3.040   1.813
 3444WAT     H210575   7.072   2.988   1.854
 3445WAT      O10576   4.910   3.543   9.826
 3445WAT     H110577   4.870   3.578   9.910
 3445WAT     H210578   4.842   3.547   9.752
 3446WAT      O10579   1.280   4.096   1.050
 3446WAT     H110580   1.258   4.037   1.127
 3446WAT     H210581   1.199   4.109   0.993
 3447WAT      O10582   9.216   7.482   2.628
 3447WAT     H110583   9.130   7.438   2.653
 3447WAT     H210584   9.210   7.580   2.647
 3448WAT      O10585   3.521   9.309   0.259
 3448WAT     H110586   3.584   9.291   0.183
 3448WAT     H210587   3.487   9.222   0.296
 3449WAT      O10588   3.296   3.619   4.105
 3449WAT     H110589   3.379   3.676   4.104
 3449WAT     H210590   3.218   3.675   4.132
 3450WAT      O10591   7.210   2.030   3.297
 3450WAT     H110592   7.197   2.079   3.210
 3450WAT     H210593   7.268   1.950   3.281
 3451WAT      O10594   2.481   7.009   5.925
 3451WAT     H110595   2.475   6.949   6.004
 3451WAT     H210596   2.391   7.020   5.884
 3452WAT      O10597   1.871   4.512   1.319
 3452WAT     H110598   1.815   4.438   1.356
 3452WAT     H210599   1.940   4.474   1.257
 3453WAT      O10600   3.342   1.240   4.522
 3453WAT     H110601   3.264   1.294   4.554
 3453WAT     H210602   3.427   1.288   4.544
 3454WAT      O10603   4.310   4.838   1.522
 3454WAT     H110604   4.253   4.920   1.531
 3454WAT     H210605   4.260   4.767   1.473
 3455WAT      O10606   1.251   8.762   4.049
 3455WAT     H110607   1.314   8.686   4.065
 3455WAT     H210608   1.303   8.845   4.030
 3456WAT      O10609   3.385   8.166   2.320
 3456WAT     H110610   3.441   8.108   2.379
 3456WAT     H210611   3.292   8.170   2.355
 3457WAT      O10612   5.269   8.012   7.805
 3457WAT     H110613   5.185   8.033   7.754
 3457WAT     H210614   5.295   8.091   7.860
 3458WAT      O10615   8.659   0.412   2.608
 3458WAT     H110616   8.565   0.395   2.580
 3458WAT     H210617   8.689   0.501   2.573
 3459WAT      O10618   1.268   2.699   2.500
 3459WAT     H110619   1.361   2.724   2.526
 3459WAT     H210620   1.206   2.774   2.523
 3460WAT      O10621   3.595   7.964   3.892
 3460WAT     H110622   3.691   7.955   3.864
 3460WAT     H210623   3.577   8.058   3.918
 3461WAT      O10624   1.197   8.001   7.125
 3461WAT     H110625   1.156   7.979   7.214
 3461WAT     H210626   1.173   8.095   7.101
 3462WAT      O10627   9.224   2.079   3.780
 3462WAT     H110628   9.199   2.155   3.719
 3462WAT     H210629   9.155   2.071   3.852
 3463WAT      O10630   7.670   0.013   3.875
 3463WAT     H110631   7.718  -0.042   3.944
 3463WAT     H210632   7.654  -0.043   3.793
 3464WAT      O10633   2.415   1.026   3.878
 3464WAT     H110634   2.461   1.110   3.907
 3464WAT     H210635   2.481   0.963   3.840
 3465WAT      O10636   4.999   3.451   1.017
 3465WAT     H110637   4.925   3.488   1.075
 3465WAT     H210638   5.011   3.511   0.937
 3466WAT      O10639   7.018   1.076   4.178
 3466WAT     H110640   7.114   1.083   4.203
 3466WAT     H210641   6.975   1.166   4.185
 3467WAT      O10642   6.376   2.559   5.984
 3467WAT     H110643   6.370   2.583   6.081
 3467WAT     H210644   6.417   2.468   5.974
 3468WAT      O10645   1.788   6.245   1.818
 3468WAT     H110646   1.775   6.312   1.745
 3468WAT     H210647   1.711   6.181   1.818
 3469WAT      O10648   4.281   5.082   1.789
 3469WAT     H110649   4.272   5.181   1.777
 3469WAT     H210650   4.341   5.062   1.866
 3470WAT      O10651   2.028   2.450   0.465
 3470WAT     H110652   1.980   2.493   0.542
 3470WAT     H210653   2.000   2.354   0.458
 3471WAT      O10654   8.336   0.043   0.889
 3471WAT     H110655   8.333  -0.035   0.826
 3471WAT     H210656   8.403   0.109   0.856
 3472WAT      O10657   5.408   5.143   5.485
 3472WAT     H110658   5.472   5.203   5.533
 3472WAT     H210659   5.451   5.055   5.469
 3473WAT      O10660   4.396   6.739   8.815
 3473WAT     H110661   4.335   6.815   8.836
 3473WAT     H210662   4.486   6.775   8.790
 3474WAT      O10663   6.157   6.621   9.453
 3474WAT     H110664   6.229   6.654   9.513
 3474WAT     H210665   6.069   6.625   9.501
 3475WAT      O10666   9.434   8.552   6.215
 3475WAT     H110667   9.346   8.505   6.209
 3475WAT     H210668   9.484   8.520   6.296
 3476WAT      O10669   0.902   1.674   3.161
 3476WAT     H110670   0.959   1.748   3.125
 3476WAT     H210671   0.861   1.624   3.085
 3477WAT      O10672   0.487   4.281   3.496
 3477WAT     H110673   0.445   4.326   3.575
 3477WAT     H210674   0.415   4.238   3.441
 3478WAT      O10675   8.164   0.716   5.137
 3478WAT     H110676   8.085   0.771   5.109
 3478WAT     H210677   8.193   0.659   5.061
 3479WAT      O10678   6.585   9.584   7.882
 3479WAT     H110679   6.569   9.659   7.946
 3479WAT     H210680   6.614   9.621   7.794
 3480WAT      O10681   2.515   7.996   8.210
 3480WAT     H110682   2.575   8.073   8.188
 3480WAT     H210683   2.460   7.972   8.130
 3481WAT      O10684   3.803   6.759   6.442
 3481WAT     H110685   3.819   6.850   6.480
 3481WAT     H210686   3.888   6.724   6.402
 3482WAT      O10687   4.504   9.305   0.885
 3482WAT     H110688   4.603   9.289   0.884
 3482WAT     H210689   4.482   9.375   0.952
 3483WAT      O10690   9.524   2.532   5.300
 3483WAT     H110691   9.549   2.613   5.247
 3483WAT     H210692   9.470   2.471   5.242
 3484WAT      O10693   0.950   0.744   5.409
 3484WAT     H110694   1.013   0.680   5.453
 3484WAT     H210695   0.933   0.821   5.470
 3485WAT      O10696   0.988   9.756   5.403
 3485WAT     H110697   0.997   9.854   5.387
 3485WAT     H210698   0.891   9.731   5.403
 3486WAT      O10699   4.656   3.860   1.486
 3486WAT     H110700   4.692   3.879   1.394
 3486WAT     H210701   4.725   3.811   1.539
 3487WAT      O10702   8.034   2.867   9.307
 3487WAT     H110703   8.076   2.779   9.328
 3487WAT     H210704   8.026   2.921   9.391
 3488WAT      O10705   8.521   0.510   1.093
 3488WAT     H110706   8.614   0.545   1.079
 3488WAT     H210707   8.463   0.582   1.131
 3489WAT      O10708   3.178   3.440   0.822
 3489WAT     H110709   3.233   3.431   0.905
 3489WAT     H210710   3.237   3.437   0.742
 3490WAT      O10711   4.854   1.370   6.318
 3490WAT     H110712   4.774   1.391   6.262
 3490WAT     H210713   4.930   1.428   6.290
 3491WAT      O10714   5.717   8.244   9.658
 3491WAT     H110715   5.686   8.288   9.742
 3491WAT     H210716   5.704   8.307   9.581
 3492WAT      O10717   9.397   7.837   7.820
 3492WAT     H110718   9.444   7.834   7.908
 3492WAT     H210719   9.463   7.828   7.746
 3493WAT      O10720   5.220   2.740   6.699
 3493WAT     H110721   5.211   2.780   6.607
 3493WAT     H210722   5.317   2.723   6.718
 3494WAT      O10723   6.962   2.326   0.278
 3494WAT     H110724   7.056   2.321   0.313
 3494WAT     H210725   6.911   2.244   0.307
 3495WAT      O10726   7.885   7.055   6.331
 3495WAT     H110727   7.885   7.035   6.233
 3495WAT     H210728   7.858   7.150   6.346
 3496WAT      O10729   0.600   0.524   8.202
 3496WAT     H110730   0.500   0.515   8.201
 3496WAT     H210731   0.624   0.620   8.212
 3497WAT      O10732   8.429   9.663   0.732
 3497WAT     H110733   8.502   9.700   0.790
 3497WAT     H210734   8.389   9.582   0.775
 3498WAT      O10735   8.171   1.547   1.040
 3498WAT     H110736   8.264   1.555   1.077
 3498WAT     H210737   8.119   1.484   1.097
 3499WAT      O10738   6.908   0.986   1.660
 3499WAT     H110739   6.855   0.965   1.578
 3499WAT     H210740   7.005   0.990   1.636
 3500WAT      O10741   5.612   3.075   3.094
 3500WAT     H110742   5.516   3.067   3.067
 3500WAT     H210743   5.669   3.082   3.012
 3501WAT      O10744   3.975   9.351   5.465
 3501WAT     H110745   3.943   9.260   5.492
 3501WAT     H210746   4.053   9.377   5.521
 3502WAT      O10747   3.893   0.998   5.072
 3502WAT     H110748   3.832   1.075   5.056
 3502WAT     H210749   3.988   1.028   5.062
 3503WAT      O10750   6.817   2.216   9.535
 3503WAT     H110751   6.890   2.258   9.481
 3503WAT     H210752   6.785   2.282   9.603
 3504WAT      O10753   2.879   1.946   5.830
 3504WAT     H110754   2.920   1.951   5.921
 3504WAT     H210755   2.905   2.026   5.777
 3505WAT      O10756   6.107   3.031   6.419
 3505WAT     H110757   6.141   3.118   6.384
 3505WAT     H210758   6.009   3.023   6.401
 3506WAT      O10759   1.831   0.489   8.420
 3506WAT     H110760   1.846   0.430   8.341
 3506WAT     H210761   1.902   0.560   8.423
 3507WAT      O10762   8.747   4.267   5.597
 3507WAT     H110763   8.827   4.234   5.647
 3507WAT     H210764   8.684   4.190   5.581
 3508WAT      O10765   5.092   0.748   2.532
 3508WAT     H110766   5.174   0.787   2.574
 3508WAT     H210767   5.095   0.763   2.433
 3509WAT      O10768   8.461   9.135   3.434
 3509WAT     H110769   8.435   9.214   3.379
 3509WAT     H210770   8.428   9.147   3.528
 3510WAT      O10771   4.142   9.220   0.608
 3510WAT     H110772   4.169   9.312   0.580
 3510WAT     H210773   4.044   9.220   0.629
 3511WAT      O10774   5.975   2.403   8.091
 3511WAT     H110775   5.876   2.389   8.083
 3511WAT     H210776   5.995   2.501   8.084
 3512WAT      O10777   7.564   4.224   9.081
 3512WAT     H110778   7.507   4.270   9.150
 3512WAT     H210779   7.648   4.190   9.124
 3513WAT      O10780   1.254   0.000   4.977
 3513WAT     H110781   1.224   0.047   4.894
 3513WAT     H210782   1.211   0.043   5.057
 3514WAT      O10783   3.384   7.863   6.160
 3514WAT     H110784   3.352   7.934   6.224
 3514WAT     H210785   3.311   7.844   6.094
 3515WAT      O10786   6.248   2.324   6.822
 3515WAT     H110787   6.267   2.312   6.724
 3515WAT     H210788   6.307   2.397   6.858
 3516WAT      O10789   5.712   4.819   2.979
 3516WAT     H110790   5.655   4.896   3.009
 3516WAT     H210791   5.654   4.749   2.937
 3517WAT      O10792   8.661   0.413   4.654
 3517WAT     H110793   8.630   0.348   4.585
 3517WAT     H210794   8.757   0.437   4.636
 3518WAT      O10795   9.767   5.716   7.914
 3518WAT     H110796   9.822   5.757   7.986
 3518WAT     H210797   9.674   5.699   7.948
 3519WAT      O10798   3.652   8.145   4.825
 3519WAT     H110799   3.573   8.172   4.770
 3519WAT     H210800   3.636   8.056   4.866
 3520WAT      O10801   5.444   2.758   2.964
 3520WAT     H110802   5.528   2.763   2.911
 3520WAT     H210803   5.398   2.848   2.962
 3521WAT      O10804   2.917   3.336   1.285
 3521WAT     H110805   2.977   3.262   1.316
 3521WAT     H210806   2.899   3.399   1.361
 3522WAT      O10807   8.390   2.012   5.973
 3522WAT     H110808   8.460   1.953   6.014
 3522WAT     H210809   8.433   2.079   5.914
 3523WAT      O10810   0.543   6.384   4.084
 3523WAT     H110811   0.624   6.350   4.132
 3523WAT     H210812   0.559   6.477   4.053
 3524WAT      O10813   3.148   6.855   0.786
 3524WAT     H110814   3.184   6.813   0.703
 3524WAT     H210815   3.206   6.932   0.813
 3525WAT      O10816   9.864   1.511   6.878
 3525WAT     H110817   9.872   1.549   6.785
 3525WAT     H210818   9.915   1.424   6.883
 3526WAT      O10819   4.388   8.787   1.043
 3526WAT     H110820   4.319   8.773   1.114
 3526WAT     H210821   4.477   8.800   1.085
 3527WAT      O10822   7.972   5.711   4.963
 3527WAT     H110823   7.946   5.695   4.868
 3527WAT     H210824   7.996   5.807   4.976
 3528WAT      O10825   7.585   8.442   4.295
 3528WAT     H110826   7.675   8.478   4.267
 3528WAT     H210827   7.534   8.413   4.214
 3529WAT      O10828   9.105   6.994   5.962
 3529WAT     H110829   9.014   7.021   5.930
 3529WAT     H210830   9.128   7.046   6.044
 3530WAT      O10831   0.459   3.290   4.932
 3530WAT     H110832   0.522   3.257   5.002
 3530WAT     H210833   0.415   3.374   4.964
 3531WAT      O10834   2.404   4.960   4.674
 3531WAT     H110835   2.481   4.967   4.611
 3531WAT     H210836   2.368   5.051   4.693
 3532WAT      O10837   3.306   3.659   7.666
 3532WAT     H110838   3.384   3.623   7.716
 3532WAT     H210839   3.221   3.623   7.705
 3533WAT      O10840   1.675   4.482   9.379
 3533WAT     H110841   1.586   4.526   9.368
 3533WAT     H210842   1.747   4.546   9.352
 3534WAT      O10843   9.414   5.894   2.672
 3534WAT     H110844   9.414   5.801   2.635
 3534WAT     H210845   9.462   5.955   2.608
 3535WAT      O10846   1.602   1.104   8.433
 3535WAT     H110847   1.615   1.176   8.365
 3535WAT     H210848   1.610   1.014   8.390
 3536WAT      O10849   2.320   4.772   7.790
 3536WAT     H110850   2.376   4.793   7.870
 3536WAT     H210851   2.227   4.805   7.804
 3537WAT      O10852   5.750   7.687   0.818
 3537WAT     H110853   5.658   7.647   0.818
 3537WAT     H210854   5.750   7.768   0.760
 3538WAT      O10855   6.142   9.792   8.162
 3538WAT     H110856   6.159   9.876   8.215
 3538WAT     H210857   6.183   9.715   8.210
 3539WAT      O10858   3.013   8.141   0.466
 3539WAT     H110859   3.100   8.145   0.417
 3539WAT     H210860   3.029   8.161   0.563
 3540WAT      O10861   2.278   8.005   4.339
 3540WAT     H110862   2.276   7.937   4.412
 3540WAT     H210863   2.216   7.977   4.265
 3541WAT      O10864   1.800   1.962   4.900
 3541WAT     H110865   1.896   1.989   4.891
 3541WAT     H210866   1.758   1.961   4.809
 3542WAT      O10867   1.726   4.106   4.970
 3542WAT     H110868   1.765   4.037   4.909
 3542WAT     H210869   1.677   4.061   5.044
 3543WAT      O10870   1.720   3.129   8.462
 3543WAT     H110871   1.727   3.031   8.483
 3543WAT     H210872   1.797   3.156   8.405
 3544WAT      O10873   0.354   2.493   9.095
 3544WAT     H110874   0.397   2.503   9.184
 3544WAT     H210875   0.254   2.493   9.106
 3545WAT      O10876   8.868   1.562   5.205
 3545WAT     H110877   8.940   1.500   5.235
 3545WAT     H210878   8.801   1.573   5.279
 3546WAT      O10879   3.938   3.018   6.189
 3546WAT     H110880   3.981   3.024   6.099
 3546WAT     H210881   3.840   3.001   6.178
 3547WAT      O10882   9.315   8.222   8.327
 3547WAT     H110883   9.410   8.247   8.346
 3547WAT     H210884   9.313   8.137   8.274
 3548WAT      O10885   3.579   8.036   2.141
 3548WAT     H110886   3.512   7.967   2.114
 3548WAT     H210887   3.531   8.117   2.177
 3549WAT      O10888   5.643   7.973   5.969
 3549WAT     H110889   5.570   8.040   5.983
 3549WAT     H210890   5.702   8.003   5.894
 3550WAT      O10891   9.724   2.559   9.627
 3550WAT     H110892   9.766   2.612   9.700
 3550WAT     H210893   9.713   2.616   9.546
 3551WAT      O10894   9.102   4.655   3.969
 3551WAT     H110895   9.016   4.647   3.918
 3551WAT     H210896   9.093   4.729   4.036
 3552WAT      O10897   4.552   0.339   0.544
 3552WAT     H110898   4.500   0.399   0.604
 3552WAT     H210899   4.580   0.257   0.595
 3553WAT      O10900   4.266   6.109   6.789
 3553WAT     H110901   4.242   6.149   6.701
 3553WAT     H210902   4.281   6.183   6.856
 3554WAT      O10903   8.409   4.802   9.369
 3554WAT     H110904   8.374   4.803   9.276
 3554WAT     H210905   8.342   4.758   9.430
 3555WAT      O10906   9.146   8.973   1.146
 3555WAT     H110907   9.072   8.947   1.209
 3555WAT     H210908   9.124   9.060   1.102
 3556WAT      O10909   3.442   4.645   9.776
 3556WAT     H110910   3.402   4.556   9.796
 3556WAT     H210911   3.382   4.717   9.809
 3557WAT      O10912   7.210   4.455   0.028
 3557WAT     H110913   7.263   4.538   0.048
 3557WAT     H210914   7.258   4.400  -0.040
 3558WAT      O10915   3.369   2.095   8.229
 3558WAT     H110916   3.305   2.148   8.284
 3558WAT     H210917   3.461   2.130   8.242
 3559WAT      O10918   5.059   9.655   8.121
 3559WAT     H110919   5.098   9.585   8.061
 3559WAT     H210920   5.094   9.744   8.094
 3560WAT      O10921   8.523   8.402   3.646
 3560WAT     H110922   8.549   8.431   3.554
 3560WAT     H210923   8.428   8.373   3.647
 3561WAT      O10924   4.134   9.782   8.533
 3561WAT     H110925   4.088   9.869   8.514
 3561WAT     H210926   4.084   9.708   8.488
 3562WAT      O10927   8.955   9.713   1.228
 3562WAT     H110928   8.938   9.742   1.322
 3562WAT     H210929   9.052   9.726   1.206
 3563WAT      O10930   4.847   8.785   9.834
 3563WAT     H110931   4.807   8.829   9.753
 3563WAT     H210932   4.775   8.759   9.898
 3564WAT      O10933   9.103   5.272   6.306
 3564WAT     H110934   9.108   5.179   6.270
 3564WAT     H210935   9.010   5.291   6.336
 3565WAT      O10936   9.613   3.496   4.342
 3565WAT     H110937   9.712   3.490   4.357
 3565WAT     H210938   9.566   3.432   4.402
 3566WAT      O10939   2.653   8.813   0.422
 3566WAT     H110940   2.661   8.843   0.328
 3566WAT     H210941   2.744   8.811   0.464
 3567WAT      O10942   5.032   1.397   8.924
 3567WAT     H110943   5.062   1.371   8.832
 3567WAT     H210944   5.001   1.315   8.973
 3568WAT      O10945   8.128   7.605   6.725
 3568WAT     H110946   8.064   7.681   6.716
 3568WAT     H210947   8.222   7.640   6.726
 3569WAT      O10948   8.637   4.043   2.836
 3569WAT     H110949   8.614   4.016   2.742
 3569WAT     H210950   8.659   3.961   2.889
 3570WAT      O10951   5.764   6.602   0.760
 3570WAT     H110952   5.761   6.507   0.729
 3570WAT     H210953   5.855   6.624   0.795
 3571WAT      O10954   9.813   7.875   2.338
 3571WAT     H110955   9.893   7.929   2.363
 3571WAT     H210956   9.762   7.922   2.266
 3572WAT      O10957   4.004   5.202   7.774
 3572WAT     H110958   4.070   5.262   7.821
 3572WAT     H210959   3.911   5.227   7.800
 3573WAT      O10960   6.313   8.202   8.726
 3573WAT     H110961   6.341   8.219   8.820
 3573WAT     H210962   6.370   8.131   8.687
 3574WAT      O10963   2.150   9.722   4.716
 3574WAT     H110964   2.243   9.757   4.730
 3574WAT     H210965   2.131   9.716   4.618
 3575WAT      O10966   6.331   3.729   9.246
 3575WAT     H110967   6.270   3.795   9.203
 3575WAT     H210968   6.371   3.769   9.328
 3576WAT      O10969   6.543   2.227   7.234
 3576WAT     H110970   6.604   2.304   7.220
 3576WAT     H210971   6.476   2.223   7.160
 3577WAT      O10972   7.311   2.630   3.028
 3577WAT     H110973   7.321   2.586   2.938
 3577WAT     H210974   7.297   2.560   3.098
 3578WAT      O10975   8.215   0.232   5.467
 3578WAT     H110976   8.169   0.297   5.407
 3578WAT     H210977   8.266   0.165   5.413
 3579WAT      O10978   8.483   2.494   6.997
 3579WAT     H110979   8.553   2.548   6.951
 3579WAT     H210980   8.399   2.548   7.006
 3580WAT      O10981   6.634   9.180   1.263
 3580WAT     H110982   6.599   9.136   1.346
 3580WAT     H210983   6.663   9.273   1.284
 3581WAT      O10984   6.171   6.597   5.026
 3581WAT     H110985   6.178   6.649   4.941
 3581WAT     H210986   6.256   6.607   5.079
 3582WAT      O10987   1.759   9.823   3.147
 3582WAT     H110988   1.726   9.766   3.222
 3582WAT     H210989   1.686   9.834   3.079
 3583WAT      O10990   6.625   4.738   9.009
 3583WAT     H110991   6.691   4.751   9.082
 3583WAT     H210992   6.595   4.827   8.974
 3584WAT      O10993   4.388   4.014   2.528
 3584WAT     H110994   4.485   4.008   2.505
 3584WAT     H210995   4.369   4.104   2.569
 3585WAT      O10996   2.414   5.239   6.974
 3585WAT     H110997   2.346   5.171   7.005
 3585WAT     H210998   2.502   5.193   6.959
 3586WAT      O10999   3.683   7.254   9.269
 3586WAT     H111000   3.725   7.204   9.344
 3586WAT     H211001   3.593   7.216   9.249
 3587WAT      O11002   4.916   3.161   3.633
 3587WAT     H111003   4.997   3.161   3.574
 3587WAT     H211004   4.941   3.199   3.722
 3588WAT      O11005   0.513   9.785   4.581
 3588WAT     H111006   0.569   9.745   4.654
 3588WAT     H211007   0.420   9.749   4.586
 3589WAT      O11008   0.126   5.911   5.706
 3589WAT     H111009   0.133   5.826   5.758
 3589WAT     H211010   0.055   5.900   5.636
 3590WAT      O11011   6.418   2.814   6.932
 3590WAT     H111012   6.427   2.825   7.031
 3590WAT     H211013   6.488   2.869   6.886
 3591WAT      O11014   1.464   5.472   9.088
 3591WAT     H111015   1.525   5.532   9.036
 3591WAT     H211016   1.409   5.528   9.151
 3592WAT      O11017   5.249   8.931   8.725
 3592WAT     H111018   5.163   8.981   8.712
 3592WAT     H211019   5.325   8.986   8.692
 3593WAT      O11020   5.637   8.625   9.048
 3593WAT     H111021   5.621   8.702   9.109
 3593WAT     H211022   5.550   8.593   9.011
 3594WAT      O11023   2.252   2.250   1.431
 3594WAT     H111024   2.204   2.218   1.349
 3594WAT     H211025   2.278   2.171   1.487
 3595WAT      O11026   2.738   6.188   2.734
 3595WAT     H111027   2.792   6.237   2.665
 3595WAT     H211028   2.726   6.093   2.705
 3596WAT      O11029   1.877   4.384   1.924
 3596WAT     H111030   1.895   4.329   2.005
 3596WAT     H211031   1.858   4.478   1.950
 3597WAT      O11032   4.173   1.727   3.816
 3597WAT     H111033   4.202   1.822   3.811
 3597WAT     H211034   4.209   1.685   3.899
 3598WAT      O11035   6.847   9.096   6.858
 3598WAT     H111036   6.846   8.996   6.852
 3598WAT     H211037   6.798   9.134   6.779
 3599WAT      O11038   4.458   2.231   9.280
 3599WAT     H111039   4.398   2.298   9.323
 3599WAT     H211040   4.553   2.246   9.311
 3600WAT      O11041   7.672   9.346   5.391
 3600WAT     H111042   7.653   9.287   5.470
 3600WAT     H211043   7.695   9.289   5.312
 3601WAT      O11044   3.847   5.377   4.886
 3601WAT     H111045   3.767   5.356   4.830
 3601WAT     H211046   3.820   5.440   4.960
 3602WAT      O11047   6.097   6.587   6.980
 3602WAT     H111048   6.070   6.543   6.894
 3602WAT     H211049   6.029   6.656   7.004
 3603WAT      O11050   6.606   9.158   7.248
 3603WAT     H111051   6.556   9.236   7.211
 3603WAT     H211052   6.671   9.124   7.180
 3604WAT      O11053   0.013   0.014   0.802
 3604WAT     H111054  -0.026  -0.076   0.820
 3604WAT     H211055  -0.061   0.078   0.782
 3605WAT      O11056   9.720   3.600   1.355
 3605WAT     H111057   9.683   3.566   1.268
 3605WAT     H211058   9.664   3.677   1.386
 3606WAT      O11059   0.891   1.897   6.403
 3606WAT     H111060   0.835   1.981   6.410
 3606WAT     H211061   0.831   1.819   6.387
 3607WAT      O11062   2.407   3.319   0.990
 3607WAT     H111063   2.475   3.248   1.007
 3607WAT     H211064   2.391   3.328   0.892
 3608WAT      O11065   5.350   8.270   7.951
 3608WAT     H111066   5.267   8.311   7.990
 3608WAT     H211067   5.375   8.317   7.867
 3609WAT      O11068   8.205   4.035   9.745
 3609WAT     H111069   8.239   4.086   9.823
 3609WAT     H211070   8.137   4.090   9.697
 3610WAT      O11071   6.168   5.920   6.336
 3610WAT     H111072   6.133   5.917   6.430
 3610WAT     H211073   6.254   5.970   6.335
 3611WAT      O11074   2.985   1.124   8.336
 3611WAT     H111075   3.024   1.216   8.325
 3611WAT     H211076   2.897   1.131   8.382
 3612WAT      O11077   0.027   2.953   2.071
 3612WAT     H111078  -0.052   2.963   2.132
 3612WAT     H211079   0.076   3.040   2.066
 3613WAT      O11080   5.033   0.909   3.157
 3613WAT     H111081   5.013   0.978   3.087
 3613WAT     H211082   5.126   0.925   3.193
 3614WAT      O11083   7.292   8.817   4.616
 3614WAT     H111084   7.372   8.758   4.628
 3614WAT     H211085   7.320   8.913   4.615
 3615WAT      O11086   5.698   8.514   7.680
 3615WAT     H111087   5.734   8.558   7.599
 3615WAT     H211088   5.753   8.539   7.760
 3616WAT      O11089   7.863   7.273   1.501
 3616WAT     H111090   7.935   7.340   1.486
 3616WAT     H211091   7.834   7.275   1.596
 3617WAT      O11092   3.778   1.588   2.532
 3617WAT     H111093   3.710   1.549   2.470
 3617WAT     H211094   3.811   1.516   2.594
 3618WAT      O11095   1.774   2.347   7.065
 3618WAT     H111096   1.772   2.282   6.990
 3618WAT     H211097   1.746   2.301   7.150
 3619WAT      O11098   7.361   6.866   6.950
 3619WAT     H111099   7.342   6.775   6.912
 3619WAT     H211100   7.439   6.860   7.013
 3620WAT      O11101   3.690   0.049   0.801
 3620WAT     H111102   3.670   0.146   0.817
 3620WAT     H211103   3.696   0.002   0.889
 3621WAT      O11104   9.151   9.123   6.589
 3621WAT     H111105   9.112   9.070   6.664
 3621WAT     H211106   9.090   9.119   6.510
 3622WAT      O11107   5.163   1.757   9.187
 3622WAT     H111108   5.169   1.851   9.153
 3622WAT     H211109   5.252   1.712   9.177
 3623WAT      O11110   2.173   5.768   4.354
 3623WAT     H111111   2.190   5.789   4.258
 3623WAT     H211112   2.105   5.832   4.391
 3624WAT      O11113   4.388   8.640   4.729
 3624WAT     H111114   4.342   8.664   4.815
 3624WAT     H211115   4.397   8.722   4.672
 3625WAT      O11116   0.293   4.060   7.396
 3625WAT     H111117   0.257   3.966   7.398
 3625WAT     H211118   0.220   4.124   7.420
 3626WAT      O11119   6.337   3.190   3.403
 3626WAT     H111120   6.284   3.190   3.488
 3626WAT     H211121   6.322   3.276   3.354
 3627WAT      O11122   5.982   7.240   5.922
 3627WAT     H111123   5.980   7.165   5.856
 3627WAT     H211124   5.892   7.284   5.925
 3628WAT      O11125   1.425   6.307   4.807
 3628WAT     H111126   1.332   6.282   4.836
 3628WAT     H211127   1.422   6.337   4.712
 3629WAT      O11128   4.559   7.078   6.275
 3629WAT     H111129   4.516   6.988   6.288
 3629WAT     H211130   4.621   7.074   6.196
 3630WAT      O11131   3.316   9.255   1.045
 3630WAT     H111132   3.338   9.169   1.091
 3630WAT     H211133   3.219   9.276   1.059
 3631WAT      O11134   0.374   6.195   6.766
 3631WAT     H111135   0.443   6.249   6.815
 3631WAT     H211136   0.287   6.201   6.814
 3632WAT      O11137   1.529   6.369   1.406
 3632WAT     H111138   1.588   6.384   1.485
 3632WAT     H211139   1.549   6.280   1.365
 3633WAT      O11140   5.769   1.143   7.562
 3633WAT     H111141   5.821   1.210   7.509
 3633WAT     H211142   5.711   1.190   7.628
 3634WAT      O11143   8.023   0.059   5.559
 3634WAT     H111144   8.088   0.124   5.520
 3634WAT     H211145   7.984   0.004   5.485
 3635WAT      O11146   2.177   5.509   7.423
 3635WAT     H111147   2.132   5.429   7.382
 3635WAT     H211148   2.129   5.592   7.394
 3636WAT      O11149   7.872   1.130   5.630
 3636WAT     H111150   7.955   1.075   5.631
 3636WAT     H211151   7.870   1.190   5.709
 3637WAT      O11152   9.800   1.527   2.869
 3637WAT     H111153   9.857   1.580   2.807
 3637WAT     H211154   9.857   1.487   2.941
 3638WAT      O11155   7.433   1.583   9.493
 3638WAT     H111156   7.345   1.591   9.540
 3638WAT     H211157   7.506   1.581   9.561
 3639WAT      O11158   3.617   1.309   1.836
 3639WAT     H111159   3.652   1.369   1.765
 3639WAT     H211160   3.616   1.357   1.923
 3640WAT      O11161   3.093   2.889   8.564
 3640WAT     H111162   3.128   2.980   8.584
 3640WAT     H211163   3.143   2.850   8.486
 3641WAT      O11164   2.275   9.087   9.174
 3641WAT     H111165   2.302   9.001   9.129
 3641WAT     H211166   2.353   9.149   9.177
 3642WAT      O11167   5.556   1.907   9.409
 3642WAT     H111168   5.581   1.882   9.502
 3642WAT     H211169   5.614   1.982   9.377
 3643WAT      O11170   9.102   8.393   2.680
 3643WAT     H111171   9.136   8.435   2.764
 3643WAT     H211172   9.090   8.295   2.695
 3644WAT      O11173   2.822   8.228   6.921
 3644WAT     H111174   2.771   8.312   6.938
 3644WAT     H211175   2.787   8.184   6.839
 3645WAT      O11176   1.204   2.424   8.875
 3645WAT     H111177   1.272   2.363   8.917
 3645WAT     H211178   1.137   2.369   8.826
 3646WAT      O11179   3.758   2.113   4.637
 3646WAT     H111180   3.803   2.166   4.709
 3646WAT     H211181   3.824   2.089   4.566
 3647WAT      O11182   8.932   6.492   0.363
 3647WAT     H111183   8.909   6.431   0.287
 3647WAT     H211184   8.899   6.454   0.449
 3648WAT      O11185   9.337   6.526   7.225
 3648WAT     H111186   9.411   6.520   7.291
 3648WAT     H211187   9.250   6.512   7.271
 3649WAT      O11188   6.136   3.171   8.818
 3649WAT     H111189   6.155   3.268   8.804
 3649WAT     H211190   6.207   3.132   8.877
 3650WAT      O11191   3.315   6.653   6.232
 3650WAT     H111192   3.257   6.631   6.154
 3650WAT     H211193   3.406   6.681   6.200
 3651WAT      O11194   4.087   6.028   0.917
 3651WAT     H111195   4.130   6.114   0.891
 3651WAT     H211196   4.011   6.045   0.980
 3652WAT      O11197   5.575   0.049   6.926
 3652WAT     H111198   5.478   0.032   6.907
 3652WAT     H211199   5.629  -0.028   6.891
 3653WAT      O11200   8.572   3.826   3.284
 3653WAT     H111201   8.644   3.770   3.325
 3653WAT     H211202   8.490   3.822   3.342
 3654WAT      O11203   5.226   2.240   4.640
 3654WAT     H111204   5.323   2.240   4.619
 3654WAT     H211205   5.213   2.231   4.739
 3655WAT      O11206   8.071   7.135   5.178
 3655WAT     H111207   8.107   7.059   5.124
 3655WAT     H211208   8.134   7.157   5.252
 3656WAT      O11209   5.924   1.656   9.153
 3656WAT     H111210   5.938   1.735   9.214
 3656WAT     H211211   6.010   1.608   9.142
 3657WAT      O11212   7.715   8.882   5.655
 3657WAT     H111213   7.795   8.848   5.704
 3657WAT     H211214   7.744   8.941   5.579
 3658WAT      O11215   4.012   8.694   6.482
 3658WAT     H111216   4.060   8.612   6.515
 3658WAT     H211217   3.972   8.743   6.560
 3659WAT      O11218   1.307   5.367   2.168
 3659WAT     H111219   1.267   5.449   2.127
 3659WAT     H211220   1.402   5.384   2.193
 3660WAT      O11221   4.700   0.715   6.663
 3660WAT     H111222   4.689   0.661   6.747
 3660WAT     H211223   4.791   0.698   6.624
 3661WAT      O11224   6.577   6.495   5.143
 3661WAT     H111225   6.634   6.571   5.176
 3661WAT     H211226   6.529   6.523   5.060
 3662WAT      O11227   0.467   3.674   2.781
 3662WAT     H111228   0.516   3.730   2.715
 3662WAT     H211229   0.423   3.597   2.734
 3663WAT      O11230   0.437   2.955   5.198
 3663WAT     H111231   0.507   2.934   5.130
 3663WAT     H211232   0.463   3.038   5.247
 3664WAT      O11233   1.392   7.043   1.539
 3664WAT     H111234   1.428   7.106   1.607
 3664WAT     H211235   1.468   6.998   1.491
 3665WAT      O11236   9.213   6.247   1.221
 3665WAT     H111237   9.276   6.269   1.146
 3665WAT     H211238   9.263   6.202   1.295
 3666WAT      O11239   7.293   6.618   2.568
 3666WAT     H111240   7.346   6.669   2.636
 3666WAT     H211241   7.197   6.646   2.572
 3667WAT      O11242   3.647   3.531   7.042
 3667WAT     H111243   3.730   3.585   7.036
 3667WAT     H211244   3.567   3.591   7.036
 3668WAT      O11245   2.395   5.924   6.425
 3668WAT     H111246   2.316   5.869   6.398
 3668WAT     H211247   2.441   5.879   6.502
 3669WAT      O11248   7.324   5.021   0.900
 3669WAT     H111249   7.321   5.121   0.889
 3669WAT     H211250   7.419   4.990   0.895
 3670WAT      O11251   1.811   2.707   8.296
 3670WAT     H111252   1.743   2.694   8.368
 3670WAT     H211253   1.866   2.787   8.317
 3671WAT      O11254   0.615   9.120   8.655
 3671WAT     H111255   0.652   9.181   8.726
 3671WAT     H211256   0.516   9.115   8.665
 3672WAT      O11257   5.953   7.711   4.368
 3672WAT     H111258   5.890   7.788   4.376
 3672WAT     H211259   5.965   7.688   4.271
 3673WAT      O11260   0.114   9.511   6.564
 3673WAT     H111261   0.019   9.512   6.595
 3673WAT     H211262   0.162   9.435   6.608
 3674WAT      O11263   1.191   4.953   9.820
 3674WAT     H111264   1.286   4.976   9.844
 3674WAT     H211265   1.160   5.012   9.746
 3675WAT      O11266   3.439   5.048   8.240
 3675WAT     H111267   3.507   5.039   8.167
 3675WAT     H211268   3.485   5.040   8.329
 3676WAT      O11269   7.416   8.720   8.408
 3676WAT     H111270   7.390   8.725   8.504
 3676WAT     H211271   7.424   8.812   8.370
 3677WAT      O11272   7.171   1.253   3.638
 3677WAT     H111273   7.191   1.155   3.640
 3677WAT     H211274   7.082   1.269   3.597
 3678WAT      O11275   0.299   0.450   6.335
 3678WAT     H111276   0.276   0.533   6.385
 3678WAT     H211277   0.398   0.448   6.318
 3679WAT      O11278   3.025   1.266   5.077
 3679WAT     H111279   2.936   1.266   5.123
 3679WAT     H211280   3.069   1.355   5.088
 3680WAT      O11281   3.127   1.063   6.653
 3680WAT     H111282   3.157   1.099   6.564
 3680WAT     H211283   3.102   0.966   6.643
 3681WAT      O11284   6.237   6.400   2.505
 3681WAT     H111285   6.305   6.386   2.577
 3681WAT     H211286   6.238   6.321   2.443
 3682WAT      O11287   4.885   5.474   5.651
 3682WAT     H111288   4.840   5.477   5.740
 3682WAT     H211289   4.956   5.403   5.652
 3683WAT      O11290   1.941   3.544   7.479
 3683WAT     H111291   1.892   3.461   7.503
 3683WAT     H211292   1.905   3.581   7.393
 3684WAT      O11293   5.706   7.186   8.920
 3684WAT     H111294   5.734   7.133   9.001
 3684WAT     H211295   5.715   7.128   8.839
 3685WAT      O11296   3.351   2.190   5.329
 3685WAT     H111297   3.412   2.116   5.357
 3685WAT     H211298   3.385   2.277   5.365
 3686WAT      O11299   6.418   6.136   2.782
 3686WAT     H111300   6.352   6.062   2.800
 3686WAT     H211301   6.495   6.100   2.728
 3687WAT      O11302   2.963   8.738   7.457
 3687WAT     H111303   2.894   8.680   7.413
 3687WAT     H211304   2.940   8.834   7.442
 3688WAT      O11305   0.383   7.959   5.279
 3688WAT     H111306   0.325   7.880   5.294
 3688WAT     H211307   0.331   8.030   5.230
 3689WAT      O11308   5.536   9.289   5.929
 3689WAT     H111309   5.527   9.290   6.029
 3689WAT     H211310   5.632   9.271   5.905
 3690WAT      O11311   4.070   4.195   1.952
 3690WAT     H111312   4.015   4.156   2.026
 3690WAT     H211313   4.011   4.212   1.873
 3691WAT      O11314   7.507   3.204   7.323
 3691WAT     H111315   7.571   3.184   7.396
 3691WAT     H211316   7.466   3.120   7.289
 3692WAT      O11317   9.296   9.113   3.811
 3692WAT     H111318   9.324   9.084   3.719
 3692WAT     H211319   9.374   9.149   3.861
 3693WAT      O11320   9.570   1.081   1.682
 3693WAT     H111321   9.641   1.141   1.644
 3693WAT     H211322   9.597   1.052   1.773
 3694WAT      O11323   3.422   5.295   4.515
 3694WAT     H111324   3.367   5.300   4.598
 3694WAT     H211325   3.439   5.199   4.493
 3695WAT      O11326   2.010   0.123   7.918
 3695WAT     H111327   2.057   0.186   7.856
 3695WAT     H211328   1.911   0.137   7.910
 3696WAT      O11329   0.761   3.171   8.312
 3696WAT     H111330   0.663   3.173   8.331
 3696WAT     H211331   0.783   3.236   8.239
 3697WAT      O11332   5.891   4.796   0.619
 3697WAT     H111333   5.956   4.727   0.587
 3697WAT     H211334   5.809   4.751   0.655
 3698WAT      O11335   8.997   1.295   7.140
 3698WAT     H111336   9.030   1.239   7.216
 3698WAT     H211337   9.075   1.338   7.095
 3699WAT      O11338   3.328   6.116   0.260
 3699WAT     H111339   3.364   6.070   0.341
 3699WAT     H211340   3.245   6.166   0.283
 3700WAT      O11341   0.043   1.717   1.047
 3700WAT     H111342   0.070   1.758   1.134
 3700WAT     H211343  -0.055   1.732   1.033
 3701WAT      O11344   9.421   7.122   5.833
 3701WAT     H111345   9.356   7.097   5.761
 3701WAT     H211346   9.394   7.208   5.875
 3702WAT      O11347   9.698   4.610   7.653
 3702WAT     H111348   9.779   4.664   7.629
 3702WAT     H211349   9.697   4.526   7.599
 3703WAT      O11350   6.355   9.378   3.712
 3703WAT     H111351   6.386   9.287   3.684
 3703WAT     H211352   6.261   9.373   3.744
 3704WAT      O11353   7.453   1.989   4.609
 3704WAT     H111354   7.466   1.987   4.708
 3704WAT     H211355   7.449   1.895   4.575
 3705WAT      O11356   8.865   9.675   5.897
 3705WAT     H111357   8.879   9.638   5.989
 3705WAT     H211358   8.888   9.605   5.829
 3706WAT      O11359   4.235   0.714   8.320
 3706WAT     H111360   4.244   0.793   8.260
 3706WAT     H211361   4.326   0.683   8.349
 3707WAT      O11362   9.739   8.043   3.996
 3707WAT     H111363   9.688   7.979   4.054
 3707WAT     H211364   9.831   8.054   4.033
 3708WAT      O11365   4.344   7.059   7.842
 3708WAT     H111366   4.293   7.067   7.757
 3708WAT     H211367   4.423   7.120   7.840
 3709WAT      O11368   1.261   3.467   1.887
 3709WAT     H111369   1.231   3.557   1.920
 3709WAT     H211370   1.354   3.474   1.852
 3710WAT      O11371   2.584   2.486   4.086
 3710WAT     H111372   2.533   2.411   4.045
 3710WAT     H211373   2.539   2.516   4.170
 3711WAT      O11374   4.824   0.234   1.530
 3711WAT     H111375   4.797   0.260   1.623
 3711WAT     H211376   4.781   0.296   1.464
 3712WAT      O11377   3.785   2.538   0.922
 3712WAT     H111378   3.743   2.455   0.959
 3712WAT     H211379   3.714   2.596   0.882
 3713WAT      O11380   6.497   4.431   5.908
 3713WAT     H111381   6.552   4.349   5.924
 3713WAT     H211382   6.466   4.468   5.996
 3714WAT      O11383   6.152   7.393   9.774
 3714WAT     H111384   6.201   7.309   9.798
 3714WAT     H211385   6.217   7.461   9.741
 3715WAT      O11386   1.649   6.357   7.445
 3715WAT     H111387   1.711   6.435   7.445
 3715WAT     H211388   1.701   6.272   7.456
 3716WAT      O11389   7.299   9.103   6.795
 3716WAT     H111390   7.339   9.113   6.703
 3716WAT     H211391   7.216   9.159   6.801
 3717WAT      O11392   5.996   2.095   9.862
 3717WAT     H111393   5.904   2.103   9.825
 3717WAT     H211394   6.025   2.183   9.900
 3718WAT      O11395   5.194   0.878   0.132
 3718WAT     H111396   5.124   0.833   0.189
 3718WAT     H211397   5.280   0.828   0.138
 3719WAT      O11398   4.571   4.362   0.070
 3719WAT     H111399   4.566   4.274   0.024
 3719WAT     H211400   4.638   4.356   0.145
 3720WAT      O11401   4.853   5.251   0.188
 3720WAT     H111402   4.768   5.305   0.188
 3720WAT     H211403   4.832   5.156   0.166
 3721WAT      O11404   8.883   2.655   4.635
 3721WAT     H111405   8.864   2.677   4.730
 3721WAT     H211406   8.955   2.714   4.600
 3722WAT      O11407   1.008   0.190   7.005
 3722WAT     H111408   0.951   0.108   7.001
 3722WAT     H211409   1.074   0.189   6.930
 3723WAT      O11410   1.699   9.300   0.740
 3723WAT     H111411   1.628   9.254   0.688
 3723WAT     H211412   1.773   9.235   0.760
 3724WAT      O11413   6.746   8.048   4.425
 3724WAT     H111414   6.846   8.048   4.423
 3724WAT     H211415   6.712   7.964   4.383
 3725WAT      O11416   6.039   6.009   4.459
 3725WAT     H111417   6.051   6.099   4.416
 3725WAT     H211418   6.128   5.966   4.472
 3726WAT      O11419   4.328   5.184   8.146
 3726WAT     H111420   4.250   5.183   8.208
 3726WAT     H211421   4.318   5.259   8.081
 3727WAT      O11422   3.718   2.540   8.671
 3727WAT     H111423   3.715   2.443   8.694
 3727WAT     H211424   3.733   2.551   8.573
 3728WAT      O11425   2.438   6.290   6.776
 3728WAT     H111426   2.528   6.275   6.734
 3728WAT     H211427   2.448   6.334   6.864
 3729WAT      O11428   0.647   0.489   8.911
 3729WAT     H111429   0.627   0.475   9.007
 3729WAT     H211430   0.746   0.493   8.897
 3730WAT      O11431   2.348   3.179   2.422
 3730WAT     H111432   2.340   3.084   2.391
 3730WAT     H211433   2.261   3.226   2.408
 3731WAT      O11434   7.189   7.961   9.343
 3731WAT     H111435   7.153   8.048   9.309
 3731WAT     H211436   7.114   7.900   9.366
 3732WAT      O11437  -0.002   2.528   5.217
 3732WAT     H111438   0.096   2.510   5.226
 3732WAT     H211439  -0.022   2.622   5.245
 3733WAT      O11440   0.688   5.375   5.350
 3733WAT     H111441   0.781   5.410   5.342
 3733WAT     H211442   0.657   5.342   5.261
 3734WAT      O11443   3.805   7.504   0.946
 3734WAT     H111444   3.803   7.466   0.854
 3734WAT     H211445   3.785   7.433   1.013
 3735WAT      O11446   6.591   7.449   2.940
 3735WAT     H111447   6.653   7.444   3.018
 3735WAT     H211448   6.588   7.543   2.906
 3736WAT      O11449   1.335   8.385   1.230
 3736WAT     H111450   1.337   8.286   1.211
 3736WAT     H211451   1.412   8.410   1.288
 3737WAT      O11452   0.837   7.535   3.510
 3737WAT     H111453   0.793   7.615   3.470
 3737WAT     H211454   0.767   7.471   3.542
 3738WAT      O11455   8.883   8.216   8.657
 3738WAT     H111456   8.848   8.158   8.583
 3738WAT     H211457   8.819   8.291   8.672
 3739WAT      O11458   7.502   4.403   0.123
 3739WAT     H111459   7.522   4.420   0.219
 3739WAT     H211460   7.452   4.481   0.085
 3740WAT      O11461   7.549   8.880   6.197
 3740WAT     H111462   7.644   8.865   6.223
 3740WAT     H211463   7.489   8.854   6.272
 3741WAT      O11464   9.255   5.631   3.159
 3741WAT     H111465   9.279   5.691   3.082
 3741WAT     H211466   9.258   5.683   3.244
 3742WAT      O11467   2.605   6.268   4.695
 3742WAT     H111468   2.518   6.312   4.716
 3742WAT     H211469   2.593   6.169   4.694
 3743WAT      O11470   7.163   7.849   7.517
 3743WAT     H111471   7.249   7.892   7.544
 3743WAT     H211472   7.172   7.750   7.524
 3744WAT      O11473   7.517   6.923   6.399
 3744WAT     H111474   7.446   6.853   6.403
 3744WAT     H211475   7.592   6.892   6.341
 3745WAT      O11476   0.474   6.140   0.398
 3745WAT     H111477   0.380   6.172   0.389
 3745WAT     H211478   0.501   6.144   0.494
 3746WAT      O11479   5.853   8.457   3.959
 3746WAT     H111480   5.801   8.541   3.974
 3746WAT     H211481   5.794   8.377   3.975
 3747WAT      O11482   5.124   3.368   1.818
 3747WAT     H111483   5.047   3.304   1.827
 3747WAT     H211484   5.206   3.318   1.792
 3748WAT      O11485   4.958   4.184   0.655
 3748WAT     H111486   5.002   4.130   0.583
 3748WAT     H211487   4.997   4.276   0.656
 3749WAT      O11488   8.173   4.403   3.953
 3749WAT     H111489   8.148   4.316   3.909
 3749WAT     H211490   8.266   4.397   3.989
 3750WAT      O11491   0.874   8.106   6.574
 3750WAT     H111492   0.796   8.055   6.539
 3750WAT     H211493   0.913   8.059   6.653
 3751WAT      O11494   5.825   0.051   6.273
 3751WAT     H111495   5.766   0.091   6.203
 3751WAT     H211496   5.789   0.074   6.364
 3752WAT      O11497   4.610   9.014   8.321
 3752WAT     H111498   4.633   9.022   8.224
 3752WAT     H211499   4.653   8.931   8.359
 3753WAT      O11500   4.401   2.678   6.945
 3753WAT     H111501   4.382   2.637   7.034
 3753WAT     H211502   4.416   2.605   6.878
 3754WAT      O11503   5.238   9.121   1.887
 3754WAT     H111504   5.300   9.199   1.895
 3754WAT     H211505   5.283   9.038   1.921
 3755WAT      O11506   3.857   4.866   5.270
 3755WAT     H111507   3.839   4.952   5.318
 3755WAT     H211508   3.940   4.823   5.306
 3756WAT      O11509   3.341   3.918   2.733
 3756WAT     H111510   3.337   3.828   2.690
 3756WAT     H211511   3.249   3.947   2.759
 3757WAT      O11512   7.964   6.972   9.009
 3757WAT     H111513   7.932   7.031   8.934
 3757WAT     H211514   7.956   6.876   8.982
 3758WAT      O11515   3.090   6.702   4.843
 3758WAT     H111516   3.184   6.715   4.874
 3758WAT     H211517   3.028   6.756   4.901
 3759WAT      O11518   3.906   8.955   6.005
 3759WAT     H111519   3.946   9.044   6.028
 3759WAT     H211520   3.893   8.901   6.089
 3760WAT      O11521   2.159   5.247   3.557
 3760WAT     H111522   2.123   5.243   3.650
 3760WAT     H211523   2.241   5.190   3.550
 3761WAT      O11524   8.569   3.951   6.388
 3761WAT     H111525   8.519   3.864   6.386
 3761WAT     H211526   8.505   4.027   6.374
 3762WAT      O11527   6.547   7.018   5.581
 3762WAT     H111528   6.477   7.071   5.630
 3762WAT     H211529   6.517   6.923   5.573
 3763WAT      O11530   3.486   4.051   3.512
 3763WAT     H111531   3.580   4.069   3.542
 3763WAT     H211532   3.487   4.022   3.416
 3764WAT      O11533   4.839   5.961   9.545
 3764WAT     H111534   4.749   5.993   9.572
 3764WAT     H211535   4.832   5.914   9.457
 3765WAT      O11536   6.935   6.453   8.428
 3765WAT     H111537   6.913   6.520   8.498
 3765WAT     H211538   6.853   6.400   8.404
 3766WAT      O11539   4.686   4.279   2.357
 3766WAT     H111540   4.724   4.281   2.264
 3766WAT     H211541   4.670   4.372   2.388
 3767WAT      O11542   4.633   1.588   7.387
 3767WAT     H111543   4.572   1.660   7.419
 3767WAT     H211544   4.579   1.509   7.358
 3768WAT      O11545   7.375   2.688   8.550
 3768WAT     H111546   7.320   2.613   8.516
 3768WAT     H211547   7.450   2.653   8.605
 3769WAT      O11548   0.495   2.329   8.878
 3769WAT     H111549   0.519   2.412   8.929
 3769WAT     H211550   0.401   2.337   8.845
 3770WAT      O11551   3.144   6.809   5.870
 3770WAT     H111552   3.178   6.784   5.779
 3770WAT     H211553   3.044   6.818   5.866
 3771WAT      O11554   0.004   4.210   3.585
 3771WAT     H111555   0.007   4.194   3.486
 3771WAT     H211556   0.049   4.134   3.632
 3772WAT      O11557   8.733   9.485   5.261
 3772WAT     H111558   8.672   9.406   5.267
 3772WAT     H211559   8.825   9.454   5.237
 3773WAT      O11560   7.452   9.113   1.537
 3773WAT     H111561   7.514   9.183   1.504
 3773WAT     H211562   7.491   9.022   1.518
 3774WAT      O11563   8.598   4.918   7.274
 3774WAT     H111564   8.583   4.972   7.192
 3774WAT     H211565   8.662   4.967   7.335
 3775WAT      O11566   7.630   0.935   3.064
 3775WAT     H111567   7.578   0.962   3.146
 3775WAT     H211568   7.674   1.016   3.024
 3776WAT      O11569   7.397   5.998   4.559
 3776WAT     H111570   7.351   5.909   4.566
 3776WAT     H211571   7.402   6.024   4.463
 3777WAT      O11572   3.395   0.401   4.354
 3777WAT     H111573   3.443   0.468   4.410
 3777WAT     H211574   3.451   0.319   4.345
 3778WAT      O11575   9.566   2.984   3.588
 3778WAT     H111576   9.636   3.042   3.547
 3778WAT     H211577   9.546   3.016   3.681
 3779WAT      O11578   9.473   5.484   3.939
 3779WAT     H111579   9.511   5.576   3.931
 3779WAT     H211580   9.375   5.489   3.957
 3780WAT      O11581   4.538   7.851   0.752
 3780WAT     H111582   4.604   7.792   0.706
 3780WAT     H211583   4.491   7.800   0.823
 3781WAT      O11584   9.631   2.932   5.907
 3781WAT     H111585   9.599   3.001   5.841
 3781WAT     H211586   9.688   2.976   5.976
 3782WAT      O11587   4.259   7.996   6.080
 3782WAT     H111588   4.199   8.005   6.161
 3782WAT     H211589   4.341   7.945   6.105
 3783WAT      O11590   2.829   9.134   4.774
 3783WAT     H111591   2.826   9.198   4.851
 3783WAT     H211592   2.786   9.048   4.801
 3784WAT      O11593   9.350   9.565   5.966
 3784WAT     H111594   9.364   9.491   5.901
 3784WAT     H211595   9.361   9.530   6.059
 3785WAT      O11596   9.128   0.326   5.055
 3785WAT     H111597   9.178   0.353   5.136
 3785WAT     H211598   9.029   0.330   5.074
 3786WAT      O11599   6.209   7.053   4.358
 3786WAT     H111600   6.236   6.966   4.400
 3786WAT     H211601   6.291   7.105   4.333
 3787WAT      O11602   0.822   0.078   6.420
 3787WAT     H111603   0.777   0.120   6.499
 3787WAT     H211604   0.903   0.131   6.396
 3788WAT      O11605   5.597   0.448   4.086
 3788WAT     H111606   5.514   0.411   4.043
 3788WAT     H211607   5.677   0.396   4.056
 3789WAT      O11608   0.844   0.396   3.654
 3789WAT     H111609   0.849   0.493   3.629
 3789WAT     H211610   0.750   0.364   3.647
 3790WAT      O11611   7.327   5.069   4.648
 3790WAT     H111612   7.271   5.016   4.585
 3790WAT     H211613   7.279   5.153   4.673
 3791WAT      O11614   2.079   0.425   4.688
 3791WAT     H111615   2.006   0.492   4.704
 3791WAT     H211616   2.113   0.435   4.594
 3792WAT      O11617   5.308   4.724   7.830
 3792WAT     H111618   5.223   4.765   7.796
 3792WAT     H211619   5.302   4.625   7.821
 3793WAT      O11620   1.512   6.668   8.933
 3793WAT     H111621   1.453   6.600   8.977
 3793WAT     H211622   1.509   6.754   8.984
 3794WAT      O11623   3.131   1.153   9.093
 3794WAT     H111624   3.038   1.190   9.092
 3794WAT     H211625   3.136   1.078   9.160
 3795WAT      O11626   4.002   1.935   4.652
 3795WAT     H111627   3.984   2.020   4.603
 3795WAT     H211628   4.008   1.953   4.750
 3796WAT      O11629   3.071   8.746   8.011
 3796WAT     H111630   3.010   8.741   8.090
 3796WAT     H211631   3.150   8.687   8.027
 3797WAT      O11632   5.601   1.071   6.065
 3797WAT     H111633   5.510   1.110   6.082
 3797WAT     H211634   5.612   0.987   6.118
 3798WAT      O11635   3.874   8.826   6.260
 3798WAT     H111636   3.907   8.779   6.342
 3798WAT     H211637   3.805   8.894   6.287
 3799WAT      O11638   4.698   2.358   3.048
 3799WAT     H111639   4.610   2.373   3.094
 3799WAT     H211640   4.769   2.343   3.117
 3800WAT      O11641   9.166   6.538   8.483
 3800WAT     H111642   9.105   6.511   8.558
 3800WAT     H211643   9.226   6.461   8.460
 3801WAT      O11644   2.314   9.542   4.384
 3801WAT     H111645   2.393   9.529   4.443
 3801WAT     H211646   2.257   9.460   4.385
 3802WAT      O11647   0.403   4.245   1.015
 3802WAT     H111648   0.331   4.212   0.954
 3802WAT     H211649   0.459   4.312   0.967
 3803WAT      O11650   2.919   8.284   5.249
 3803WAT     H111651   2.988   8.277   5.177
 3803WAT     H211652   2.962   8.312   5.335
 3804WAT      O11653   3.157   2.864   5.734
 3804WAT     H111654   3.240   2.896   5.689
 3804WAT     H211655   3.095   2.825   5.667
 3805WAT      O11656   3.495   7.062   3.022
 3805WAT     H111657   3.478   7.043   3.119
 3805WAT     H211658   3.407   7.070   2.974
 3806WAT      O11659   9.756   1.497   3.693
 3806WAT     H111660   9.715   1.433   3.628
 3806WAT     H211661   9.706   1.584   3.691
 3807WAT      O11662   2.202   7.429   7.027
 3807WAT     H111663   2.213   7.519   7.069
 3807WAT     H211664   2.184   7.440   6.929
 3808WAT      O11665   3.530   1.202   8.052
 3808WAT     H111666   3.575   1.119   8.019
 3808WAT     H211667   3.542   1.210   8.151
 3809WAT      O11668   5.812   9.291   5.195
 3809WAT     H111669   5.878   9.319   5.126
 3809WAT     H211670   5.722   9.330   5.173
 3810WAT      O11671   2.851   4.258   4.760
 3810WAT     H111672   2.860   4.331   4.692
 3810WAT     H211673   2.756   4.252   4.789
 3811WAT      O11674   2.291   8.497   2.495
 3811WAT     H111675   2.223   8.508   2.567
 3811WAT     H211676   2.275   8.565   2.423
 3812WAT      O11677   4.604   7.431   5.983
 3812WAT     H111678   4.575   7.342   5.947
 3812WAT     H211679   4.574   7.440   6.078
 3813WAT      O11680   1.145   6.133   5.689
 3813WAT     H111681   1.151   6.227   5.721
 3813WAT     H211682   1.105   6.130   5.598
 3814WAT      O11683   3.495   6.502   4.167
 3814WAT     H111684   3.561   6.570   4.197
 3814WAT     H211685   3.542   6.430   4.115
 3815WAT      O11686   8.378   3.445   5.989
 3815WAT     H111687   8.372   3.524   5.928
 3815WAT     H211688   8.386   3.361   5.935
 3816WAT      O11689   5.684   7.975   0.731
 3816WAT     H111690   5.657   7.991   0.636
 3816WAT     H211691   5.772   8.020   0.749
 3817WAT      O11692   3.175   9.626   4.988
 3817WAT     H111693   3.231   9.636   4.906
 3817WAT     H211694   3.226   9.659   5.067
 3818WAT      O11695   8.404   2.074   4.592
 3818WAT     H111696   8.498   2.104   4.572
 3818WAT     H211697   8.342   2.153   4.583
 3819WAT      O11698   6.255   9.687   4.226
 3819WAT     H111699   6.322   9.616   4.203
 3819WAT     H211700   6.284   9.733   4.310
 3820WAT      O11701   0.154   3.082   4.096
 3820WAT     H111702   0.183   3.075   4.192
 3820WAT     H211703   0.061   3.047   4.087
 3821WAT      O11704   8.640   6.567   1.276
 3821WAT     H111705   8.576   6.618   1.218
 3821WAT     H211706   8.634   6.600   1.370
 3822WAT      O11707   9.633   0.753   0.477
 3822WAT     H111708   9.534   0.765   0.486
 3822WAT     H211709   9.654   0.656   0.464
 3823WAT      O11710   5.137   6.815   2.495
 3823WAT     H111711   5.126   6.731   2.549
 3823WAT     H211712   5.086   6.807   2.410
 3824WAT      O11713   8.621   7.338   2.444
 3824WAT     H111714   8.638   7.365   2.539
 3824WAT     H211715   8.608   7.239   2.440
 3825WAT      O11716   1.515   2.164   8.413
 3825WAT     H111717   1.479   2.169   8.506
 3825WAT     H211718   1.439   2.167   8.347
 3826WAT      O11719   2.735   1.570   1.435
 3826WAT     H111720   2.755   1.664   1.463
 3826WAT     H211721   2.738   1.509   1.514
 3827WAT      O11722   4.365   8.613   9.131
 3827WAT     H111723   4.412   8.699   9.150
 3827WAT     H211724   4.403   8.541   9.189
 3828WAT      O11725   4.619   6.953   8.621
 3828WAT     H111726   4.713   6.948   8.589
 3828WAT     H211727   4.571   7.025   8.571
 3829WAT      O11728   6.081   9.005   5.739
 3829WAT     H111729   5.987   8.989   5.710
 3829WAT     H211730   6.082   9.059   5.823
 3830WAT      O11731   0.374   8.842   6.229
 3830WAT     H111732   0.286   8.872   6.267
 3830WAT     H211733   0.431   8.806   6.303
 3831WAT      O11734   8.146   6.681   5.889
 3831WAT     H111735   8.235   6.636   5.877
 3831WAT     H211736   8.074   6.619   5.860
 3832WAT      O11737   3.718   1.805   9.273
 3832WAT     H111738   3.698   1.709   9.253
 3832WAT     H211739   3.686   1.862   9.198
 3833WAT      O11740   4.814   8.404   8.067
 3833WAT     H111741   4.812   8.329   8.133
 3833WAT     H211742   4.724   8.414   8.024
 3834WAT      O11743   8.592   9.843   5.278
 3834WAT     H111744   8.640   9.771   5.327
 3834WAT     H211745   8.577   9.921   5.339
 3835WAT      O11746   9.222   7.067   9.692
 3835WAT     H111747   9.137   7.016   9.700
 3835WAT     H211748   9.253   7.066   9.597
 3836WAT      O11749   7.690   8.830   9.095
 3836WAT     H111750   7.682   8.929   9.085
 3836WAT     H211751   7.783   8.806   9.123
 3837WAT      O11752   6.748   8.493   4.616
 3837WAT     H111753   6.724   8.422   4.550
 3837WAT     H211754   6.763   8.452   4.706
 3838WAT      O11755   4.834   2.971   5.865
 3838WAT     H111756   4.868   2.911   5.793
 3838WAT     H211757   4.737   2.954   5.879
 3839WAT      O11758   9.566   1.949   1.685
 3839WAT     H111759   9.596   1.907   1.770
 3839WAT     H211760   9.501   2.022   1.704
 3840WAT      O11761   7.139   5.804   9.421
 3840WAT     H111762   7.065   5.846   9.369
 3840WAT     H211763   7.213   5.777   9.359
 3841WAT      O11764   6.313   1.850   8.175
 3841WAT     H111765   6.346   1.812   8.262
 3841WAT     H211766   6.350   1.796   8.099
 3842WAT      O11767   7.646   4.253   7.332
 3842WAT     H111768   7.665   4.155   7.340
 3842WAT     H211769   7.687   4.302   7.409
 3843WAT      O11770   3.956   3.861   9.873
 3843WAT     H111771   3.948   3.939   9.811
 3843WAT     H211772   4.000   3.890   9.958
 3844WAT      O11773   7.641   0.671   2.675
 3844WAT     H111774   7.665   0.576   2.698
 3844WAT     H211775   7.587   0.711   2.749
 3845WAT      O11776   1.905   3.238   0.100
 3845WAT     H111777   1.808   3.245   0.124
 3845WAT     H211778   1.922   3.285   0.013
 3846WAT      O11779   0.996   5.611   2.794
 3846WAT     H111780   0.952   5.666   2.865
 3846WAT     H211781   0.971   5.645   2.704
 3847WAT      O11782   9.323   3.352   6.023
 3847WAT     H111783   9.303   3.270   5.969
 3847WAT     H211784   9.239   3.406   6.034
 3848WAT      O11785   0.826   1.053   2.761
 3848WAT     H111786   0.830   0.989   2.839
 3848WAT     H211787   0.913   1.102   2.754
 3849WAT      O11788   1.770   3.263   8.065
 3849WAT     H111789   1.706   3.339   8.080
 3849WAT     H211790   1.722   3.187   8.022
 3850WAT      O11791   6.139   1.750   8.860
 3850WAT     H111792   6.220   1.772   8.913
 3850WAT     H211793   6.090   1.835   8.836
 3851WAT      O11794   2.485   6.743   7.731
 3851WAT     H111795   2.520   6.791   7.811
 3851WAT     H211796   2.404   6.792   7.696
 3852WAT      O11797   9.141   5.422   2.502
 3852WAT     H111798   9.125   5.502   2.444
 3852WAT     H211799   9.239   5.405   2.509
 3853WAT      O11800   2.997   9.837   3.771
 3853WAT     H111801   3.037   9.747   3.785
 3853WAT     H211802   3.066   9.899   3.735
 3854WAT      O11803   8.116   0.138   2.768
 3854WAT     H111804   8.123   0.065   2.835
 3854WAT     H211805   8.204   0.184   2.759
 3855WAT      O11806   8.157   3.994   3.160
 3855WAT     H111807   8.222   4.006   3.086
 3855WAT     H211808   8.164   3.901   3.197
 3856WAT      O11809   0.440   0.868   2.586
 3856WAT     H111810   0.457   0.947   2.527
 3856WAT     H211811   0.351   0.877   2.630
 3857WAT      O11812   3.565   8.687   0.080
 3857WAT     H111813   3.521   8.762   0.031
 3857WAT     H211814   3.631   8.642   0.019
 3858WAT      O11815   4.318   4.579   7.727
 3858WAT     H111816   4.298   4.579   7.629
 3858WAT     H211817   4.279   4.497   7.769
 3859WAT      O11818   1.726   1.894   5.133
 3859WAT     H111819   1.790   1.944   5.191
 3859WAT     H211820   1.751   1.908   5.037
 3860WAT      O11821   9.015   2.778   7.441
 3860WAT     H111822   8.924   2.808   7.470
 3860WAT     H211823   9.021   2.784   7.341
 3861WAT      O11824   5.113   1.721   7.732
 3861WAT     H111825   5.045   1.705   7.805
 3861WAT     H211826   5.145   1.633   7.697
 3862WAT      O11827   0.645   0.393   2.627
 3862WAT     H111828   0.699   0.362   2.548
 3862WAT     H211829   0.568   0.448   2.594
 3863WAT      O11830   4.259   7.513   3.924
 3863WAT     H111831   4.249   7.527   3.825
 3863WAT     H211832   4.191   7.446   3.955
 3864WAT      O11833   4.997   4.420   3.466
 3864WAT     H111834   5.071   4.382   3.410
 3864WAT     H211835   4.941   4.346   3.502
 3865WAT      O11836   4.186   1.939   2.258
 3865WAT     H111837   4.245   1.870   2.217
 3865WAT     H211838   4.100   1.945   2.207
 3866WAT      O11839   2.475   8.811   7.659
 3866WAT     H111840   2.552   8.766   7.616
 3866WAT     H211841   2.493   8.822   7.757
 3867WAT      O11842   8.197   7.802   0.138
 3867WAT     H111843   8.243   7.817   0.225
 3867WAT     H211844   8.239   7.724   0.091
 3868WAT      O11845   7.292   1.244   0.615
 3868WAT     H111846   7.359   1.226   0.543
 3868WAT     H211847   7.312   1.186   0.695
 3869WAT      O11848   2.505   3.454   4.055
 3869WAT     H111849   2.493   3.397   4.136
 3869WAT     H211850   2.470   3.546   4.074
 3870WAT      O11851   4.381   1.102   0.168
 3870WAT     H111852   4.352   1.117   0.262
 3870WAT     H211853   4.317   1.147   0.106
 3871WAT      O11854   4.407   1.479   0.145
 3871WAT     H111855   4.314   1.503   0.172
 3871WAT     H211856   4.405   1.427   0.059
 3872WAT      O11857   9.364   2.465   8.331
 3872WAT     H111858   9.269   2.498   8.335
 3872WAT     H211859   9.367   2.381   8.277
 3873WAT      O11860   6.587   8.420   2.269
 3873WAT     H111861   6.497   8.425   2.225
 3873WAT     H211862   6.600   8.501   2.327
 3874WAT      O11863   7.855   0.030   1.362
 3874WAT     H111864   7.809   0.098   1.305
 3874WAT     H211865   7.945   0.010   1.324
 3875WAT      O11866   3.444   0.338   5.403
 3875WAT     H111867   3.420   0.415   5.462
 3875WAT     H211868   3.533   0.301   5.430
 3876WAT      O11869   9.472   9.673   8.208
 3876WAT     H111870   9.561   9.656   8.250
 3876WAT     H211871   9.408   9.600   8.233
 3877WAT      O11872   2.710   8.318   4.352
 3877WAT     H111873   2.649   8.249   4.312
 3877WAT     H211874   2.659   8.372   4.418
 3878WAT      O11875   1.508   1.165   7.834
 3878WAT     H111876   1.511   1.167   7.934
 3878WAT     H211877   1.532   1.074   7.801
 3879WAT      O11878   0.014   2.154   2.268
 3879WAT     H111879  -0.050   2.103   2.210
 3879WAT     H211880   0.082   2.090   2.306
 3880WAT      O11881   6.702   6.032   1.488
 3880WAT     H111882   6.650   6.031   1.573
 3880WAT     H211883   6.653   6.084   1.419
 3881WAT      O11884   8.353   6.254   1.432
 3881WAT     H111885   8.339   6.243   1.334
 3881WAT     H211886   8.269   6.229   1.481
 3882WAT      O11887   9.368   2.760   8.246
 3882WAT     H111888   9.394   2.696   8.174
 3882WAT     H211889   9.401   2.727   8.334
 3883WAT      O11890   2.388   9.700   4.128
 3883WAT     H111891   2.378   9.640   4.209
 3883WAT     H211892   2.325   9.777   4.136
 3884WAT      O11893   0.643   3.938   8.858
 3884WAT     H111894   0.598   4.019   8.822
 3884WAT     H211895   0.645   3.942   8.958
 3885WAT      O11896   6.321   6.070   5.192
 3885WAT     H111897   6.276   6.155   5.219
 3885WAT     H211898   6.253   5.998   5.180
 3886WAT      O11899   5.543   7.608   9.299
 3886WAT     H111900   5.637   7.640   9.295
 3886WAT     H211901   5.487   7.661   9.235
 3887WAT      O11902   3.621   5.763   2.706
 3887WAT     H111903   3.645   5.666   2.697
 3887WAT     H211904   3.557   5.774   2.782
 3888WAT      O11905   0.093   0.252   0.230
 3888WAT     H111906   0.015   0.189   0.227
 3888WAT     H211907   0.070   0.329   0.290
 3889WAT      O11908   2.941   3.520   9.067
 3889WAT     H111909   2.955   3.425   9.094
 3889WAT     H211910   3.014   3.576   9.107
 3890WAT      O11911   2.598   8.038   4.053
 3890WAT     H111912   2.561   8.128   4.029
 3890WAT     H211913   2.608   8.032   4.152
 3891WAT      O11914   0.909   4.941   5.385
 3891WAT     H111915   0.818   4.926   5.424
 3891WAT     H211916   0.950   4.853   5.363
 3892WAT      O11917   1.385   7.004   2.327
 3892WAT     H111918   1.450   7.032   2.257
 3892WAT     H211919   1.402   7.054   2.411
 3893WAT      O11920   2.518   8.919   0.643
 3893WAT     H111921   2.575   8.865   0.582
 3893WAT     H211922   2.530   9.017   0.622
 3894WAT      O11923   0.047   7.378   0.700
 3894WAT     H111924   0.119   7.363   0.768
 3894WAT     H211925  -0.012   7.297   0.696
 3895WAT      O11926   3.516   0.412   5.803
 3895WAT     H111927   3.593   0.386   5.744
 3895WAT     H211928   3.460   0.332   5.822
 3896WAT      O11929   6.758   6.158   2.989
 3896WAT     H111930   6.734   6.248   3.026
 3896WAT     H211931   6.684   6.094   3.007
 3897WAT      O11932   3.339   5.339   3.734
 3897WAT     H111933   3.265   5.371   3.675
 3897WAT     H211934   3.427   5.364   3.694
 3898WAT      O11935   3.864   5.655   3.002
 3898WAT     H111936   3.816   5.574   2.967
 3898WAT     H211937   3.933   5.626   3.068
 3899WAT      O11938   7.991   4.490   8.343
 3899WAT     H111939   7.973   4.560   8.274
 3899WAT     H211940   8.065   4.522   8.403
 3900WAT      O11941   4.477   7.230   0.584
 3900WAT     H111942   4.411   7.298   0.553
 3900WAT     H211943   4.436   7.139   0.580
 3901WAT      O11944   2.714   0.756   2.939
 3901WAT     H111945   2.667   0.670   2.920
 3901WAT     H211946   2.752   0.753   3.032
 3902WAT      O11947   7.678   1.702   7.788
 3902WAT     H111948   7.747   1.773   7.799
 3902WAT     H211949   7.721   1.612   7.791
 3903WAT      O11950   4.103   1.369   3.464
 3903WAT     H111951   4.132   1.336   3.554
 3903WAT     H211952   4.184   1.388   3.408
 3904WAT      O11953   0.435   7.869   3.212
 3904WAT     H111954   0.393   7.806   3.148
 3904WAT     H211955   0.384   7.955   3.213
 3905WAT      O11956   3.533   6.801   7.835
 3905WAT     H111957   3.451   6.847   7.870
 3905WAT     H211958   3.594   6.869   7.795
 3906WAT      O11959   5.249   1.088   4.986
 3906WAT     H111960   5.170   1.084   5.047
 3906WAT     H211961   5.264   0.998   4.945
 3907WAT      O11962   6.481   5.781   7.309
 3907WAT     H111963   6.492   5.846   7.385
 3907WAT     H211964   6.441   5.829   7.230
 3908WAT      O11965   6.106   5.957   3.232
 3908WAT     H111966   6.022   6.008   3.249
 3908WAT     H211967   6.140   5.918   3.318
 3909WAT      O11968   7.410   4.907   8.850
 3909WAT     H111969   7.354   4.956   8.784
 3909WAT     H211970   7.473   4.847   8.801
 3910WAT      O11971   7.026   3.584   5.780
 3910WAT     H111972   7.090   3.610   5.708
 3910WAT     H211973   7.071   3.588   5.869
 3911WAT      O11974   9.334   5.770   4.878
 3911WAT     H111975   9.301   5.698   4.940
 3911WAT     H211976   9.315   5.859   4.919
 3912WAT      O11977   2.601   0.986   2.571
 3912WAT     H111978   2.689   0.972   2.617
 3912WAT     H211979   2.558   0.897   2.555
 3913WAT      O11980   7.163   7.063   0.414
 3913WAT     H111981   7.169   7.082   0.315
 3913WAT     H211982   7.169   7.149   0.464
 3914WAT      O11983   8.951   0.334   3.001
 3914WAT     H111984   9.022   0.374   2.943
 3914WAT     H211985   8.970   0.356   3.097
 3915WAT      O11986   0.789   8.554   4.955
 3915WAT     H111987   0.796   8.521   5.050
 3915WAT     H211988   0.872   8.531   4.906
 3916WAT      O11989   1.489   7.140   9.451
 3916WAT     H111990   1.510   7.169   9.544
 3916WAT     H211991   1.505   7.216   9.388
 3917WAT      O11992   4.497   1.560   0.921
 3917WAT     H111993   4.551   1.596   0.845
 3917WAT     H211994   4.439   1.633   0.958
 3918WAT      O11995   3.326   4.407   2.764
 3918WAT     H111996   3.252   4.466   2.799
 3918WAT     H211997   3.303   4.312   2.781
 3919WAT      O11998   8.869   6.877   1.775
 3919WAT     H111999   8.868   6.791   1.724
 3919WAT     H212000   8.787   6.930   1.753
 3920WAT      O12001   7.351   9.643   1.208
 3920WAT     H112002   7.437   9.689   1.230
 3920WAT     H212003   7.313   9.681   1.123
 3921WAT      O12004   9.706   2.012   2.528
 3921WAT     H112005   9.641   1.967   2.589
 3921WAT     H212006   9.710   1.963   2.441
 3922WAT      O12007   5.094   3.264   1.507
 3922WAT     H112008   5.120   3.361   1.503
 3922WAT     H212009   5.043   3.248   1.592
 3923WAT      O12010   2.272   8.701   5.074
 3923WAT     H112011   2.236   8.710   5.167
 3923WAT     H212012   2.219   8.633   5.024
 3924WAT      O12013   9.719   7.825   1.516
 3924WAT     H112014   9.631   7.820   1.564
 3924WAT     H212015   9.705   7.863   1.424
 3925WAT      O12016   1.837   2.543   5.657
 3925WAT     H112017   1.783   2.464   5.685
 3925WAT     H212018   1.844   2.545   5.557
 3926WAT      O12019   8.216   0.762   5.771
 3926WAT     H112020   8.281   0.779   5.846
 3926WAT     H212021   8.126   0.742   5.810
 3927WAT      O12022   3.616   4.471   1.467
 3927WAT     H112023   3.657   4.415   1.395
 3927WAT     H212024   3.672   4.464   1.550
 3928WAT      O12025   9.127   9.658   7.517
 3928WAT     H112026   9.080   9.590   7.461
 3928WAT     H212027   9.127   9.746   7.469
 3929WAT      O12028   5.146   8.799   5.774
 3929WAT     H112029   5.135   8.891   5.737
 3929WAT     H212030   5.066   8.777   5.830
 3930WAT      O12031   8.904   0.006   5.351
 3930WAT     H112032   8.837   0.003   5.425
 3930WAT     H212033   8.922   0.101   5.327
 3931WAT      O12034   7.139   8.847   7.971
 3931WAT     H112035   7.153   8.883   7.879
 3931WAT     H212036   7.134   8.923   8.036
 3932WAT      O12037   6.911   8.729   6.437
 3932WAT     H112038   6.921   8.806   6.373
 3932WAT     H212039   6.968   8.745   6.517
 3933WAT      O12040   1.983   5.625   9.751
 3933WAT     H112041   1.948   5.718   9.751
 3933WAT     H212042   1.950   5.576   9.670
 3934WAT      O12043   5.537   8.717   9.409
 3934WAT     H112044   5.556   8.622   9.387
 3934WAT     H212045   5.511   8.724   9.506
 3935WAT      O12046   8.304   9.551   9.854
 3935WAT     H112047   8.330   9.495   9.933
 3935WAT     H212048   8.233   9.504   9.802
 3936WAT      O12049   6.662   2.929   9.321
 3936WAT     H112050   6.707   2.923   9.410
 3936WAT     H212051   6.732   2.939   9.250
 3937WAT      O12052   0.180   9.284   9.348
 3937WAT     H112053   0.206   9.347   9.274
 3937WAT     H212054   0.262   9.249   9.393
 3938WAT      O12055   2.348   1.440   0.127
 3938WAT     H112056   2.270   1.429   0.188
 3938WAT     H212057   2.338   1.525   0.075
 3939WAT      O12058   2.591   4.651   5.662
 3939WAT     H112059   2.585   4.641   5.762
 3939WAT     H212060   2.614   4.746   5.640
 3940WAT      O12061   6.289   8.395   0.362
 3940WAT     H112062   6.253   8.302   0.376
 3940WAT     H212063   6.225   8.461   0.401
 3941WAT      O12064   0.096   4.367   7.347
 3941WAT     H112065   0.019   4.321   7.303
 3941WAT     H212066   0.081   4.372   7.445
 3942WAT      O12067   8.074   1.702   9.336
 3942WAT     H112068   8.142   1.677   9.405
 3942WAT     H212069   8.120   1.726   9.251
 3943WAT      O12070   9.479   7.564   0.259
 3943WAT     H112071   9.425   7.572   0.175
 3943WAT     H212072   9.428   7.510   0.326
 3944WAT      O12073   2.949   0.474   7.066
 3944WAT     H112074   3.005   0.422   7.131
 3944WAT     H212075   2.925   0.562   7.106
 3945WAT      O12076   0.122   1.147   0.419
 3945WAT     H112077   0.072   1.225   0.379
 3945WAT     H212078   0.082   1.125   0.508
 3946WAT      O12079   3.975   6.635   2.349
 3946WAT     H112080   3.993   6.721   2.397
 3946WAT     H212081   4.049   6.617   2.284
 3947WAT      O12082   8.043   5.756   3.111
 3947WAT     H112083   7.983   5.704   3.172
 3947WAT     H212084   8.130   5.707   3.101
 3948WAT      O12085   7.239   6.565   9.310
 3948WAT     H112086   7.250   6.552   9.211
 3948WAT     H212087   7.229   6.477   9.355
 3949WAT      O12088   0.226   2.647   8.124
 3949WAT     H112089   0.164   2.712   8.080
 3949WAT     H212090   0.208   2.646   8.223
 3950WAT      O12091   4.887   9.050   7.453
 3950WAT     H112092   4.932   8.962   7.470
 3950WAT     H212093   4.918   9.088   7.366
 3951WAT      O12094   5.711   1.903   3.765
 3951WAT     H112095   5.687   1.806   3.767
 3951WAT     H212096   5.683   1.946   3.851
 3952WAT      O12097   8.736   2.720   4.216
 3952WAT     H112098   8.702   2.765   4.299
 3952WAT     H212099   8.825   2.758   4.192
 3953WAT      O12100   8.507   8.935   9.354
 3953WAT     H112101   8.563   8.866   9.309
 3953WAT     H212102   8.514   8.925   9.453
 3954WAT      O12103   4.674   8.466   9.882
 3954WAT     H112104   4.767   8.455   9.916
 3954WAT     H212105   4.621   8.521   9.946
 3955WAT      O12106   4.035   1.919   5.444
 3955WAT     H112107   3.962   1.860   5.410
 3955WAT     H212108   4.001   1.973   5.522
 3956WAT      O12109   1.230   5.321   2.426
 3956WAT     H112110   1.260   5.229   2.452
 3956WAT     H212111   1.246   5.335   2.328
 3957WAT      O12112   7.064   3.084   2.367
 3957WAT     H112113   7.154   3.123   2.387
 3957WAT     H212114   7.008   3.086   2.450
 3958WAT      O12115   3.456   0.686   2.894
 3958WAT     H112116   3.512   0.736   2.960
 3958WAT     H212117   3.371   0.736   2.877
 3959WAT      O12118   1.673   0.581   8.027
 3959WAT     H112119   1.591   0.529   8.050
 3959WAT     H212120   1.697   0.640   8.104
 3960WAT      O12121   1.354   3.293   9.520
 3960WAT     H112122   1.419   3.237   9.571
 3960WAT     H212123   1.394   3.320   9.433
 3961WAT      O12124   6.961   2.300   7.212
 3961WAT     H112125   7.022   2.379   7.200
 3961WAT     H212126   7.015   2.216   7.208
 3962WAT      O12127   2.758   7.872   2.059
 3962WAT     H112128   2.679   7.899   2.115
 3962WAT     H212129   2.840   7.915   2.095
 3963WAT      O12130   8.096   2.739   1.097
 3963WAT     H112131   8.098   2.831   1.058
 3963WAT     H212132   8.127   2.742   1.192
 3964WAT      O12133   0.691   5.174   5.541
 3964WAT     H112134   0.651   5.227   5.467
 3964WAT     H212135   0.624   5.109   5.576
 3965WAT      O12136   5.710   1.391   3.351
 3965WAT     H112137   5.800   1.433   3.344
 3965WAT     H212138   5.720   1.294   3.375
 3966WAT      O12139   4.019   7.791   1.531
 3966WAT     H112140   4.066   7.813   1.616
 3966WAT     H212141   3.957   7.866   1.507
 3967WAT      O12142   3.557   3.310   3.530
 3967WAT     H112143   3.514   3.364   3.457
 3967WAT     H212144   3.583   3.371   3.605
 3968WAT      O12145   7.219   3.623   5.613
 3968WAT     H112146   7.225   3.723   5.620
 3968WAT     H212147   7.193   3.598   5.520
 3969WAT      O12148   4.487   2.442   5.628
 3969WAT     H112149   4.539   2.365   5.666
 3969WAT     H212150   4.390   2.421   5.631
 3970WAT      O12151   7.862   2.393   0.787
 3970WAT     H112152   7.891   2.322   0.722
 3970WAT     H212153   7.859   2.481   0.741
 3971WAT      O12154   2.320   3.895   9.615
 3971WAT     H112155   2.418   3.915   9.618
 3971WAT     H212156   2.275   3.959   9.552
 3972WAT      O12157   3.669   5.769   0.385
 3972WAT     H112158   3.759   5.747   0.422
 3972WAT     H212159   3.677   5.791   0.288
 3973WAT      O12160   3.933   5.102   9.832
 3973WAT     H112161   4.006   5.057   9.779
 3973WAT     H212162   3.957   5.198   9.847
 3974WAT      O12163   5.500   4.741   2.831
 3974WAT     H112164   5.490   4.701   2.739
 3974WAT     H212165   5.462   4.677   2.898
 3975WAT      O12166   4.820   0.153   2.488
 3975WAT     H112167   4.863   0.070   2.451
 3975WAT     H212168   4.853   0.168   2.581
 3976WAT      O12169   4.636   5.734   7.241
 3976WAT     H112170   4.601   5.805   7.180
 3976WAT     H212171   4.562   5.672   7.266
 3977WAT      O12172   2.627   5.102   6.922
 3977WAT     H112173   2.690   5.158   6.868
 3977WAT     H212174   2.591   5.028   6.865
 3978WAT      O12175   9.597   8.769   1.688
 3978WAT     H112176   9.541   8.851   1.699
 3978WAT     H212177   9.540   8.693   1.658
 3979WAT      O12178   2.663   1.077   0.841
 3979WAT     H112179   2.572   1.036   0.844
 3979WAT     H212180   2.709   1.063   0.929
 3980WAT      O12181   9.104   8.946   7.719
 3980WAT     H112182   9.109   9.040   7.684
 3980WAT     H212183   9.197   8.911   7.735
 3981WAT      O12184   5.584   0.791   0.085
 3981WAT     H112185   5.547   0.743   0.005
 3981WAT     H212186   5.666   0.841   0.059
 3982WAT      O12187   0.657   0.395   5.483
 3982WAT     H112188   0.580   0.391   5.547
 3982WAT     H212189   0.629   0.444   5.400
 3983WAT      O12190   0.578   7.511   6.401
 3983WAT     H112191   0.536   7.433   6.448
 3983WAT     H212192   0.521   7.593   6.416
 3984WAT      O12193   6.021   7.572   8.002
 3984WAT     H112194   6.069   7.620   7.928
 3984WAT     H212195   6.035   7.622   8.088
 3985WAT      O12196   6.251   5.913   3.750
 3985WAT     H112197   6.337   5.946   3.788
 3985WAT     H212198   6.247   5.814   3.758
 3986WAT      O12199   1.193   3.727   1.646
 3986WAT     H112200   1.170   3.811   1.598
 3986WAT     H212201   1.167   3.736   1.743
 3987WAT      O12202   4.282   6.260   8.692
 3987WAT     H112203   4.319   6.351   8.706
 3987WAT     H212204   4.231   6.232   8.774
 3988WAT      O12205   1.085   1.078   2.711
 3988WAT     H112206   1.169   1.103   2.759
 3988WAT     H212207   1.098   0.992   2.662
 3989WAT      O12208   4.342   0.959   7.843
 3989WAT     H112209   4.286   0.877   7.852
 3989WAT     H212210   4.394   0.954   7.757
 3990WAT      O12211   0.796   3.057   3.884
 3990WAT     H112212   0.760   2.983   3.827
 3990WAT     H212213   0.813   3.137   3.826
 3991WAT      O12214   9.032   8.758   0.589
 3991WAT     H112215   9.113   8.720   0.544
 3991WAT     H212216   8.969   8.794   0.520
 3992WAT      O12217   5.424   8.629   1.898
 3992WAT     H112218   5.361   8.558   1.867
 3992WAT     H212219   5.509   8.625   1.845
 3993WAT      O12220   5.884   4.867   3.568
 3993WAT     H112221   5.936   4.782   3.556
 3993WAT     H212222   5.887   4.919   3.483
 3994WAT      O12223   9.275   1.219   2.998
 3994WAT     H112224   9.313   1.131   3.026
 3994WAT     H212225   9.335   1.262   2.930
 3995WAT      O12226   7.524   3.972   1.316
 3995WAT     H112227   7.558   4.062   1.291
 3995WAT     H212228   7.600   3.907   1.318
 3996WAT      O12229   5.627   6.330   2.631
 3996WAT     H112230   5.658   6.242   2.595
 3996WAT     H212231   5.534   6.321   2.667
 3997WAT      O12232   8.152   9.679   2.058
 3997WAT     H112233   8.182   9.774   2.043
 3997WAT     H212234   8.056   9.678   2.084
 3998WAT      O12235   5.029   6.632   4.565
 3998WAT     H112236   5.056   6.725   4.541
 3998WAT     H212237   5.009   6.627   4.663
 3999WAT      O12238   4.907   0.989   3.584
 3999WAT     H112239   4.939   1.084   3.589
 3999WAT     H212240   4.837   0.982   3.513
 4000WAT      O12241   2.439   5.302   2.662
 4000WAT     H112242   2.415   5.318   2.757
 4000WAT     H212243   2.374   5.239   2.621
 4001WAT      O12244   9.283   0.031   0.624
 4001WAT     H112245   9.289  -0.068   0.611
 4001WAT     H212246   9.190   0.062   0.603
 4002WAT      O12247   7.745   7.444   5.663
 4002WAT     H112248   7.785   7.443   5.572
 4002WAT     H212249   7.670   7.509   5.666
 4003WAT      O12250   4.820   1.728   2.692
 4003WAT     H112251   4.767   1.660   2.641
 4003WAT     H212252   4.765   1.810   2.706
 4004WAT      O12253   6.034   8.715   2.769
 4004WAT     H112254   6.128   8.684   2.751
 4004WAT     H212255   5.980   8.639   2.805
 4005WAT      O12256   7.448   3.905   1.931
 4005WAT     H112257   7.495   3.939   1.850
 4005WAT     H212258   7.481   3.813   1.954
 4006WAT      O12259   3.946   3.633   7.408
 4006WAT     H112260   3.974   3.709   7.466
 4006WAT     H212261   4.015   3.561   7.411
 4007WAT      O12262   7.408   7.249   3.487
 4007WAT     H112263   7.469   7.304   3.544
 4007WAT     H212264   7.441   7.154   3.485
 4008WAT      O12265   1.434   1.976   3.246
 4008WAT     H112266   1.525   1.936   3.260
 4008WAT     H212267   1.441   2.057   3.188
 4009WAT      O12268   7.048   7.865   0.923
 4009WAT     H112269   7.000   7.885   1.009
 4009WAT     H212270   7.146   7.855   0.941
 4010WAT      O12271   2.200   2.143   8.488
 4010WAT     H112272   2.291   2.112   8.517
 4010WAT     H212273   2.207   2.192   8.401
 4011WAT      O12274   7.104   8.729   9.409
 4011WAT     H112275   7.200   8.707   9.396
 4011WAT     H212276   7.067   8.677   9.486
 4012WAT      O12277   6.961   4.076   3.039
 4012WAT     H112278   6.888   4.029   3.088
 4012WAT     H212279   6.957   4.174   3.057
 4013WAT      O12280   2.429   5.571   1.642
 4013WAT     H112281   2.365   5.522   1.583
 4013WAT     H212282   2.408   5.668   1.640
 4014WAT      O12283   4.750   8.547   0.713
 4014WAT     H112284   4.845   8.572   0.728
 4014WAT     H212285   4.745   8.471   0.649
 4015WAT      O12286   2.691   9.696   0.197
 4015WAT     H112287   2.706   9.775   0.257
 4015WAT     H212288   2.710   9.722   0.102
 4016WAT      O12289   1.766   7.985   0.146
 4016WAT     H112290   1.668   7.981   0.128
 4016WAT     H212291   1.782   8.031   0.233
 4017WAT      O12292   1.857   8.691   0.996
 4017WAT     H112293   1.885   8.640   1.076
 4017WAT     H212294   1.766   8.729   1.012
 4018WAT      O12295   4.924   5.090   6.103
 4018WAT     H112296   4.998   5.153   6.125
 4018WAT     H212297   4.840   5.120   6.148
 4019WAT      O12298   7.632   4.210   1.951
 4019WAT     H112299   7.726   4.223   1.981
 4019WAT     H212300   7.631   4.182   1.855
 4020WAT      O12301   6.004   1.563   2.584
 4020WAT     H112302   5.938   1.538   2.513
 4020WAT     H212303   5.961   1.622   2.651
 4021WAT      O12304   5.325   3.752   1.576
 4021WAT     H112305   5.422   3.759   1.553
 4021WAT     H212306   5.271   3.800   1.506
 4022WAT      O12307   0.591   3.538   8.700
 4022WAT     H112308   0.546   3.609   8.646
 4022WAT     H212309   0.623   3.465   8.640
 4023WAT      O12310   1.508   3.922   4.585
 4023WAT     H112311   1.488   3.908   4.683
 4023WAT     H212312   1.526   4.019   4.568
 4024WAT      O12313   3.996   4.857   4.948
 4024WAT     H112314   3.937   4.931   4.917
 4024WAT     H212315   4.019   4.797   4.871
 4025WAT      O12316   3.280   0.406   8.909
 4025WAT     H112317   3.347   0.336   8.934
 4025WAT     H212318   3.256   0.461   8.989
 4026WAT      O12319   6.420   4.825   0.150
 4026WAT     H112320   6.491   4.766   0.112
 4026WAT     H212321   6.462   4.897   0.204
 4027WAT      O12322   6.327   6.908   8.290
 4027WAT     H112323   6.317   6.922   8.388
 4027WAT     H212324   6.298   6.990   8.241
 4028WAT      O12325   7.824   1.918   5.958
 4028WAT     H112326   7.824   1.820   5.977
 4028WAT     H212327   7.899   1.961   6.008
 4029WAT      O12328   3.758   7.716   4.922
 4029WAT     H112329   3.742   7.639   4.984
 4029WAT     H212330   3.717   7.798   4.960
 4030WAT      O12331   5.849   5.216   6.556
 4030WAT     H112332   5.930   5.274   6.562
 4030WAT     H212333   5.863   5.134   6.611
 4031WAT      O12334   2.861   7.885   8.925
 4031WAT     H112335   2.960   7.903   8.924
 4031WAT     H212336   2.837   7.827   8.848
 4032WAT      O12337   2.127   1.038   0.986
 4032WAT     H112338   2.046   1.021   0.930
 4032WAT     H212339   2.117   1.125   1.034
 4033WAT      O12340   4.099   1.891   9.871
 4033WAT     H112341   4.037   1.902   9.793
 4033WAT     H212342   4.046   1.877   9.955
 4034WAT      O12343   4.771   8.017   7.069
 4034WAT     H112344   4.683   8.038   7.026
 4034WAT     H212345   4.771   8.053   7.162
 4035WAT      O12346   6.256   3.337   9.038
 4035WAT     H112347   6.243   3.400   8.961
 4035WAT     H212348   6.268   3.389   9.122
 4036WAT      O12349   5.997   1.138   1.757
 4036WAT     H112350   6.017   1.145   1.659
 4036WAT     H212351   6.073   1.092   1.803
 4037WAT      O12352   1.664   5.705   0.634
 4037WAT     H112353   1.660   5.608   0.658
 4037WAT     H212354   1.759   5.730   0.610
 4038WAT      O12355   5.241   1.698   0.296
 4038WAT     H112356   5.260   1.652   0.383
 4038WAT     H212357   5.315   1.762   0.275
 4039WAT      O12358   5.198   5.443   0.883
 4039WAT     H112359   5.232   5.350   0.875
 4039WAT     H212360   5.262   5.506   0.839
 4040WAT      O12361   7.408   6.647   9.780
 4040WAT     H112362   7.404   6.657   9.681
 4040WAT     H212363   7.317   6.626   9.815
 4041WAT      O12364   8.439   6.134   7.501
 4041WAT     H112365   8.465   6.217   7.550
 4041WAT     H212366   8.475   6.139   7.407
 4042WAT      O12367   2.910   0.961   1.278
 4042WAT     H112368   2.850   0.964   1.358
 4042WAT     H212369   3.005   0.969   1.307
 4043WAT      O12370   2.578   6.626   1.597
 4043WAT     H112371   2.646   6.642   1.525
 4043WAT     H212372   2.499   6.579   1.558
 4044WAT      O12373   1.771   4.098   7.491
 4044WAT     H112374   1.724   4.011   7.502
 4044WAT     H212375   1.703   4.171   7.480
 4045WAT      O12376   4.159   3.012   0.054
 4045WAT     H112377   4.108   3.092   0.087
 4045WAT     H212378   4.183   2.954   0.132
 4046WAT      O12379   4.138   5.298   6.487
 4046WAT     H112380   4.211   5.295   6.555
 4046WAT     H212381   4.111   5.204   6.464
 4047WAT      O12382   1.178   5.033   2.963
 4047WAT     H112383   1.128   5.113   2.931
 4047WAT     H212384   1.145   5.006   3.053
 4048WAT      O12385   2.188   7.043   1.677
 4048WAT     H112386   2.116   6.981   1.646
 4048WAT     H212387   2.207   7.110   1.605
 4049WAT      O12388   0.575   1.823   1.218
 4049WAT     H112389   0.568   1.850   1.122
 4049WAT     H212390   0.582   1.905   1.276
 4050WAT      O12391   7.618   9.140   8.868
 4050WAT     H112392   7.605   9.237   8.849
 4050WAT     H212393   7.634   9.127   8.965
 4051WAT      O12394   3.905   5.189   3.688
 4051WAT     H112395   3.985   5.241   3.718
 4051WAT     H212396   3.907   5.180   3.588
 4052WAT      O12397   2.155   1.171   7.822
 4052WAT     H112398   2.106   1.185   7.908
 4052WAT     H212399   2.249   1.204   7.831
 4053WAT      O12400   8.693   1.950   6.721
 4053WAT     H112401   8.721   2.040   6.686
 4053WAT     H212402   8.621   1.913   6.662
 4054WAT      O12403   1.474   6.153   6.516
 4054WAT     H112404   1.457   6.091   6.440
 4054WAT     H212405   1.564   6.195   6.504
 4055WAT      O12406   2.394   4.629   8.247
 4055WAT     H112407   2.435   4.538   8.244
 4055WAT     H212408   2.356   4.645   8.339
 4056WAT      O12409   5.442   7.279   5.996
 4056WAT     H112410   5.384   7.277   5.914
 4056WAT     H212411   5.418   7.202   6.056
 4057WAT      O12412   1.000   3.851   0.788
 4057WAT     H112413   1.078   3.910   0.768
 4057WAT     H212414   0.917   3.892   0.749
 4058WAT      O12415   5.612   2.677   1.697
 4058WAT     H112416   5.605   2.712   1.790
 4058WAT     H212417   5.600   2.752   1.632
 4059WAT      O12418   1.160   9.357   8.938
 4059WAT     H112419   1.177   9.442   8.988
 4059WAT     H212420   1.184   9.370   8.842
 4060WAT      O12421   7.854   7.832   3.123
 4060WAT     H112422   7.897   7.781   3.048
 4060WAT     H212423   7.802   7.769   3.180
 4061WAT      O12424   3.651   0.348   4.132
 4061WAT     H112425   3.662   0.436   4.178
 4061WAT     H212426   3.622   0.363   4.037
 4062WAT      O12427   0.151   5.058   2.932
 4062WAT     H112428   0.064   5.106   2.943
 4062WAT     H212429   0.136   4.959   2.941
 4063WAT      O12430   8.371   0.261   2.777
 4063WAT     H112431   8.365   0.346   2.829
 4063WAT     H212432   8.450   0.208   2.808
 4064WAT      O12433   9.420   9.522   6.227
 4064WAT     H112434   9.483   9.456   6.269
 4064WAT     H212435   9.399   9.594   6.293
 4065WAT      O12436   6.955   7.277   8.847
 4065WAT     H112437   6.905   7.271   8.760
 4065WAT     H212438   6.896   7.248   8.922
 4066WAT      O12439   2.342   1.668   5.246
 4066WAT     H112440   2.244   1.660   5.231
 4066WAT     H212441   2.381   1.577   5.261
 4067WAT      O12442   4.982   5.087   0.604
 4067WAT     H112443   4.962   5.179   0.634
 4067WAT     H212444   5.007   5.088   0.507
 4068WAT      O12445   5.007   6.381   2.379
 4068WAT     H112446   4.955   6.336   2.452
 4068WAT     H212447   5.101   6.347   2.379
 4069WAT      O12448   2.799   0.128   8.411
 4069WAT     H112449   2.724   0.131   8.345
 4069WAT     H212450   2.830   0.221   8.430
 4070WAT      O12451   0.377   4.904   9.340
 4070WAT     H112452   0.475   4.896   9.321
 4070WAT     H212453   0.356   4.998   9.367
 4071WAT      O12454   5.793   6.005   0.992
 4071WAT     H112455   5.821   5.950   0.913
 4071WAT     H212456   5.749   5.946   1.060
 4072WAT      O12457   0.321   5.043   2.728
 4072WAT     H112458   0.311   5.116   2.660
 4072WAT     H212459   0.244   5.048   2.793
 4073WAT      O12460   7.805   1.223   5.374
 4073WAT     H112461   7.811   1.180   5.464
 4073WAT     H212462   7.713   1.259   5.360
 4074WAT      O12463   6.880   6.282   0.190
 4074WAT     H112464   6.897   6.307   0.094
 4074WAT     H212465   6.826   6.354   0.233
 4075WAT      O12466   9.843   4.942   7.403
 4075WAT     H112467   9.863   4.845   7.388
 4075WAT     H212468   9.777   4.974   7.335
 4076WAT      O12469   4.332   6.948   9.231
 4076WAT     H112470   4.335   7.021   9.162
 4076WAT     H212471   4.238   6.919   9.244
 4077WAT      O12472   9.512   1.777   2.925
 4077WAT     H112473   9.435   1.724   2.961
 4077WAT     H212474   9.540   1.845   2.993
 4078WAT      O12475   3.073   4.968   1.405
 4078WAT     H112476   3.159   4.983   1.356
 4078WAT     H212477   3.041   5.054   1.444
 4079WAT      O12478   2.282   1.140   6.153
 4079WAT     H112479   2.229   1.108   6.075
 4079WAT     H212480   2.379   1.122   6.137
 4080WAT      O12481   5.981   1.620   7.933
 4080WAT     H112482   5.936   1.539   7.895
 4080WAT     H212483   5.918   1.697   7.931
 4081WAT      O12484   6.601   5.463   3.339
 4081WAT     H112485   6.666   5.539   3.338
 4081WAT     H212486   6.651   5.377   3.332
 4082WAT      O12487   3.717   9.729   7.431
 4082WAT     H112488   3.725   9.821   7.469
 4082WAT     H212489   3.621   9.699   7.436
 4083WAT      O12490   5.995   9.393   9.221
 4083WAT     H112491   6.017   9.383   9.124
 4083WAT     H212492   5.975   9.489   9.241
 4084WAT      O12493   9.857   8.774   2.619
 4084WAT     H112494   9.818   8.683   2.617
 4084WAT     H212495   9.794   8.837   2.665
 4085WAT      O12496   3.888   8.959   0.695
 4085WAT     H112497   3.866   9.049   0.656
 4085WAT     H212498   3.961   8.968   0.762
 4086WAT      O12499   8.171   4.977   3.289
 4086WAT     H112500   8.128   4.983   3.199
 4086WAT     H212501   8.244   5.046   3.295
 4087WAT      O12502   5.075   6.852   3.332
 4087WAT     H112503   5.092   6.783   3.402
 4087WAT     H212504   5.135   6.931   3.349
 4088WAT      O12505   2.648   0.817   1.073
 4088WAT     H112506   2.674   0.763   0.993
 4088WAT     H212507   2.689   0.908   1.066
 4089WAT      O12508   6.403   0.800   2.666
 4089WAT     H112509   6.348   0.723   2.698
 4089WAT     H212510   6.352   0.885   2.680
 4090WAT      O12511   6.647   2.225   8.346
 4090WAT     H112512   6.646   2.127   8.327
 4090WAT     H212513   6.617   2.242   8.440
 4091WAT      O12514   2.356   8.165   9.808
 4091WAT     H112515   2.343   8.238   9.875
 4091WAT     H212516   2.454   8.148   9.796
 4092WAT      O12517   8.775   2.342   9.075
 4092WAT     H112518   8.853   2.309   9.021
 4092WAT     H212519   8.764   2.283   9.155
 4093WAT      O12520   3.405   0.240   7.002
 4093WAT     H112521   3.476   0.270   6.939
 4093WAT     H212522   3.445   0.181   7.072
 4094WAT      O12523   9.717   9.135   9.128
 4094WAT     H112524   9.692   9.043   9.098
 4094WAT     H212525   9.681   9.151   9.220
 4095WAT      O12526   5.758   6.441   2.069
 4095WAT     H112527   5.737   6.442   2.167
 4095WAT     H212528   5.844   6.393   2.054
 4096WAT      O12529   3.107   4.169   2.764
 4096WAT     H112530   3.110   4.077   2.724
 4096WAT     H212531   3.079   4.235   2.694
 4097WAT      O12532   8.427   4.828   6.920
 4097WAT     H112533   8.444   4.915   6.967
 4097WAT     H212534   8.336   4.829   6.880
 4098WAT      O12535   7.979   8.498   9.132
 4098WAT     H112536   7.926   8.509   9.217
 4098WAT     H212537   7.923   8.450   9.065
 4099WAT      O12538   0.441   2.967   8.639
 4099WAT     H112539   0.484   3.054   8.661
 4099WAT     H212540   0.446   2.951   8.541
 4100WAT      O12541   7.757   9.595   7.628
 4100WAT     H112542   7.790   9.504   7.652
 4100WAT     H212543   7.833   9.650   7.594
 4101WAT      O12544   2.555   4.729   0.282
 4101WAT     H112545   2.467   4.775   0.292
 4101WAT     H212546   2.608   4.774   0.210
 4102WAT      O12547   3.940   6.797   5.409
 4102WAT     H112548   3.924   6.734   5.333
 4102WAT     H212549   3.922   6.749   5.495
 4103WAT      O12550   9.616   4.375   2.914
 4103WAT     H112551   9.579   4.466   2.896
 4103WAT     H212552   9.648   4.370   3.009
 4104WAT      O12553   6.812   5.037   3.664
 4104WAT     H112554   6.747   5.045   3.589
 4104WAT     H212555   6.881   5.110   3.657
 4105WAT      O12556   9.456   4.832   9.675
 4105WAT     H112557   9.364   4.835   9.635
 4105WAT     H212558   9.463   4.752   9.735
 4106WAT      O12559   8.825   5.856   8.916
 4106WAT     H112560   8.768   5.878   8.837
 4106WAT     H212561   8.804   5.918   8.992
 4107WAT      O12562   7.210   1.665   3.484
 4107WAT     H112563   7.286   1.724   3.457
 4107WAT     H212564   7.242   1.602   3.555
 4108WAT      O12565   6.835   6.049   6.571
 4108WAT     H112566   6.876   6.135   6.541
 4108WAT     H212567   6.908   5.984   6.595
 4109WAT      O12568   3.387   0.487   1.903
 4109WAT     H112569   3.304   0.434   1.889
 4109WAT     H212570   3.446   0.478   1.822
 4110WAT      O12571   1.427   3.932   7.365
 4110WAT     H112572   1.489   3.978   7.302
 4110WAT     H212573   1.354   3.888   7.313
 4111WAT      O12574   5.299   9.717   1.309
 4111WAT     H112575   5.252   9.800   1.341
 4111WAT     H212576   5.361   9.741   1.235
 4112WAT      O12577   0.984   2.834   8.500
 4112WAT     H112578   0.974   2.930   8.527
 4112WAT     H212579   0.979   2.776   8.580
 4113WAT      O12580   9.758   0.469   5.455
 4113WAT     H112581   9.822   0.432   5.388
 4113WAT     H212582   9.730   0.561   5.427
 4114WAT      O12583   1.557   6.205   9.484
 4114WAT     H112584   1.572   6.114   9.444
 4114WAT     H212585   1.639   6.232   9.536
 4115WAT      O12586   0.548   3.832   2.401
 4115WAT     H112587   0.489   3.905   2.368
 4115WAT     H212588   0.603   3.866   2.477
 4116WAT      O12589   2.877   3.059   3.814
 4116WAT     H112590   2.913   3.152   3.806
 4116WAT     H212591   2.803   3.047   3.748
 4117WAT      O12592   3.263   2.437   9.598
 4117WAT     H112593   3.203   2.359   9.579
 4117WAT     H212594   3.255   2.503   9.523
 4118WAT      O12595   5.628   1.474   9.192
 4118WAT     H112596   5.571   1.555   9.209
 4118WAT     H212597   5.723   1.496   9.215
 4119WAT      O12598   3.529   2.955   5.167
 4119WAT     H112599   3.618   2.937   5.127
 4119WAT     H212600   3.463   2.977   5.094
 4120WAT      O12601   7.885   4.839   2.883
 4120WAT     H112602   7.981   4.827   2.855
 4120WAT     H212603   7.860   4.765   2.946
 4121WAT      O12604   1.489   5.717   0.940
 4121WAT     H112605   1.491   5.624   0.905
 4121WAT     H212606   1.582   5.749   0.958
 4122WAT      O12607   0.359   9.466   4.530
 4122WAT     H112608   0.323   9.558   4.548
 4122WAT     H212609   0.383   9.422   4.617
 4123WAT      O12610   5.773   5.290   7.535
 4123WAT     H112611   5.729   5.360   7.480
 4123WAT     H212612   5.725   5.281   7.622
 4124WAT      O12613   0.545   7.132   4.368
 4124WAT     H112614   0.501   7.060   4.421
 4124WAT     H212615   0.638   7.103   4.345
 4125WAT      O12616   9.090   0.224   9.349
 4125WAT     H112617   9.126   0.232   9.441
 4125WAT     H212618   9.119   0.137   9.309
 4126WAT      O12619   6.821   1.748   1.550
 4126WAT     H112620   6.820   1.801   1.466
 4126WAT     H212621   6.890   1.785   1.612
 4127WAT      O12622   1.371   2.515   1.234
 4127WAT     H112623   1.351   2.550   1.326
 4127WAT     H212624   1.465   2.483   1.230
 4128WAT      O12625   8.565   3.739   2.038
 4128WAT     H112626   8.625   3.807   2.079
 4128WAT     H212627   8.613   3.652   2.031
 4129WAT      O12628   3.233   4.808   4.850
 4129WAT     H112629   3.222   4.709   4.848
 4129WAT     H212630   3.234   4.839   4.945
 4130WAT      O12631   2.816   9.310   6.868
 4130WAT     H112632   2.875   9.346   6.941
 4130WAT     H212633   2.849   9.343   6.780
 4131WAT      O12634   3.127   0.951   0.836
 4131WAT     H112635   3.218   0.981   0.805
 4131WAT     H212636   3.066   0.945   0.757
 4132WAT      O12637   6.807   1.880   9.466
 4132WAT     H112638   6.773   1.962   9.421
 4132WAT     H212639   6.735   1.811   9.469
 4133WAT      O12640   4.694   0.886   6.991
 4133WAT     H112641   4.616   0.908   7.050
 4133WAT     H212642   4.777   0.926   7.029
 4134WAT      O12643   3.213   1.808   3.825
 4134WAT     H112644   3.137   1.873   3.818
 4134WAT     H212645   3.298   1.858   3.842
 4135WAT      O12646   0.276   8.878   3.667
 4135WAT     H112647   0.340   8.870   3.742
 4135WAT     H212648   0.191   8.919   3.700
 4136WAT      O12649   8.961   0.376   6.125
 4136WAT     H112650   8.994   0.338   6.039
 4136WAT     H212651   9.013   0.458   6.148
 4137WAT      O12652   9.144   0.802   8.781
 4137WAT     H112653   9.108   0.806   8.874
 4137WAT     H212654   9.216   0.870   8.770
 4138WAT      O12655   3.672   0.644   5.850
 4138WAT     H112656   3.731   0.632   5.770
 4138WAT     H212657   3.614   0.564   5.861
 4139WAT      O12658   1.109   3.469   9.875
 4139WAT     H112659   1.171   3.488   9.799
 4139WAT     H212660   1.031   3.531   9.871
 4140WAT      O12661   0.260   7.542   6.880
 4140WAT     H112662   0.165   7.514   6.862
 4140WAT     H212663   0.264   7.594   6.965
 4141WAT      O12664   2.786   5.392   2.443
 4141WAT     H112665   2.726   5.455   2.394
 4141WAT     H212666   2.867   5.373   2.388
 4142WAT      O12667   3.961   5.994   5.546
 4142WAT     H112668   3.936   6.045   5.629
 4142WAT     H212669   4.040   5.935   5.566
 4143WAT      O12670   0.193   9.207   1.219
 4143WAT     H112671   0.110   9.262   1.223
 4143WAT     H212672   0.185   9.139   1.146
 4144WAT      O12673   7.747   3.153   6.444
 4144WAT     H112674   7.681   3.214   6.401
 4144WAT     H212675   7.789   3.094   6.375
 4145WAT      O12676   1.659   8.561   8.397
 4145WAT     H112677   1.666   8.531   8.303
 4145WAT     H212678   1.726   8.634   8.414
 4146WAT      O12679   3.724   0.288   5.357
 4146WAT     H112680   3.705   0.215   5.292
 4146WAT     H212681   3.773   0.362   5.312
 4147WAT      O12682   9.501   3.772   5.997
 4147WAT     H112683   9.503   3.872   6.002
 4147WAT     H212684   9.595   3.738   5.988
 4148WAT      O12685   5.966   3.290   3.881
 4148WAT     H112686   5.936   3.346   3.804
 4148WAT     H212687   5.958   3.193   3.856
 4149WAT      O12688   1.275   5.217   8.819
 4149WAT     H112689   1.344   5.187   8.753
 4149WAT     H212690   1.308   5.198   8.912
 4150WAT      O12691   0.190   5.230   4.811
 4150WAT     H112692   0.238   5.164   4.868
 4150WAT     H212693   0.102   5.193   4.782
 4151WAT      O12694   3.713   4.344   0.134
 4151WAT     H112695   3.643   4.314   0.069
 4151WAT     H212696   3.669   4.374   0.218
 4152WAT      O12697   4.057   7.525   1.056
 4152WAT     H112698   4.104   7.580   0.987
 4152WAT     H212699   3.960   7.518   1.032
 4153WAT      O12700   6.478   4.033   2.083
 4153WAT     H112701   6.573   4.002   2.078
 4153WAT     H212702   6.419   3.955   2.104
 4154WAT      O12703   3.499   0.225   7.929
 4154WAT     H112704   3.529   0.300   7.987
 4154WAT     H212705   3.487   0.258   7.835
 4155WAT      O12706   3.672   3.621   1.144
 4155WAT     H112707   3.751   3.678   1.121
 4155WAT     H212708   3.695   3.561   1.220
 4156WAT      O12709   5.807   1.024   4.985
 4156WAT     H112710   5.773   1.118   4.985
 4156WAT     H212711   5.864   1.010   4.904
 4157WAT      O12712   0.470   7.274   6.467
 4157WAT     H112713   0.449   7.189   6.516
 4157WAT     H212714   0.406   7.285   6.391
 4158WAT      O12715   6.086   2.494   6.189
 4158WAT     H112716   6.169   2.445   6.214
 4158WAT     H212717   6.033   2.515   6.271
 4159WAT      O12718   7.690   3.350   9.493
 4159WAT     H112719   7.633   3.268   9.483
 4159WAT     H212720   7.772   3.327   9.546
 4160WAT      O12721   7.854   3.540   5.567
 4160WAT     H112722   7.854   3.530   5.467
 4160WAT     H212723   7.921   3.479   5.607
 4161WAT      O12724   8.178   1.531   3.963
 4161WAT     H112725   8.094   1.492   3.925
 4161WAT     H212726   8.228   1.579   3.891
 4162WAT      O12727   0.891   1.269   5.159
 4162WAT     H112728   0.862   1.340   5.095
 4162WAT     H212729   0.859   1.292   5.251
 4163WAT      O12730   1.653   9.422   5.145
 4163WAT     H112731   1.679   9.498   5.204
 4163WAT     H212732   1.672   9.445   5.050
 4164WAT      O12733   1.667   2.694   4.795
 4164WAT     H112734   1.662   2.791   4.820
 4164WAT     H212735   1.585   2.669   4.744
 4165WAT      O12736   0.517   1.079   2.439
 4165WAT     H112737   0.534   1.166   2.485
 4165WAT     H212738   0.594   1.057   2.380
 4166WAT      O12739   2.074   3.828   3.345
 4166WAT     H112740   2.024   3.816   3.431
 4166WAT     H212741   2.027   3.781   3.271
 4167WAT      O12742   9.569   7.417   7.514
 4167WAT     H112743   9.482   7.385   7.476
 4167WAT     H212744   9.629   7.339   7.529
 4168WAT      O12745   4.612   0.200   0.934
 4168WAT     H112746   4.671   0.132   0.977
 4168WAT     H212747   4.607   0.183   0.836
 4169WAT      O12748   4.679   5.471   7.955
 4169WAT     H112749   4.628   5.466   8.041
 4169WAT     H212750   4.748   5.398   7.952
 4170WAT      O12751   8.584   7.200   4.609
 4170WAT     H112752   8.614   7.245   4.693
 4170WAT     H212753   8.573   7.102   4.625
 4171WAT      O12754   3.407   6.412   5.407
 4171WAT     H112755   3.329   6.473   5.392
 4171WAT     H212756   3.400   6.369   5.497
 4172WAT      O12757   0.829   0.370   0.453
 4172WAT     H112758   0.831   0.270   0.465
 4172WAT     H212759   0.851   0.415   0.540
 4173WAT      O12760   7.212   6.325   5.392
 4173WAT     H112761   7.143   6.364   5.331
 4173WAT     H212762   7.302   6.362   5.369
 4174WAT      O12763   8.846   8.674   2.088
 4174WAT     H112764   8.752   8.676   2.054
 4174WAT     H212765   8.854   8.734   2.167
 4175WAT      O12766   8.080   0.400   2.608
 4175WAT     H112767   8.061   0.303   2.623
 4175WAT     H212768   8.102   0.415   2.512
 4176WAT      O12769   1.826   7.002   0.422
 4176WAT     H112770   1.919   6.980   0.451
 4176WAT     H212771   1.817   7.101   0.412
 4177WAT      O12772   5.334   5.917   4.658
 4177WAT     H112773   5.343   5.858   4.578
 4177WAT     H212774   5.361   6.010   4.634
 4178WAT      O12775   6.776   7.453   6.308
 4178WAT     H112776   6.834   7.507   6.247
 4178WAT     H212777   6.787   7.356   6.286
 4179WAT      O12778   6.057   5.845   1.084
 4179WAT     H112779   6.090   5.824   1.177
 4179WAT     H212780   6.062   5.944   1.069
 4180WAT      O12781   1.129   4.412   2.841
 4180WAT     H112782   1.176   4.438   2.925
 4180WAT     H212783   1.086   4.492   2.800
 4181WAT      O12784   6.731   9.796   5.992
 4181WAT     H112785   6.730   9.853   6.074
 4181WAT     H212786   6.655   9.732   5.996
 4182WAT      O12787   7.312   1.662   0.836
 4182WAT     H112788   7.368   1.717   0.897
 4182WAT     H212789   7.253   1.601   0.889
 4183WAT      O12790   5.128   7.432   0.661
 4183WAT     H112791   5.054   7.367   0.640
 4183WAT     H212792   5.145   7.432   0.759
 4184WAT      O12793   5.106   4.778   7.650
 4184WAT     H112794   5.142   4.713   7.584
 4184WAT     H212795   5.027   4.826   7.610
 4185WAT      O12796   4.204   0.758   3.062
 4185WAT     H112797   4.215   0.669   3.105
 4185WAT     H212798   4.218   0.749   2.963
 4186WAT      O12799   4.975   3.053   4.418
 4186WAT     H112800   4.953   3.124   4.351
 4186WAT     H212801   5.044   2.992   4.380
 4187WAT      O12802   9.013   0.558   1.638
 4187WAT     H112803   8.945   0.599   1.699
 4187WAT     H212804   9.025   0.616   1.558
 4188WAT      O12805   9.811   4.118   4.000
 4188WAT     H112806   9.832   4.021   3.988
 4188WAT     H212807   9.769   4.153   3.917
 4189WAT      O12808   6.552   4.901   7.559
 4189WAT     H112809   6.534   4.864   7.650
 4189WAT     H212810   6.636   4.861   7.523
 4190WAT      O12811   4.065   2.258   3.531
 4190WAT     H112812   3.995   2.244   3.462
 4190WAT     H212813   4.036   2.329   3.595
 4191WAT      O12814   9.003   8.829   6.249
 4191WAT     H112815   8.970   8.743   6.210
 4191WAT     H212816   9.003   8.821   6.349
 4192WAT      O12817   8.964   8.891   3.387
 4192WAT     H112818   8.880   8.859   3.342
 4192WAT     H212819   8.994   8.976   3.345
 4193WAT      O12820   1.706   1.956   3.216
 4193WAT     H112821   1.784   1.898   3.237
 4193WAT     H212822   1.737   2.051   3.207
 4194WAT      O12823   2.642   9.595   3.242
 4194WAT     H112824   2.569   9.604   3.174
 4194WAT     H212825   2.684   9.505   3.234
 4195WAT      O12826   2.768   6.309   2.454
 4195WAT     H112827   2.851   6.356   2.426
 4195WAT     H212828   2.701   6.311   2.380
 4196WAT      O12829   2.075   1.956   2.123
 4196WAT     H112830   2.135   1.985   2.049
 4196WAT     H212831   2.014   1.884   2.091
 4197WAT      O12832   6.430   7.666   1.288
 4197WAT     H112833   6.373   7.743   1.317
 4197WAT     H212834   6.460   7.614   1.368
 4198WAT      O12835   3.138   5.716   2.272
 4198WAT     H112836   3.207   5.758   2.332
 4198WAT     H212837   3.058   5.776   2.267
 4199WAT      O12838   3.471   5.668   7.763
 4199WAT     H112839   3.423   5.616   7.692
 4199WAT     H212840   3.521   5.606   7.823
 4200WAT      O12841   7.178   4.262   0.316
 4200WAT     H112842   7.184   4.357   0.347
 4200WAT     H212843   7.155   4.260   0.219
 4201WAT      O12844   3.862   2.915   1.498
 4201WAT     H112845   3.882   2.894   1.594
 4201WAT     H212846   3.836   2.831   1.451
 4202WAT      O12847   1.044   3.959   5.510
 4202WAT     H112848   1.070   4.044   5.555
 4202WAT     H212849   0.967   3.975   5.449
 4203WAT      O12850   1.522   0.627   7.499
 4203WAT     H112851   1.530   0.636   7.598
 4203WAT     H212852   1.583   0.693   7.455
 4204WAT      O12853   0.512   6.665   1.989
 4204WAT     H112854   0.524   6.567   2.004
 4204WAT     H212855   0.525   6.686   1.892
 4205WAT      O12856   6.731   6.840   1.204
 4205WAT     H112857   6.690   6.833   1.295
 4205WAT     H212858   6.829   6.821   1.211
 4206WAT      O12859   2.815   7.262   5.875
 4206WAT     H112860   2.732   7.233   5.924
 4206WAT     H212861   2.797   7.347   5.826
 4207WAT      O12862   9.456   9.771   6.398
 4207WAT     H112863   9.522   9.820   6.341
 4207WAT     H212864   9.466   9.800   6.493
 4208WAT      O12865   1.111   8.554   5.177
 4208WAT     H112866   1.130   8.629   5.240
 4208WAT     H212867   1.180   8.482   5.189
 4209WAT      O12868   3.421   1.396   2.628
 4209WAT     H112869   3.410   1.451   2.545
 4209WAT     H212870   3.331   1.366   2.660
 4210WAT      O12871   8.741   3.457   2.696
 4210WAT     H112872   8.671   3.401   2.741
 4210WAT     H212873   8.730   3.451   2.597
 4211WAT      O12874   5.989   0.752   2.148
 4211WAT     H112875   6.027   0.810   2.077
 4211WAT     H212876   6.020   0.658   2.135
 4212WAT      O12877   6.881   2.849   2.556
 4212WAT     H112878   6.851   2.836   2.462
 4212WAT     H212879   6.981   2.850   2.560
 4213WAT      O12880   2.065   7.322   3.405
 4213WAT     H112881   2.083   7.231   3.367
 4213WAT     H212882   2.152   7.369   3.419
 4214WAT      O12883   8.656   0.456   0.475
 4214WAT     H112884   8.611   0.529   0.425
 4214WAT     H212885   8.616   0.449   0.567
 4215WAT      O12886   5.760   4.388   0.719
 4215WAT     H112887   5.677   4.334   0.701
 4215WAT     H212888   5.762   4.466   0.656
 4216WAT      O12889   6.346   2.015   3.933
 4216WAT     H112890   6.335   1.922   3.897
 4216WAT     H212891   6.361   2.011   4.032
 4217WAT      O12892   0.007   1.391   7.711
 4217WAT     H112893  -0.023   1.457   7.642
 4217WAT     H212894   0.084   1.428   7.762
 4218WAT      O12895   0.719   4.584   1.421
 4218WAT     H112896   0.631   4.611   1.460
 4218WAT     H212897   0.752   4.657   1.361
 4219WAT      O12898   6.296   8.709   1.534
 4219WAT     H112899   6.216   8.752   1.493
 4219WAT     H212900   6.372   8.711   1.469
 4220WAT      O12901   5.670   9.196   1.438
 4220WAT     H112902   5.675   9.096   1.441
 4220WAT     H212903   5.659   9.231   1.531
 4221WAT      O12904   0.228   3.303   7.620
 4221WAT     H112905   0.241   3.266   7.712
 4221WAT     H212906   0.149   3.260   7.578
 4222WAT      O12907   7.048   1.276   0.794
 4222WAT     H112908   7.033   1.263   0.892
 4222WAT     H212909   7.137   1.237   0.769
 4223WAT      O12910   1.608   6.081   8.103
 4223WAT     H112911   1.557   6.116   8.024
 4223WAT     H212912   1.586   5.984   8.116
 4224WAT      O12913   4.407   4.430   5.914
 4224WAT     H112914   4.310   4.454   5.923
 4224WAT     H212915   4.451   4.495   5.852
 4225WAT      O12916   7.328   3.286   8.478
 4225WAT     H112917   7.386   3.259   8.400
 4225WAT     H212918   7.264   3.212   8.499
 4226WAT      O12919   1.568   6.578   1.237
 4226WAT     H112920   1.576   6.500   1.299
 4226WAT     H212921   1.502   6.644   1.273
 4227WAT      O12922   6.099   6.622   1.266
 4227WAT     H112923   6.138   6.713   1.257
 4227WAT     H212924   6.148   6.572   1.337
 4228WAT      O12925   1.202   3.435   0.686
 4228WAT     H112926   1.139   3.503   0.725
 4228WAT     H212927   1.204   3.446   0.587
 4229WAT      O12928   8.778   3.959   6.601
 4229WAT     H112929   8.712   3.966   6.527
 4229WAT     H212930   8.746   3.894   6.669
 4230WAT      O12931   8.446   0.662   9.721
 4230WAT     H112932   8.446   0.682   9.819
 4230WAT     H212933   8.532   0.693   9.681
 4231WAT      O12934   1.640   2.871   6.748
 4231WAT     H112935   1.691   2.830   6.823
 4231WAT     H212936   1.616   2.801   6.681
 4232WAT      O12937   9.684   1.832   6.583
 4232WAT     H112938   9.594   1.810   6.547
 4232WAT     H212939   9.720   1.755   6.635
 4233WAT      O12940   1.782   9.023   8.040
 4233WAT     H112941   1.755   9.006   7.946
 4233WAT     H212942   1.882   9.024   8.046
 4234WAT      O12943   8.952   3.873   7.361
 4234WAT     H112944   8.893   3.938   7.314
 4234WAT     H212945   9.038   3.917   7.384
 4235WAT      O12946   1.331   5.223   6.723
 4235WAT     H112947   1.366   5.272   6.802
 4235WAT     H212948   1.232   5.213   6.731
 4236WAT      O12949   5.999   9.753   8.483
 4236WAT     H112950   6.081   9.736   8.538
 4236WAT     H212951   5.974   9.849   8.489
 4237WAT      O12952   9.570   1.096   0.418
 4237WAT     H112953   9.604   1.168   0.478
 4237WAT     H212954   9.471   1.092   0.424
 4238WAT      O12955   4.280   4.765   9.587
 4238WAT     H112956   4.265   4.753   9.489
 4238WAT     H212957   4.204   4.725   9.638
 4239WAT      O12958   0.136   8.547   0.124
 4239WAT     H112959   0.063   8.615   0.113
 4239WAT     H212960   0.225   8.593   0.122
 4240WAT      O12961   4.567   6.624   8.441
 4240WAT     H112962   4.513   6.594   8.362
 4240WAT     H212963   4.638   6.687   8.410
 4241WAT      O12964   2.482   6.359   1.088
 4241WAT     H112965   2.505   6.399   0.999
 4241WAT     H212966   2.557   6.375   1.152
 4242WAT      O12967   7.921   6.395   7.926
 4242WAT     H112968   7.885   6.351   7.844
 4242WAT     H212969   7.886   6.349   8.008
 4243WAT      O12970   1.289   6.386   1.124
 4243WAT     H112971   1.381   6.409   1.092
 4243WAT     H212972   1.244   6.329   1.055
 4244WAT      O12973   7.731   7.579   9.027
 4244WAT     H112974   7.807   7.567   8.962
 4244WAT     H212975   7.674   7.655   8.997
 4245WAT      O12976   7.641   9.166   2.316
 4245WAT     H112977   7.610   9.138   2.226
 4245WAT     H212978   7.690   9.254   2.309
 4246WAT      O12979   4.722   6.301   4.015
 4246WAT     H112980   4.703   6.317   3.918
 4246WAT     H212981   4.781   6.374   4.050
 4247WAT      O12982   0.479   1.275   1.394
 4247WAT     H112983   0.466   1.197   1.455
 4247WAT     H212984   0.536   1.343   1.439
 4248WAT      O12985   7.449   7.445   5.900
 4248WAT     H112986   7.474   7.540   5.922
 4248WAT     H212987   7.445   7.433   5.801
 4249WAT      O12988   5.120   2.976   2.730
 4249WAT     H112989   5.190   2.985   2.801
 4249WAT     H212990   5.153   2.913   2.660
 4250WAT      O12991   8.730   0.278   2.219
 4250WAT     H112992   8.633   0.294   2.232
 4250WAT     H212993   8.770   0.242   2.303
 4251WAT      O12994   7.814   1.165   3.264
 4251WAT     H112995   7.829   1.066   3.268
 4251WAT     H212996   7.719   1.185   3.287
 4252WAT      O12997   4.896   5.747   1.176
 4252WAT     H112998   4.976   5.719   1.122
 4252WAT     H212999   4.837   5.805   1.120
 4253WAT      O13000   4.784   9.448   0.918
 4253WAT     H113001   4.723   9.441   0.838
 4253WAT     H213002   4.874   9.480   0.889
 4254WAT      O13003   9.655   8.834   7.388
 4254WAT     H113004   9.682   8.931   7.390
 4254WAT     H213005   9.718   8.781   7.445
 4255WAT      O13006   1.821   1.011   7.858
 4255WAT     H113007   1.902   0.962   7.827
 4255WAT     H213008   1.739   0.971   7.818
 4256WAT      O13009   6.705   9.074   0.555
 4256WAT     H113010   6.783   9.108   0.607
 4256WAT     H213011   6.701   9.120   0.466
 4257WAT      O13012   3.876   0.412   2.692
 4257WAT     H113013   3.883   0.319   2.659
 4257WAT     H213014   3.873   0.476   2.615
 4258WAT      O13015   5.177   8.019   0.369
 4258WAT     H113016   5.212   8.102   0.326
 4258WAT     H213017   5.242   7.944   0.356
 4259WAT      O13018   7.983   3.943   8.691
 4259WAT     H113019   8.024   3.997   8.617
 4259WAT     H213020   7.887   3.970   8.702
 4260WAT      O13021   1.716   2.876   7.660
 4260WAT     H113022   1.706   2.892   7.758
 4260WAT     H213023   1.677   2.788   7.635
 4261WAT      O13024   0.845   5.437   0.080
 4261WAT     H113025   0.794   5.432   0.166
 4261WAT     H213026   0.840   5.530   0.044
 4262WAT      O13027   4.777   6.351   4.541
 4262WAT     H113028   4.786   6.428   4.477
 4262WAT     H213029   4.834   6.275   4.510
 4263WAT      O13030   5.040   5.071   9.683
 4263WAT     H113031   5.123   5.088   9.630
 4263WAT     H213032   4.992   4.993   9.644
 4264WAT      O13033   3.371   3.009   6.057
 4264WAT     H113034   3.392   3.106   6.071
 4264WAT     H213035   3.394   2.983   5.963
 4265WAT      O13036   6.519   3.595   5.078
 4265WAT     H113037   6.604   3.563   5.035
 4265WAT     H213038   6.445   3.595   5.010
 4266WAT      O13039   2.099   8.720   4.085
 4266WAT     H113040   2.099   8.650   4.157
 4266WAT     H213041   2.191   8.730   4.047
 4267WAT      O13042   6.498   3.867   6.694
 4267WAT     H113043   6.518   3.914   6.780
 4267WAT     H213044   6.453   3.931   6.631
 4268WAT      O13045   4.935   7.757   3.609
 4268WAT     H113046   4.842   7.768   3.571
 4268WAT     H213047   4.979   7.678   3.567
 4269WAT      O13048   2.238   2.716   8.879
 4269WAT     H113049   2.327   2.697   8.920
 4269WAT     H213050   2.250   2.741   8.783
 4270WAT      O13051   2.009   0.176   2.231
 4270WAT     H113052   2.063   0.258   2.208
 4270WAT     H213053   1.918   0.185   2.192
 4271WAT      O13054   6.336   3.863   9.838
 4271WAT     H113055   6.283   3.947   9.840
 4271WAT     H213056   6.395   3.859   9.919
 4272WAT      O13057   9.493   0.566   2.084
 4272WAT     H113058   9.557   0.638   2.055
 4272WAT     H213059   9.460   0.517   2.003
 4273WAT      O13060   9.759   9.655   1.915
 4273WAT     H113061   9.682   9.619   1.863
 4273WAT     H213062   9.731   9.669   2.010
 4274WAT      O13063   8.288   1.199   9.058
 4274WAT     H113064   8.375   1.176   9.102
 4274WAT     H213065   8.246   1.115   9.021
 4275WAT      O13066   3.805   8.466   7.962
 4275WAT     H113067   3.774   8.389   8.019
 4275WAT     H213068   3.729   8.529   7.947
 4276WAT      O13069   0.283   7.118   2.042
 4276WAT     H113070   0.211   7.086   2.103
 4276WAT     H213071   0.305   7.213   2.062
 4277WAT      O13072   2.406   4.091   4.686
 4277WAT     H113073   2.426   4.090   4.589
 4277WAT     H213074   2.333   4.156   4.705
 4278WAT      O13075   8.502   6.256   5.228
 4278WAT     H113076   8.549   6.168   5.235
 4278WAT     H213077   8.443   6.255   5.147
 4279WAT      O13078   8.507   0.234   0.827
 4279WAT     H113079   8.605   0.218   0.813
 4279WAT     H213080   8.477   0.309   0.767
 4280WAT      O13081   4.259   6.583   2.606
 4280WAT     H113082   4.336   6.568   2.667
 4280WAT     H213083   4.214   6.669   2.629
 4281WAT      O13084   5.804   4.958   5.463
 4281WAT     H113085   5.827   4.992   5.372
 4281WAT     H213086   5.816   4.858   5.466
 4282WAT      O13087   4.068   6.921   1.445
 4282WAT     H113088   3.981   6.951   1.405
 4282WAT     H213089   4.137   6.912   1.373
 4283WAT      O13090   2.771   8.612   2.694
 4283WAT     H113091   2.710   8.536   2.717
 4283WAT     H213092   2.842   8.620   2.764
 4284WAT      O13093   8.341   2.064   1.944
 4284WAT     H113094   8.341   2.163   1.924
 4284WAT     H213095   8.250   2.035   1.971
 4285WAT      O13096   3.739   2.000   5.404
 4285WAT     H113097   3.678   2.021   5.481
 4285WAT     H213098   3.767   1.904   5.409
 4286WAT      O13099   9.246   6.858   1.629
 4286WAT     H113100   9.221   6.770   1.587
 4286WAT     H213101   9.275   6.922   1.558
 4287WAT      O13102   4.279   1.516   2.761
 4287WAT     H113103   4.247   1.578   2.690
 4287WAT     H213104   4.230   1.429   2.754
 4288WAT      O13105   7.272   4.422   5.609
 4288WAT     H113106   7.324   4.453   5.688
 4288WAT     H213107   7.191   4.372   5.640
 4289WAT      O13108   0.410   7.259   3.010
 4289WAT     H113109   0.382   7.203   3.087
 4289WAT     H213110   0.404   7.205   2.926
 4290WAT      O13111   1.188   9.582   6.994
 4290WAT     H113112   1.237   9.497   7.013
 4290WAT     H213113   1.197   9.644   7.073
 4291WAT      O13114   3.837   5.569   1.244
 4291WAT     H113115   3.854   5.475   1.213
 4291WAT     H213116   3.899   5.631   1.196
 4292WAT      O13117   3.889   9.410   5.970
 4292WAT     H113118   3.854   9.481   6.031
 4292WAT     H213119   3.819   9.385   5.904
 4293WAT      O13120   5.985   5.516   8.793
 4293WAT     H113121   5.991   5.419   8.768
 4293WAT     H213122   5.894   5.551   8.770
 4294WAT      O13123   4.574   2.612   4.738
 4294WAT     H113124   4.501   2.646   4.680
 4294WAT     H213125   4.561   2.644   4.831
 4295WAT      O13126   6.690   7.656   4.595
 4295WAT     H113127   6.628   7.588   4.635
 4295WAT     H213128   6.760   7.680   4.662
 4296WAT      O13129   9.404   8.646   8.208
 4296WAT     H113130   9.472   8.577   8.233
 4296WAT     H213131   9.328   8.602   8.161
 4297WAT      O13132   6.699   3.416   1.702
 4297WAT     H113133   6.728   3.320   1.695
 4297WAT     H213134   6.764   3.474   1.653
 4298WAT      O13135   2.172   1.761   6.148
 4298WAT     H113136   2.153   1.800   6.239
 4298WAT     H213137   2.102   1.693   6.127
 4299WAT      O13138   7.680   4.619   4.195
 4299WAT     H113139   7.687   4.553   4.270
 4299WAT     H213140   7.744   4.694   4.210
 4300WAT      O13141   3.119   4.161   9.603
 4300WAT     H113142   3.163   4.154   9.693
 4300WAT     H213143   3.134   4.253   9.566
 4301WAT      O13144   9.157   8.289   6.433
 4301WAT     H113145   9.184   8.303   6.338
 4301WAT     H213146   9.183   8.197   6.462
 4302WAT      O13147   1.416   4.547   6.923
 4302WAT     H113148   1.425   4.541   7.022
 4302WAT     H213149   1.385   4.638   6.897
 4303WAT      O13150   9.841   0.917   8.301
 4303WAT     H113151   9.856   0.831   8.349
 4303WAT     H213152   9.750   0.952   8.323
 4304WAT      O13153   1.586   9.572   0.234
 4304WAT     H113154   1.564   9.614   0.323
 4304WAT     H213155   1.602   9.475   0.246
 4305WAT      O13156   4.309   0.251   1.791
 4305WAT     H113157   4.249   0.301   1.853
 4305WAT     H213158   4.274   0.258   1.697
 4306WAT      O13159   5.065   9.690   2.589
 4306WAT     H113160   5.137   9.666   2.524
 4306WAT     H213161   5.055   9.616   2.656
 4307WAT      O13162   4.209   2.351   0.744
 4307WAT     H113163   4.304   2.348   0.713
 4307WAT     H213164   4.149   2.372   0.667
 4308WAT      O13165   4.450   6.542   8.213
 4308WAT     H113166   4.414   6.467   8.268
 4308WAT     H213167   4.502   6.505   8.136
 4309WAT      O13168   6.322   1.094   9.176
 4309WAT     H113169   6.401   1.154   9.188
 4309WAT     H213170   6.276   1.117   9.090
 4310WAT      O13171   5.890   9.573   8.284
 4310WAT     H113172   5.941   9.626   8.351
 4310WAT     H213173   5.930   9.585   8.193
 4311WAT      O13174   2.874   8.353   4.664
 4311WAT     H113175   2.830   8.359   4.754
 4311WAT     H213176   2.889   8.258   4.640
 4312WAT      O13177   2.317   8.379   9.108
 4312WAT     H113178   2.387   8.449   9.098
 4312WAT     H213179   2.293   8.369   9.205
 4313WAT      O13180   2.877   3.766   4.895
 4313WAT     H113181   2.977   3.760   4.904
 4313WAT     H213182   2.838   3.794   4.983
 4314WAT      O13183   2.606   5.710   8.306
 4314WAT     H113184   2.579   5.792   8.357
 4314WAT     H213185   2.697   5.682   8.333
 4315WAT      O13186   5.660   1.687   5.805
 4315WAT     H113187   5.615   1.720   5.888
 4315WAT     H213188   5.742   1.741   5.788
 4316WAT      O13189   8.420   4.649   4.187
 4316WAT     H113190   8.461   4.572   4.235
 4316WAT     H213191   8.457   4.655   4.094
 4317WAT      O13192   8.974   5.888   1.570
 4317WAT     H113193   9.018   5.880   1.480
 4317WAT     H213194   9.015   5.964   1.620
 4318WAT      O13195   4.012   5.855   8.565
 4318WAT     H113196   4.089   5.905   8.525
 4318WAT     H213197   4.046   5.770   8.605
 4319WAT      O13198   6.246   6.214   0.352
 4319WAT     H113199   6.304   6.134   0.362
 4319WAT     H213200   6.301   6.297   0.356
 4320WAT      O13201   9.606   3.497   1.124
 4320WAT     H113202   9.659   3.449   1.054
 4320WAT     H213203   9.563   3.430   1.184
 4321WAT      O13204   6.977   9.318   0.360
 4321WAT     H113205   7.044   9.281   0.423
 4321WAT     H213206   7.004   9.297   0.266
 4322WAT      O13207   5.697   3.326   6.123
 4322WAT     H113208   5.727   3.258   6.056
 4322WAT     H213209   5.777   3.376   6.157
 4323WAT      O13210   5.762   6.315   7.494
 4323WAT     H113211   5.829   6.356   7.431
 4323WAT     H213212   5.746   6.220   7.469
 4324WAT      O13213   1.598   0.097   9.532
 4324WAT     H113214   1.654   0.172   9.496
 4324WAT     H213215   1.622   0.080   9.627
 4325WAT      O13216   5.459   3.964   7.839
 4325WAT     H113217   5.510   3.938   7.922
 4325WAT     H213218   5.381   4.021   7.865
 4326WAT      O13219   1.590   6.635   0.476
 4326WAT     H113220   1.667   6.648   0.413
 4326WAT     H213221   1.527   6.711   0.468
 4327WAT      O13222   0.424   0.677   8.768
 4327WAT     H113223   0.344   0.633   8.811
 4327WAT     H213224   0.484   0.607   8.730
 4328WAT      O13225   8.819   2.247   5.082
 4328WAT     H113226   8.793   2.241   5.178
 4328WAT     H213227   8.918   2.233   5.073
 4329WAT      O13228   1.904   1.597   2.970
 4329WAT     H113229   2.002   1.615   2.965
 4329WAT     H213230   1.889   1.509   3.016
 4330WAT      O13231   8.361   4.992   3.981
 4330WAT     H113232   8.395   4.983   4.075
 4330WAT     H213233   8.437   4.987   3.917
 4331WAT      O13234   0.641   0.653   7.280
 4331WAT     H113235   0.640   0.752   7.263
 4331WAT     H213236   0.641   0.636   7.379
 4332WAT      O13237   1.694   3.176   4.449
 4332WAT     H113238   1.656   3.107   4.510
 4332WAT     H213239   1.630   3.193   4.374
 4333WAT      O13240   9.783   7.706   5.117
 4333WAT     H113241   9.772   7.608   5.102
 4333WAT     H213242   9.848   7.721   5.192
 4334WAT      O13243   9.057   3.272   8.874
 4334WAT     H113244   9.142   3.267   8.821
 4334WAT     H213245   9.046   3.188   8.928
 4335WAT      O13246   9.874   9.590   6.110
 4335WAT     H113247   9.815   9.659   6.068
 4335WAT     H213248   9.937   9.555   6.041
 4336WAT      O13249   5.008   1.251   6.523
 4336WAT     H113250   4.927   1.270   6.468
 4336WAT     H213251   5.064   1.334   6.531
 4337WAT      O13252   9.049   3.999   8.130
 4337WAT     H113253   9.086   4.019   8.221
 4337WAT     H213254   9.057   4.081   8.073
 4338WAT      O13255   8.560   9.616   4.571
 4338WAT     H113256   8.635   9.592   4.509
 4338WAT     H213257   8.587   9.595   4.665
 4339WAT      O13258   1.007   2.617   2.608
 4339WAT     H113259   0.986   2.544   2.543
 4339WAT     H213260   1.105   2.638   2.603
 4340WAT      O13261   7.446   7.979   7.324
 4340WAT     H113262   7.406   7.889   7.341
 4340WAT     H213263   7.381   8.037   7.276
 4341WAT      O13264   0.678   5.917   3.706
 4341WAT     H113265   0.762   5.879   3.745
 4341WAT     H213266   0.672   5.892   3.609
 4342WAT      O13267   6.757   7.250   4.924
 4342WAT     H113268   6.698   7.329   4.936
 4342WAT     H213269   6.841   7.277   4.877
 4343WAT      O13270   8.724   4.273   8.927
 4343WAT     H113271   8.696   4.343   8.994
 4343WAT     H213272   8.736   4.186   8.974
 4344WAT      O13273   9.774   8.156   1.594
 4344WAT     H113274   9.767   8.066   1.637
 4344WAT     H213275   9.744   8.150   1.499
 4345WAT      O13276   9.807   5.106   2.108
 4345WAT     H113277   9.768   5.027   2.156
 4345WAT     H213278   9.739   5.179   2.104
 4346WAT      O13279   9.129   1.971   4.241
 4346WAT     H113280   9.223   1.967   4.274
 4346WAT     H213281   9.089   2.060   4.264
 4347WAT      O13282   3.187   5.401   1.915
 4347WAT     H113283   3.220   5.307   1.928
 4347WAT     H213284   3.193   5.425   1.818
 4348WAT      O13285   6.147   1.455   7.163
 4348WAT     H113286   6.172   1.481   7.070
 4348WAT     H213287   6.228   1.458   7.221
 4349WAT      O13288   8.246   9.040   0.800
 4349WAT     H113289   8.232   9.067   0.704
 4349WAT     H213290   8.174   9.080   0.856
 4350WAT      O13291   9.838   9.029   4.356
 4350WAT     H113292   9.899   8.970   4.303
 4350WAT     H213293   9.887   9.113   4.381
 4351WAT      O13294   3.207   5.919   8.467
 4351WAT     H113295   3.305   5.937   8.477
 4351WAT     H213296   3.163   5.997   8.424
 4352WAT      O13297   3.438   8.942   9.050
 4352WAT     H113298   3.379   8.884   9.106
 4352WAT     H213299   3.449   8.901   8.960
 4353WAT      O13300   8.524   5.904   7.770
 4353WAT     H113301   8.555   5.810   7.782
 4353WAT     H213302   8.449   5.906   7.704
 4354WAT      O13303   8.750   5.184   6.098
 4354WAT     H113304   8.714   5.100   6.141
 4354WAT     H213305   8.817   5.159   6.028
 4355WAT      O13306   3.567   3.516   6.610
 4355WAT     H113307   3.534   3.522   6.704
 4355WAT     H213308   3.539   3.598   6.559
 4356WAT      O13309   5.782   6.663   1.929
 4356WAT     H113310   5.718   6.643   1.855
 4356WAT     H213311   5.787   6.585   1.991
 4357WAT      O13312   1.767   2.089   1.608
 4357WAT     H113313   1.770   2.019   1.537
 4357WAT     H213314   1.739   2.176   1.567
 4358WAT      O13315   4.117   9.827   3.448
 4358WAT     H113316   4.172   9.868   3.521
 4358WAT     H213317   4.125   9.882   3.365
 4359WAT      O13318   1.386   2.016   7.464
 4359WAT     H113319   1.303   2.013   7.520
 4359WAT     H213320   1.411   1.923   7.437
 4360WAT      O13321   9.586   7.849   5.000
 4360WAT     H113322   9.603   7.945   4.978
 4360WAT     H213323   9.662   7.813   5.054
 4361WAT      O13324   1.132   1.389   1.431
 4361WAT     H113325   1.168   1.412   1.341
 4361WAT     H213326   1.041   1.430   1.443
 4362WAT      O13327   3.575   6.606   0.737
 4362WAT     H113328   3.555   6.607   0.639
 4362WAT     H213329   3.668   6.573   0.752
 4363WAT      O13330   7.536   3.766   7.766
 4363WAT     H113331   7.577   3.824   7.836
 4363WAT     H213332   7.444   3.738   7.794
 4364WAT      O13333   7.271   2.514   8.139
 4364WAT     H113334   7.278   2.602   8.186
 4364WAT     H213335   7.183   2.472   8.160
 4365WAT      O13336   0.646   0.603   6.795
 4365WAT     H113337   0.729   0.658   6.798
 4365WAT     H213338   0.604   0.609   6.704
 4366WAT      O13339   2.249   7.841   1.932
 4366WAT     H113340   2.322   7.874   1.992
 4366WAT     H213341   2.177   7.799   1.986
 4367WAT      O13342   3.819   2.550   8.407
 4367WAT     H113343   3.815   2.640   8.363
 4367WAT     H213344   3.838   2.480   8.338
 4368WAT      O13345   4.022   7.996   0.286
 4368WAT     H113346   4.102   8.036   0.329
 4368WAT     H213347   4.019   7.898   0.305
 4369WAT      O13348   0.734   2.999   5.529
 4369WAT     H113349   0.637   2.973   5.530
 4369WAT     H213350   0.761   3.034   5.619
 4370WAT      O13351   3.838   3.839   9.440
 4370WAT     H113352   3.824   3.885   9.352
 4370WAT     H213353   3.869   3.905   9.507
 4371WAT      O13354   2.935   0.794   5.799
 4371WAT     H113355   2.867   0.867   5.798
 4371WAT     H213356   2.988   0.798   5.714
 4372WAT      O13357   1.303   3.537   9.677
 4372WAT     H113358   1.301   3.461   9.612
 4372WAT     H213359   1.395   3.546   9.715
 4373WAT      O13360   9.420   8.110   6.451
 4373WAT     H113361   9.480   8.031   6.441
 4373WAT     H213362   9.381   8.111   6.543
 4374WAT      O13363   6.815   2.262   6.963
 4374WAT     H113364   6.851   2.177   6.922
 4374WAT     H213365   6.878   2.295   7.032
 4375WAT      O13366   2.363   1.112   5.716
 4375WAT     H113367   2.418   1.060   5.651
 4375WAT     H213368   2.349   1.205   5.682
 4376WAT      O13369   9.386   0.297   6.040
 4376WAT     H113370   9.316   0.338   5.981
 4376WAT     H213371   9.467   0.274   5.985
 4377WAT      O13372   8.847   2.652   8.503
 4377WAT     H113373   8.879   2.654   8.597
 4377WAT     H213374   8.819   2.743   8.474
 4378WAT      O13375   8.040   4.054   0.920
 4378WAT     H113376   7.950   4.071   0.879
 4378WAT     H213377   8.111   4.090   0.859
 4379WAT      O13378   2.827   9.793   8.588
 4379WAT     H113379   2.812   9.863   8.518
 4379WAT     H213380   2.924   9.766   8.587
 4380WAT      O13381   7.690   1.611   5.627
 4380WAT     H113382   7.748   1.614   5.546
 4380WAT     H213383   7.688   1.518   5.664
 4381WAT      O13384   5.774   4.960   9.465
 4381WAT     H113385   5.704   4.901   9.425
 4381WAT     H213386   5.741   5.054   9.466
 4382WAT      O13387   7.364   6.047   7.782
 4382WAT     H113388   7.314   6.120   7.828
 4382WAT     H213389   7.456   6.079   7.757
 4383WAT      O13390   2.123   0.483   7.060
 4383WAT     H113391   2.086   0.406   7.008
 4383WAT     H213392   2.222   0.488   7.046
 4384WAT      O13393   9.718   4.835   2.877
 4384WAT     H113394   9.813   4.805   2.883
 4384WAT     H213395   9.670   4.809   2.961
 4385WAT      O13396   2.570   2.123   5.805
 4385WAT     H113397   2.493   2.174   5.765
 4385WAT     H213398   2.627   2.184   5.859
 4386WAT      O13399   6.320   4.451   8.851
 4386WAT     H113400   6.412   4.476   8.883
 4386WAT     H213401   6.252   4.484   8.916
 4387WAT      O13402   0.559   7.147   5.572
 4387WAT     H113403   0.579   7.131   5.668
 4387WAT     H213404   0.551   7.060   5.524
 4388WAT      O13405   2.242   4.865   4.060
 4388WAT     H113406   2.307   4.881   4.133
 4388WAT     H213407   2.180   4.943   4.052
 4389WAT      O13408   8.100   8.809   3.342
 4389WAT     H113409   8.076   8.790   3.437
 4389WAT     H213410   8.101   8.724   3.290
 4390WAT      O13411   2.929   1.258   0.011
 4390WAT     H113412   2.980   1.310   0.080
 4390WAT     H213413   2.983   1.254  -0.074
 4391WAT      O13414   4.052   2.410   5.187
 4391WAT     H113415   4.038   2.450   5.277
 4391WAT     H213416   4.095   2.478   5.126
 4392WAT      O13417   0.324   2.179   5.127
 4392WAT     H113418   0.335   2.252   5.059
 4392WAT     H213419   0.253   2.115   5.097
 4393WAT      O13420   8.234   9.521   8.262
 4393WAT     H113421   8.333   9.528   8.247
 4393WAT     H213422   8.217   9.492   8.356
 4394WAT      O13423   8.064   3.745   4.780
 4394WAT     H113424   7.970   3.767   4.752
 4394WAT     H213425   8.078   3.774   4.875
 4395WAT      O13426   7.731   3.899   9.242
 4395WAT     H113427   7.647   3.944   9.273
 4395WAT     H213428   7.737   3.905   9.142
 4396WAT      O13429   9.252   9.283   6.950
 4396WAT     H113430   9.173   9.236   6.909
 4396WAT     H213431   9.335   9.229   6.932
 4397WAT      O13432   5.047   7.580   1.737
 4397WAT     H113433   5.059   7.592   1.835
 4397WAT     H213434   5.112   7.512   1.703
 4398WAT      O13435   7.879   0.196   7.126
 4398WAT     H113436   7.857   0.133   7.201
 4398WAT     H213437   7.803   0.200   7.062
 4399WAT      O13438   5.094   4.598   8.814
 4399WAT     H113439   5.123   4.612   8.719
 4399WAT     H213440   5.107   4.502   8.838
 4400WAT      O13441   5.571   8.541   2.956
 4400WAT     H113442   5.542   8.625   2.910
 4400WAT     H213443   5.516   8.528   3.038
 4401WAT      O13444   3.347   8.520   6.768
 4401WAT     H113445   3.383   8.513   6.676
 4401WAT     H213446   3.295   8.605   6.777
 4402WAT      O13447   3.183   8.853   7.762
 4402WAT     H113448   3.153   8.858   7.857
 4402WAT     H213449   3.267   8.907   7.751
 4403WAT      O13450   0.382   5.771   7.192
 4403WAT     H113451   0.411   5.702   7.126
 4403WAT     H213452   0.438   5.764   7.274
 4404WAT      O13453   4.857   1.281   9.317
 4404WAT     H113454   4.935   1.292   9.379
 4404WAT     H213455   4.815   1.370   9.301
 4405WAT      O13456   6.882   7.575   5.052
 4405WAT     H113457   6.915   7.503   5.113
 4405WAT     H213458   6.798   7.545   5.006
 4406WAT      O13459   6.016   8.915   0.837
 4406WAT     H113460   6.053   8.955   0.753
 4406WAT     H213461   6.088   8.906   0.905
 4407WAT      O13462   5.497   1.421   1.655
 4407WAT     H113463   5.444   1.435   1.571
 4407WAT     H213464   5.504   1.324   1.674
 4408WAT      O13465   3.956   9.546   0.313
 4408WAT     H113466   3.968   9.619   0.245
 4408WAT     H213467   3.879   9.568   0.372
 4409WAT      O13468   2.556   8.447   9.772
 4409WAT     H113469   2.482   8.438   9.839
 4409WAT     H213470   2.636   8.398   9.805
 4410WAT      O13471   4.530   4.192   4.773
 4410WAT     H113472   4.528   4.150   4.682
 4410WAT     H213473   4.622   4.223   4.793
 4411WAT      O13474   8.715   0.850   3.179
 4411WAT     H113475   8.693   0.947   3.174
 4411WAT     H213476   8.636   0.796   3.149
 4412WAT      O13477   5.757   0.383   1.908
 4412WAT     H113478   5.678   0.372   1.848
 4412WAT     H213479   5.830   0.432   1.859
 4413WAT      O13480   6.034   6.688   6.647
 4413WAT     H113481   6.125   6.718   6.674
 4413WAT     H213482   6.029   6.683   6.547
 4414WAT      O13483   8.337   9.008   7.095
 4414WAT     H113484   8.294   9.045   7.012
 4414WAT     H213485   8.290   9.045   7.175
 4415WAT      O13486   9.637   1.677   5.661
 4415WAT     H113487   9.555   1.684   5.605
 4415WAT     H213488   9.701   1.749   5.635
 4416WAT      O13489   3.314   2.709   2.249
 4416WAT     H113490   3.234   2.755   2.209
 4416WAT     H213491   3.328   2.622   2.202
 4417WAT      O13492   7.360   8.722   6.390
 4417WAT     H113493   7.460   8.720   6.393
 4417WAT     H213494   7.325   8.629   6.382
 4418WAT      O13495   8.466   9.733   6.631
 4418WAT     H113496   8.560   9.749   6.600
 4418WAT     H213497   8.421   9.821   6.647
 4419WAT      O13498   6.677   4.259   0.088
 4419WAT     H113499   6.718   4.325   0.151
 4419WAT     H213500   6.746   4.192   0.061
 4420WAT      O13501   8.377   7.315   6.978
 4420WAT     H113502   8.307   7.306   6.908
 4420WAT     H213503   8.366   7.402   7.026
 4421WAT      O13504   3.969   1.406   4.676
 4421WAT     H113505   3.908   1.338   4.637
 4421WAT     H213506   4.034   1.436   4.606
 4422WAT      O13507   5.355   8.623   5.876
 4422WAT     H113508   5.383   8.638   5.970
 4422WAT     H213509   5.277   8.682   5.854
 4423WAT      O13510   3.412   6.125   3.729
 4423WAT     H113511   3.398   6.175   3.815
 4423WAT     H213512   3.443   6.032   3.750
 4424WAT      O13513   5.619   2.797   3.908
 4424WAT     H113514   5.646   2.711   3.950
 4424WAT     H213515   5.543   2.837   3.959
 4425WAT      O13516   0.705   7.049   1.031
 4425WAT     H113517   0.802   7.040   1.056
 4425WAT     H213518   0.657   6.964   1.055
 4426WAT      O13519   8.629   6.444   4.797
 4426WAT     H113520   8.646   6.531   4.843
 4426WAT     H213521   8.702   6.425   4.732
 4427WAT      O13522   3.297   3.742   3.289
 4427WAT     H113523   3.240   3.703   3.217
 4427WAT     H213524   3.373   3.792   3.249
 4428WAT      O13525   5.709   4.942   6.339
 4428WAT     H113526   5.635   4.972   6.279
 4428WAT     H213527   5.678   4.948   6.434
 4429WAT      O13528   8.155   4.932   1.038
 4429WAT     H113529   8.128   4.858   1.100
 4429WAT     H213530   8.161   4.896   0.945
 4430WAT      O13531   9.855   5.823   3.256
 4430WAT     H113532   9.878   5.844   3.160
 4430WAT     H213533   9.914   5.878   3.316
 4431WAT      O13534   4.251   6.404   6.700
 4431WAT     H113535   4.272   6.496   6.735
 4431WAT     H213536   4.163   6.374   6.737
 4432WAT      O13537   3.652   0.597   6.534
 4432WAT     H113538   3.736   0.585   6.586
 4432WAT     H213539   3.578   0.546   6.577
 4433WAT      O13540   9.108   2.553   7.158
 4433WAT     H113541   9.116   2.522   7.253
 4433WAT     H213542   9.049   2.490   7.108
 4434WAT      O13543   0.808   1.684   6.014
 4434WAT     H113544   0.848   1.671   5.923
 4434WAT     H213545   0.837   1.772   6.051
 4435WAT      O13546   5.647   1.688   2.490
 4435WAT     H113547   5.742   1.679   2.519
 4435WAT     H213548   5.610   1.598   2.468
 4436WAT      O13549   2.883   2.687   1.661
 4436WAT     H113550   2.862   2.745   1.739
 4436WAT     H213551   2.969   2.638   1.679
 4437WAT      O13552   6.071   5.486   3.854
 4437WAT     H113553   6.144   5.451   3.912
 4437WAT     H213554   6.013   5.548   3.906
 4438WAT      O13555   2.304   9.249   5.998
 4438WAT     H113556   2.306   9.177   6.068
 4438WAT     H213557   2.388   9.303   6.003
 4439WAT      O13558   8.644   9.544   1.321
 4439WAT     H113559   8.557   9.555   1.273
 4439WAT     H213560   8.707   9.492   1.264
 4440WAT      O13561   2.029   8.258   9.406
 4440WAT     H113562   1.994   8.234   9.315
 4440WAT     H213563   2.128   8.248   9.407
 4441WAT      O13564   1.744   4.311   6.724
 4441WAT     H113565   1.839   4.288   6.744
 4441WAT     H213566   1.712   4.254   6.648
 4442WAT      O13567   7.278   6.621   8.771
 4442WAT     H113568   7.304   6.611   8.675
 4442WAT     H213569   7.282   6.717   8.797
 4443WAT      O13570   6.336   1.405   7.381
 4443WAT     H113571   6.349   1.364   7.472
 4443WAT     H213572   6.421   1.397   7.329
 4444WAT      O13573   6.743   4.704   9.452
 4444WAT     H113574   6.748   4.605   9.445
 4444WAT     H213575   6.778   4.746   9.368
 4445WAT      O13576   7.766   8.970   6.828
 4445WAT     H113577   7.765   9.068   6.845
 4445WAT     H213578   7.858   8.934   6.842
 4446WAT      O13579   7.102   4.872   8.114
 4446WAT     H113580   7.192   4.864   8.071
 4446WAT     H213581   7.113   4.910   8.207
 4447WAT      O13582   0.419   2.967   7.685
 4447WAT     H113583   0.492   2.986   7.620
 4447WAT     H213584   0.394   3.051   7.733
 4448WAT      O13585   1.657   5.560   6.677
 4448WAT     H113586   1.754   5.541   6.689
 4448WAT     H213587   1.639   5.657   6.694
 4449WAT      O13588   9.389   0.383   7.501
 4449WAT     H113589   9.398   0.379   7.401
 4449WAT     H213590   9.475   0.414   7.540
 4450WAT      O13591   5.464   8.193   5.976
 4450WAT     H113592   5.375   8.209   6.017
 4450WAT     H213593   5.528   8.263   6.008
 4451WAT      O13594   0.899   0.426   5.762
 4451WAT     H113595   0.967   0.355   5.744
 4451WAT     H213596   0.831   0.426   5.689
 4452WAT      O13597   0.544   2.675   9.850
 4452WAT     H113598   0.466   2.613   9.838
 4452WAT     H213599   0.601   2.643   9.926
 4453WAT      O13600   0.331   7.155   9.833
 4453WAT     H113601   0.294   7.143   9.925
 4453WAT     H213602   0.257   7.147   9.766
 4454WAT      O13603   5.032   2.142   1.197
 4454WAT     H113604   5.060   2.236   1.179
 4454WAT     H213605   5.002   2.099   1.112
 4455WAT      O13606   1.385   8.779   1.202
 4455WAT     H113607   1.337   8.727   1.131
 4455WAT     H213608   1.358   8.746   1.292
 4456WAT      O13609   4.317   1.504   6.714
 4456WAT     H113610   4.258   1.527   6.636
 4456WAT     H213611   4.412   1.528   6.691
 4457WAT      O13612   2.444   3.593   1.718
 4457WAT     H113613   2.470   3.679   1.672
 4457WAT     H213614   2.435   3.521   1.650
 4458WAT      O13615   0.034   8.166   8.165
 4458WAT     H113616   0.043   8.177   8.264
 4458WAT     H213617   0.106   8.104   8.132
 4459WAT      O13618   4.332   3.251   4.895
 4459WAT     H113619   4.426   3.241   4.929
 4459WAT     H213620   4.332   3.308   4.813
 4460WAT      O13621   6.131   4.703   9.520
 4460WAT     H113622   6.181   4.736   9.440
 4460WAT     H213623   6.069   4.630   9.493
 4461WAT      O13624   5.600   4.430   7.257
 4461WAT     H113625   5.536   4.432   7.180
 4461WAT     H213626   5.674   4.365   7.237
 4462WAT      O13627   3.058   6.170   6.160
 4462WAT     H113628   3.039   6.075   6.182
 4462WAT     H213629   3.012   6.230   6.226
 4463WAT      O13630   0.199   5.485   1.673
 4463WAT     H113631   0.170   5.580   1.671
 4463WAT     H213632   0.283   5.477   1.727
 4464WAT      O13633   2.181   1.589   3.652
 4464WAT     H113634   2.116   1.646   3.703
 4464WAT     H213635   2.273   1.600   3.691
 4465WAT      O13636   8.702   6.099   2.338
 4465WAT     H113637   8.644   6.041   2.281
 4465WAT     H213638   8.764   6.151   2.280
 4466WAT      O13639   6.632   6.617   9.490
 4466WAT     H113640   6.636   6.520   9.511
 4466WAT     H213641   6.627   6.630   9.391
 4467WAT      O13642   8.168   1.879   2.262
 4467WAT     H113643   8.129   1.913   2.177
 4467WAT     H213644   8.095   1.844   2.320
 4468WAT      O13645   7.533   3.895   3.155
 4468WAT     H113646   7.550   3.965   3.085
 4468WAT     H213647   7.517   3.807   3.110
 4469WAT      O13648   9.430   4.504   6.151
 4469WAT     H113649   9.470   4.422   6.190
 4469WAT     H213650   9.452   4.583   6.208
 4470WAT      O13651   3.431   3.069   4.355
 4470WAT     H113652   3.348   3.035   4.311
 4470WAT     H213653   3.509   3.015   4.324
 4471WAT      O13654   8.252   9.532   9.340
 4471WAT     H113655   8.183   9.603   9.325
 4471WAT     H213656   8.318   9.564   9.408
 4472WAT      O13657   8.836   6.444   4.631
 4472WAT     H113658   8.896   6.411   4.558
 4472WAT     H213659   8.878   6.523   4.675
 4473WAT      O13660   6.516   8.420   1.373
 4473WAT     H113661   6.566   8.464   1.448
 4473WAT     H213662   6.474   8.490   1.316
 4474WAT      O13663   8.025   4.761   3.670
 4474WAT     H113664   7.942   4.799   3.630
 4474WAT     H213665   8.001   4.704   3.749
 4475WAT      O13666   3.638   0.364   3.254
 4475WAT     H113667   3.631   0.351   3.155
 4475WAT     H213668   3.702   0.438   3.273
 4476WAT      O13669   6.850   3.891   7.881
 4476WAT     H113670   6.872   3.969   7.939
 4476WAT     H213671   6.813   3.923   7.794
 4477WAT      O13672   1.893   7.837   1.880
 4477WAT     H113673   1.829   7.762   1.863
 4477WAT     H213674   1.842   7.921   1.898
 4478WAT      O13675   6.265   2.386   2.546
 4478WAT     H113676   6.167   2.404   2.549
 4478WAT     H213677   6.283   2.296   2.585
 4479WAT      O13678   6.388   8.648   5.607
 4479WAT     H113679   6.444   8.647   5.690
 4479WAT     H213680   6.392   8.739   5.566
 4480WAT      O13681   0.668   0.346   4.970
 4480WAT     H113682   0.661   0.400   5.054
 4480WAT     H213683   0.723   0.264   4.988
 4481WAT      O13684   6.256   5.154   1.426
 4481WAT     H113685   6.300   5.073   1.390
 4481WAT     H213686   6.203   5.130   1.507
 4482WAT      O13687   3.065   2.427   8.946
 4482WAT     H113688   3.011   2.486   9.006
 4482WAT     H213689   3.006   2.388   8.875
 4483WAT      O13690   8.537   3.284   8.202
 4483WAT     H113691   8.534   3.231   8.117
 4483WAT     H213692   8.529   3.382   8.181
 4484WAT      O13693   4.452   6.833   0.982
 4484WAT     H113694   4.466   6.746   1.028
 4484WAT     H213695   4.526   6.896   1.006
 4485WAT      O13696   9.100   5.590   6.522
 4485WAT     H113697   9.156   5.584   6.604
 4485WAT     H213698   9.155   5.626   6.446
 4486WAT      O13699   6.837   9.170   9.841
 4486WAT     H113700   6.854   9.187   9.744
 4486WAT     H213701   6.757   9.221   9.871
 4487WAT      O13702   7.138   4.098   8.705
 4487WAT     H113703   7.234   4.079   8.683
 4487WAT     H213704   7.116   4.192   8.677
 4488WAT      O13705   8.644   3.787   2.915
 4488WAT     H113706   8.721   3.735   2.878
 4488WAT     H213707   8.578   3.724   2.956
 4489WAT      O13708   2.909   0.070   4.704
 4489WAT     H113709   2.939  -0.024   4.717
 4489WAT     H213710   2.975   0.118   4.646
 4490WAT      O13711   1.996   2.938   8.302
 4490WAT     H113712   1.962   3.029   8.278
 4490WAT     H213713   1.981   2.922   8.400
 4491WAT      O13714   8.989   3.977   0.588
 4491WAT     H113715   9.059   3.992   0.518
 4491WAT     H213716   8.969   3.879   0.595
 4492WAT      O13717   1.773   5.247   4.364
 4492WAT     H113718   1.809   5.172   4.308
 4492WAT     H213719   1.679   5.266   4.337
 4493WAT      O13720   9.627   0.490   2.927
 4493WAT     H113721   9.706   0.444   2.887
 4493WAT     H213722   9.580   0.429   2.991
 4494WAT      O13723   7.352   8.563   8.906
 4494WAT     H113724   7.275   8.627   8.915
 4494WAT     H213725   7.317   8.469   8.903
 4495WAT      O13726   2.380   0.898   4.172
 4495WAT     H113727   2.431   0.913   4.256
 4495WAT     H213728   2.366   0.985   4.125
 4496WAT      O13729   6.931   0.995   8.073
 4496WAT     H113730   6.870   0.988   8.151
 4496WAT     H213731   6.931   0.908   8.023
 4497WAT      O13732   6.441   5.548   2.626
 4497WAT     H113733   6.524   5.519   2.672
 4497WAT     H213734   6.381   5.469   2.611
 4498WAT      O13735   5.424   7.323   1.698
 4498WAT     H113736   5.459   7.340   1.605
 4498WAT     H213737   5.324   7.323   1.696
 4499WAT      O13738   4.257   1.750   0.900
 4499WAT     H113739   4.227   1.843   0.880
 4499WAT     H213740   4.221   1.688   0.830
 4500WAT      O13741   2.005   2.760   7.889
 4500WAT     H113742   2.012   2.800   7.980
 4500WAT     H213743   1.980   2.831   7.823
 4501WAT      O13744   0.256   4.637   8.187
 4501WAT     H113745   0.213   4.606   8.102
 4501WAT     H213746   0.349   4.667   8.168
 4502WAT      O13747   9.844   3.473   1.570
 4502WAT     H113748   9.788   3.440   1.646
 4502WAT     H213749   9.785   3.510   1.499
 4503WAT      O13750   6.762   0.115   9.027
 4503WAT     H113751   6.709   0.197   9.009
 4503WAT     H213752   6.841   0.138   9.084
 4504WAT      O13753   8.992   4.201   5.735
 4504WAT     H113754   8.980   4.123   5.675
 4504WAT     H213755   8.953   4.181   5.825
 4505WAT      O13756   0.251   5.470   4.075
 4505WAT     H113757   0.257   5.532   3.997
 4505WAT     H213758   0.205   5.516   4.151
 4506WAT      O13759   9.372   1.278   4.942
 4506WAT     H113760   9.290   1.236   4.980
 4506WAT     H213761   9.447   1.212   4.943
 4507WAT      O13762   1.802   6.674   4.069
 4507WAT     H113763   1.742   6.754   4.077
 4507WAT     H213764   1.791   6.633   3.978
 4508WAT      O13765   5.870   4.335   9.593
 4508WAT     H113766   5.796   4.303   9.534
 4508WAT     H213767   5.832   4.381   9.673
 4509WAT      O13768   6.110   2.032   7.170
 4509WAT     H113769   6.029   2.039   7.229
 4509WAT     H213770   6.137   1.936   7.163
 4510WAT      O13771   6.757   4.186   7.048
 4510WAT     H113772   6.700   4.163   6.969
 4510WAT     H213773   6.836   4.124   7.052
 4511WAT      O13774   1.357   7.278   6.833
 4511WAT     H113775   1.376   7.376   6.827
 4511WAT     H213776   1.284   7.254   6.769
 4512WAT      O13777   0.321   7.087   3.558
 4512WAT     H113778   0.394   7.076   3.626
 4512WAT     H213779   0.336   7.023   3.482
 4513WAT      O13780   2.261   0.399   8.006
 4513WAT     H113781   2.320   0.438   8.076
 4513WAT     H213782   2.191   0.467   7.980
 4514WAT      O13783   5.897   5.770   5.122
 4514WAT     H113784   5.900   5.719   5.208
 4514WAT     H213785   5.863   5.710   5.049
 4515WAT      O13786   6.132   5.034   1.611
 4515WAT     H113787   6.201   5.006   1.678
 4515WAT     H213788   6.091   4.953   1.570
 4516WAT      O13789   8.701   6.612   7.925
 4516WAT     H113790   8.714   6.616   7.826
 4516WAT     H213791   8.747   6.531   7.961
 4517WAT      O13792   5.077   4.601   6.719
 4517WAT     H113793   5.149   4.649   6.668
 4517WAT     H213794   5.064   4.510   6.680
 4518WAT      O13795   5.145   4.830   2.308
 4518WAT     H113796   5.093   4.910   2.275
 4518WAT     H213797   5.223   4.814   2.248
 4519WAT      O13798   1.473   3.909   1.565
 4519WAT     H113799   1.394   3.850   1.580
 4519WAT     H213800   1.494   3.914   1.467
 4520WAT      O13801   0.176   9.541   0.845
 4520WAT     H113802   0.207   9.621   0.897
 4520WAT     H213803   0.076   9.538   0.844
 4521WAT      O13804   4.662   3.803   0.418
 4521WAT     H113805   4.668   3.837   0.511
 4521WAT     H213806   4.609   3.718   0.416
 4522WAT      O13807   1.090   2.814   1.366
 4522WAT     H113808   1.014   2.769   1.413
 4522WAT     H213809   1.155   2.850   1.433
 4523WAT      O13810   7.455   6.189   3.957
 4523WAT     H113811   7.526   6.121   3.936
 4523WAT     H213812   7.465   6.221   4.051
 4524WAT      O13813   7.738   7.561   7.545
 4524WAT     H113814   7.705   7.467   7.548
 4524WAT     H213815   7.748   7.596   7.638
 4525WAT      O13816   0.722   5.045   4.114
 4525WAT     H113817   0.780   4.980   4.065
 4525WAT     H213818   0.730   5.135   4.070
 4526WAT      O13819   0.573   4.631   0.755
 4526WAT     H113820   0.509   4.682   0.698
 4526WAT     H213821   0.658   4.617   0.705
 4527WAT      O13822   1.722   5.782   5.294
 4527WAT     H113823   1.676   5.782   5.383
 4527WAT     H213824   1.816   5.816   5.305
 4528WAT      O13825   9.229   6.681   2.584
 4528WAT     H113826   9.146   6.695   2.531
 4528WAT     H213827   9.210   6.620   2.661
 4529WAT      O13828   1.171   8.745   6.834
 4529WAT     H113829   1.202   8.839   6.825
 4529WAT     H213830   1.143   8.728   6.928
 4530WAT      O13831   7.284   1.798   4.917
 4530WAT     H113832   7.192   1.838   4.916
 4530WAT     H213833   7.352   1.871   4.910
 4531WAT      O13834   6.262   7.786   6.697
 4531WAT     H113835   6.208   7.859   6.656
 4531WAT     H213836   6.308   7.820   6.779
 4532WAT      O13837   1.227   3.604   5.301
 4532WAT     H113838   1.250   3.639   5.210
 4532WAT     H213839   1.242   3.677   5.368
 4533WAT      O13840   7.588   5.318   5.290
 4533WAT     H113841   7.521   5.244   5.295
 4533WAT     H213842   7.584   5.362   5.201
 4534WAT      O13843   0.896   7.033   0.814
 4534WAT     H113844   0.817   7.048   0.875
 4534WAT     H213845   0.979   7.068   0.857
 4535WAT      O13846   9.639   7.688   2.498
 4535WAT     H113847   9.675   7.637   2.577
 4535WAT     H213848   9.679   7.779   2.495
 4536WAT      O13849   5.621   0.260   3.793
 4536WAT     H113850   5.533   0.227   3.826
 4536WAT     H213851   5.680   0.182   3.773
 4537WAT      O13852   9.047   9.714   2.186
 4537WAT     H113853   9.024   9.810   2.171
 4537WAT     H213854   8.967   9.657   2.166
 4538WAT      O13855   3.795   3.853   6.639
 4538WAT     H113856   3.829   3.934   6.685
 4538WAT     H213857   3.851   3.774   6.664
 4539WAT      O13858   6.679   3.917   4.635
 4539WAT     H113859   6.719   3.937   4.725
 4539WAT     H213860   6.686   3.999   4.577
 4540WAT      O13861   6.733   3.461   8.601
 4540WAT     H113862   6.739   3.430   8.506
 4540WAT     H213863   6.678   3.545   8.605
 4541WAT      O13864   5.024   9.295   5.106
 4541WAT     H113865   5.001   9.347   5.024
 4541WAT     H213866   5.020   9.355   5.186
 4542WAT      O13867   5.118   6.390   7.868
 4542WAT     H113868   5.023   6.403   7.839
 4542WAT     H213869   5.141   6.293   7.865
 4543WAT      O13870   2.824   3.898   6.678
 4543WAT     H113871   2.811   3.947   6.764
 4543WAT     H213872   2.877   3.955   6.615
 4544WAT      O13873   5.732   7.653   8.314
 4544WAT     H113874   5.678   7.694   8.387
 4544WAT     H213875   5.815   7.612   8.353
 4545WAT      O13876   9.466   9.068   7.805
 4545WAT     H113877   9.421   9.145   7.760
 4545WAT     H213878   9.479   8.994   7.739
 4546WAT      O13879   6.876   2.776   3.385
 4546WAT     H113880   6.967   2.744   3.360
 4546WAT     H213881   6.807   2.731   3.328
 4547WAT      O13882   6.449   8.766   6.985
 4547WAT     H113883   6.357   8.734   6.963
 4547WAT     H213884   6.443   8.850   7.039
 4548WAT      O13885   8.430   3.544   0.292
 4548WAT     H113886   8.483   3.504   0.367
 4548WAT     H213887   8.343   3.577   0.327
 4549WAT      O13888   7.795   6.286   4.924
 4549WAT     H113889   7.748   6.282   5.012
 4549WAT     H213890   7.879   6.339   4.934
 4550WAT      O13891   4.384   0.401   7.419
 4550WAT     H113892   4.482   0.396   7.439
 4550WAT     H213893   4.333   0.344   7.484
 4551WAT      O13894   0.105   2.278   5.399
 4551WAT     H113895   0.200   2.307   5.406
 4551WAT     H213896   0.046   2.359   5.403
 4552WAT      O13897   5.679   3.907   3.747
 4552WAT     H113898   5.583   3.936   3.751
 4552WAT     H213899   5.729   3.949   3.823
 4553WAT      O13900   9.577   2.771   5.153
 4553WAT     H113901   9.503   2.838   5.156
 4553WAT     H213902   9.601   2.751   5.058
 4554WAT      O13903   9.637   4.237   9.386
 4554WAT     H113904   9.717   4.192   9.425
 4554WAT     H213905   9.554   4.207   9.433
 4555WAT      O13906   4.409   6.772   1.453
 4555WAT     H113907   4.343   6.781   1.379
 4555WAT     H213908   4.363   6.738   1.535
 4556WAT      O13909   5.541   7.662   7.503
 4556WAT     H113910   5.641   7.655   7.506
 4556WAT     H213911   5.508   7.699   7.590
 4557WAT      O13912   8.044   9.354   3.364
 4557WAT     H113913   8.014   9.401   3.281
 4557WAT     H213914   8.085   9.266   3.340
 4558WAT      O13915   4.526   3.525   5.985
 4558WAT     H113916   4.624   3.513   5.999
 4558WAT     H213917   4.509   3.560   5.893
 4559WAT      O13918   0.301   3.437   6.465
 4559WAT     H113919   0.349   3.357   6.501
 4559WAT     H213920   0.236   3.407   6.395
 4560WAT      O13921   8.713   1.604   5.433
 4560WAT     H113922   8.721   1.580   5.530
 4560WAT     H213923   8.637   1.669   5.422
 4561WAT      O13924   7.845   9.379   3.554
 4561WAT     H113925   7.917   9.371   3.485
 4561WAT     H213926   7.762   9.333   3.521
 4562WAT      O13927   2.073   8.106   4.983
 4562WAT     H113928   2.084   8.010   4.956
 4562WAT     H213929   2.123   8.123   5.068
 4563WAT      O13930   5.867   3.763   7.947
 4563WAT     H113931   5.841   3.709   8.027
 4563WAT     H213932   5.958   3.735   7.916
 4564WAT      O13933   3.995   5.463   8.945
 4564WAT     H113934   4.020   5.493   9.037
 4564WAT     H213935   4.077   5.431   8.897
 4565WAT      O13936   4.758   5.236   3.361
 4565WAT     H113937   4.713   5.238   3.272
 4565WAT     H213938   4.725   5.312   3.417
 4566WAT      O13939   6.377   7.885   7.871
 4566WAT     H113940   6.445   7.822   7.909
 4566WAT     H213941   6.394   7.977   7.906
 4567WAT      O13942   3.422   0.801   0.259
 4567WAT     H113943   3.471   0.723   0.297
 4567WAT     H213944   3.449   0.884   0.307
 4568WAT      O13945   2.000   9.464   6.555
 4568WAT     H113946   1.965   9.558   6.549
 4568WAT     H213947   1.961   9.420   6.636
 4569WAT      O13948   4.794   3.952   4.730
 4569WAT     H113949   4.719   3.959   4.664
 4569WAT     H213950   4.795   4.034   4.788
 4570WAT      O13951   2.973   4.471   9.745
 4570WAT     H113952   3.068   4.465   9.717
 4570WAT     H213953   2.952   4.397   9.809
 4571WAT      O13954   1.616   7.279   7.136
 4571WAT     H113955   1.556   7.276   7.055
 4571WAT     H213956   1.693   7.340   7.117
 4572WAT      O13957   1.657   7.710   6.639
 4572WAT     H113958   1.713   7.764   6.576
 4572WAT     H213959   1.629   7.768   6.716
 4573WAT      O13960   4.442   6.940   6.000
 4573WAT     H113961   4.382   6.958   5.922
 4573WAT     H213962   4.387   6.915   6.079
 4574WAT      O13963   4.615   1.829   6.712
 4574WAT     H113964   4.522   1.843   6.678
 4574WAT     H213965   4.681   1.853   6.641
 4575WAT      O13966   0.633   2.961   7.501
 4575WAT     H113967   0.695   2.907   7.558
 4575WAT     H213968   0.592   2.903   7.431
 4576WAT      O13969   5.458   1.525   7.989
 4576WAT     H113970   5.522   1.518   7.913
 4576WAT     H213971   5.371   1.483   7.963
 4577WAT      O13972   0.825   1.910   7.871
 4577WAT     H113973   0.841   1.880   7.965
 4577WAT     H213974   0.751   1.978   7.870
 4578WAT      O13975   7.981   4.399   3.288
 4578WAT     H113976   8.049   4.338   3.246
 4578WAT     H213977   8.008   4.494   3.272
 4579WAT      O13978   7.611   2.422   9.092
 4579WAT     H113979   7.570   2.502   9.049
 4579WAT     H213980   7.600   2.428   9.192
 4580WAT      O13981   4.059   1.688   0.610
 4580WAT     H113982   4.061   1.785   0.633
 4580WAT     H213983   4.149   1.648   0.623
 4581WAT      O13984   7.197   5.024   8.405
 4581WAT     H113985   7.098   5.038   8.399
 4581WAT     H213986   7.228   5.040   8.498
 4582WAT      O13987   6.215   7.095   1.032
 4582WAT     H113988   6.291   7.131   0.977
 4582WAT     H213989   6.130   7.103   0.980
 4583WAT      O13990   4.478   3.091   7.841
 4583WAT     H113991   4.407   3.025   7.867
 4583WAT     H213992   4.567   3.056   7.870
 4584WAT      O13993   7.271   5.273   1.623
 4584WAT     H113994   7.317   5.243   1.539
 4584WAT     H213995   7.324   5.346   1.666
 4585WAT      O13996   7.263   5.733   1.036
 4585WAT     H113997   7.263   5.814   0.978
 4585WAT     H213998   7.356   5.699   1.047
 4586WAT      O13999   4.461   3.276   6.446
 4586WAT     H114000   4.445   3.182   6.416
 4586WAT     H214001   4.461   3.280   6.546
 4587WAT      O14002   8.692   9.620   8.100
 4587WAT     H114003   8.740   9.539   8.133
 4587WAT     H214004   8.599   9.622   8.138
 4588WAT      O14005   8.463   5.063   7.082
 4588WAT     H114006   8.465   5.126   7.005
 4588WAT     H214007   8.409   5.104   7.156
 4589WAT      O14008   1.147   1.087   0.695
 4589WAT     H114009   1.137   1.000   0.648
 4589WAT     H214010   1.064   1.142   0.683
 4590WAT      O14011   9.364   5.753   5.802
 4590WAT     H114012   9.425   5.674   5.807
 4590WAT     H214013   9.417   5.835   5.777
 4591WAT      O14014   8.291   3.303   3.610
 4591WAT     H114015   8.301   3.318   3.708
 4591WAT     H214016   8.370   3.341   3.562
 4592WAT      O14017   6.776   3.005   8.639
 4592WAT     H114018   6.867   3.015   8.679
 4592WAT     H214019   6.739   2.914   8.662
 4593WAT      O14020   0.619   3.924   6.007
 4593WAT     H114021   0.612   3.888   6.100
 4593WAT     H214022   0.530   3.960   5.978
 4594WAT      O14023   7.224   8.839   4.008
 4594WAT     H114024   7.266   8.914   3.958
 4594WAT     H214025   7.272   8.827   4.096
 4595WAT      O14026   2.121   3.853   4.690
 4595WAT     H114027   2.060   3.931   4.673
 4595WAT     H214028   2.102   3.781   4.623
 4596WAT      O14029   4.762   4.653   9.626
 4596WAT     H114030   4.714   4.674   9.711
 4596WAT     H214031   4.764   4.554   9.611
 4597WAT      O14032   8.931   9.525   0.593
 4597WAT     H114033   8.897   9.617   0.573
 4597WAT     H214034   8.968   9.484   0.509
 4598WAT      O14035   8.073   3.894   2.150
 4598WAT     H114036   8.016   3.967   2.188
 4598WAT     H214037   8.117   3.844   2.225
 4599WAT      O14038   6.945   4.460   5.902
 4599WAT     H114039   6.869   4.492   5.846
 4599WAT     H214040   6.974   4.370   5.870
 4600WAT      O14041   8.714   5.237   1.992
 4600WAT     H114042   8.651   5.206   1.921
 4600WAT     H214043   8.804   5.252   1.952
 4601WAT      O14044   1.169   7.238   0.907
 4601WAT     H114045   1.161   7.198   0.816
 4601WAT     H214046   1.231   7.183   0.963
 4602WAT      O14047   1.878   1.112   5.666
 4602WAT     H114048   1.806   1.053   5.630
 4602WAT     H214049   1.962   1.060   5.676
 4603WAT      O14050   3.863   3.646   8.607
 4603WAT     H114051   3.833   3.641   8.512
 4603WAT     H214052   3.959   3.674   8.611
 4604WAT      O14053   6.496   2.425   3.950
 4604WAT     H114054   6.574   2.366   3.971
 4604WAT     H214055   6.529   2.506   3.900
 4605WAT      O14056   9.473   5.353   1.913
 4605WAT     H114057   9.522   5.392   1.835
 4605WAT     H214058   9.381   5.325   1.885
 4606WAT      O14059   2.500   4.056   5.321
 4606WAT     H114060   2.563   4.106   5.262
 4606WAT     H214061   2.549   3.984   5.370
 4607WAT      O14062   4.004   7.009   8.730
 4607WAT     H114063   3.916   7.048   8.704
 4607WAT     H214064   3.990   6.917   8.768
 4608WAT      O14065   0.587   5.583   1.553
 4608WAT     H114066   0.503   5.634   1.569
 4608WAT     H214067   0.655   5.642   1.510
 4609WAT      O14068   4.386   8.056   0.620
 4609WAT     H114069   4.432   7.972   0.647
 4609WAT     H214070   4.345   8.099   0.700
 4610WAT      O14071   5.755   6.623   8.697
 4610WAT     H114072   5.728   6.684   8.771
 4610WAT     H214073   5.736   6.667   8.609
 4611WAT      O14074   2.348   2.215   7.217
 4611WAT     H114075   2.314   2.215   7.311
 4611WAT     H214076   2.285   2.267   7.159
 4612WAT      O14077   9.829   6.372   0.914
 4612WAT     H114078   9.782   6.336   0.994
 4612WAT     H214079   9.910   6.422   0.943
 4613WAT      O14080   2.809   0.008   1.258
 4613WAT     H114081   2.715  -0.015   1.284
 4613WAT     H214082   2.819  -0.002   1.159
 4614WAT      O14083   1.077   1.787   7.839
 4614WAT     H114084   0.983   1.815   7.820
 4614WAT     H214085   1.085   1.688   7.828
 4615WAT      O14086   4.883   8.901   4.252
 4615WAT     H114087   4.953   8.835   4.276
 4615WAT     H214088   4.889   8.980   4.313
 4616WAT      O14089   9.454   2.432   9.742
 4616WAT     H114090   9.467   2.477   9.653
 4616WAT     H214091   9.492   2.339   9.737
 4617WAT      O14092   4.616   8.360   3.342
 4617WAT     H114093   4.530   8.379   3.295
 4617WAT     H214094   4.692   8.396   3.289
 4618WAT      O14095   5.397   2.210   5.964
 4618WAT     H114096   5.440   2.277   6.025
 4618WAT     H214097   5.464   2.141   5.937
 4619WAT      O14098   2.454   2.479   0.794
 4619WAT     H114099   2.425   2.573   0.813
 4619WAT     H214100   2.515   2.478   0.715
 4620WAT      O14101   2.695   4.018   2.386
 4620WAT     H114102   2.657   3.940   2.336
 4620WAT     H214103   2.650   4.102   2.355
 4621WAT      O14104   7.163   4.412   8.998
 4621WAT     H114105   7.186   4.491   8.941
 4621WAT     H214106   7.188   4.432   9.093
 4622WAT      O14107   3.706   3.586   9.087
 4622WAT     H114108   3.699   3.575   8.988
 4622WAT     H214109   3.636   3.649   9.119
 4623WAT      O14110   5.776   1.803   2.272
 4623WAT     H114111   5.874   1.797   2.294
 4623WAT     H214112   5.724   1.751   2.340
 4624WAT      O14113   8.097   5.969   8.778
 4624WAT     H114114   8.119   5.928   8.867
 4624WAT     H214115   8.179   5.968   8.720
 4625WAT      O14116   5.506   7.909   0.919
 4625WAT     H114117   5.412   7.910   0.885
 4625WAT     H214118   5.569   7.934   0.845
 4626WAT      O14119   2.428   6.987   0.612
 4626WAT     H114120   2.492   6.957   0.683
 4626WAT     H214121   2.376   7.066   0.644
 4627WAT      O14122   9.586   4.350   4.861
 4627WAT     H114123   9.510   4.342   4.925
 4627WAT     H214124   9.590   4.443   4.826
 4628WAT      O14125   5.100   3.832   9.087
 4628WAT     H114126   5.144   3.768   9.023
 4628WAT     H214127   5.170   3.871   9.148
 4629WAT      O14128   9.083   1.316   5.691
 4629WAT     H114129   9.005   1.275   5.645
 4629WAT     H214130   9.119   1.391   5.636
 4630WAT      O14131   7.165   7.140   0.108
 4630WAT     H114132   7.252   7.189   0.112
 4630WAT     H214133   7.143   7.120   0.013
 4631WAT      O14134   0.280   9.426   9.146
 4631WAT     H114135   0.210   9.463   9.086
 4631WAT     H214136   0.362   9.404   9.093
 4632WAT      O14137   1.977   3.730   3.855
 4632WAT     H114138   1.887   3.756   3.888
 4632WAT     H214139   1.968   3.656   3.789
 4633WAT      O14140   5.797   9.217   0.017
 4633WAT     H114141   5.735   9.243   0.091
 4633WAT     H214142   5.745   9.178  -0.059
 4634WAT      O14143   3.834   7.834   2.838
 4634WAT     H114144   3.769   7.759   2.835
 4634WAT     H214145   3.786   7.920   2.858
 4635WAT      O14146   8.384   6.553   5.854
 4635WAT     H114147   8.444   6.574   5.776
 4635WAT     H214148   8.400   6.459   5.884
 4636WAT      O14149   6.313   9.471   9.324
 4636WAT     H114150   6.383   9.430   9.265
 4636WAT     H214151   6.244   9.402   9.345
 4637WAT      O14152   8.658   8.042   0.733
 4637WAT     H114153   8.742   8.091   0.758
 4637WAT     H214154   8.579   8.097   0.758
 4638WAT      O14155   3.152   9.652   6.419
 4638WAT     H114156   3.210   9.664   6.338
 4638WAT     H214157   3.211   9.643   6.500
 4639WAT      O14158   4.821   1.746   5.889
 4639WAT     H114159   4.848   1.841   5.903
 4639WAT     H214160   4.731   1.742   5.845
 4640WAT      O14161   0.093   6.575   1.046
 4640WAT     H114162   0.192   6.564   1.036
 4640WAT     H214163   0.061   6.519   1.122
 4641WAT      O14164   0.724   3.117   2.540
 4641WAT     H114165   0.627   3.108   2.519
 4641WAT     H214166   0.767   3.026   2.540
 4642WAT      O14167   9.183   3.776   6.153
 4642WAT     H114168   9.214   3.871   6.167
 4642WAT     H214169   9.170   3.760   6.055
 4643WAT      O14170   7.828   9.047   5.485
 4643WAT     H114171   7.920   9.084   5.497
 4643WAT     H214172   7.805   9.048   5.387
 4644WAT      O14173   5.473   9.529   6.999
 4644WAT     H114174   5.435   9.605   6.946
 4644WAT     H214175   5.419   9.446   6.982
 4645WAT      O14176   6.285   2.154   1.726
 4645WAT     H114177   6.318   2.202   1.808
 4645WAT     H214178   6.217   2.211   1.680
 4646WAT      O14179   3.072   9.163   7.799
 4646WAT     H114180   3.126   9.201   7.873
 4646WAT     H214181   2.974   9.178   7.817
 4647WAT      O14182   7.238   6.075   1.383
 4647WAT     H114183   7.164   6.075   1.450
 4647WAT     H214184   7.251   5.981   1.349
 4648WAT      O14185   5.168   2.530   6.438
 4648WAT     H114186   5.149   2.471   6.360
 4648WAT     H214187   5.124   2.619   6.425
 4649WAT      O14188   9.108   0.154   6.319
 4649WAT     H114189   9.045   0.085   6.354
 4649WAT     H214190   9.065   0.205   6.245
 4650WAT      O14191   0.563   8.681   1.398
 4650WAT     H114192   0.624   8.742   1.448
 4650WAT     H214193   0.594   8.587   1.408
 4651WAT      O14194   1.856   8.188   8.904
 4651WAT     H114195   1.824   8.097   8.877
 4651WAT     H214196   1.783   8.235   8.954
 4652WAT      O14197   0.345   3.729   5.783
 4652WAT     H114198   0.444   3.745   5.783
 4652WAT     H214199   0.303   3.787   5.713
 4653WAT      O14200   3.884   0.808   5.563
 4653WAT     H114201   3.796   0.780   5.524
 4653WAT     H214202   3.937   0.857   5.494
 4654WAT      O14203   7.996   7.612   5.429
 4654WAT     H114204   7.952   7.523   5.416
 4654WAT     H214205   7.993   7.664   5.344
 4655WAT      O14206   8.216   9.355   0.596
 4655WAT     H114207   8.190   9.266   0.559
 4655WAT     H214208   8.157   9.426   0.559
 4656WAT      O14209   6.097   8.487   0.680
 4656WAT     H114210   6.153   8.486   0.763
 4656WAT     H214211   6.005   8.522   0.702
 4657WAT      O14212   6.906   0.703   2.500
 4657WAT     H114213   6.819   0.671   2.537
 4657WAT     H214214   6.902   0.707   2.400
 4658WAT      O14215   5.629   2.045   5.943
 4658WAT     H114216   5.678   2.064   6.028
 4658WAT     H214217   5.576   1.961   5.953
 4659WAT      O14218   8.238   3.016   1.105
 4659WAT     H114219   8.257   3.002   1.202
 4659WAT     H214220   8.218   3.112   1.088
 4660WAT      O14221   1.407   6.776   3.971
 4660WAT     H114222   1.443   6.781   3.878
 4660WAT     H214223   1.307   6.773   3.968
 4661WAT      O14224   7.215   4.625   9.509
 4661WAT     H114225   7.119   4.648   9.527
 4661WAT     H214226   7.271   4.652   9.588
 4662WAT      O14227   7.241   8.491   4.236
 4662WAT     H114228   7.211   8.464   4.145
 4662WAT     H214229   7.329   8.448   4.256
 4663WAT      O14230   8.422   0.820   2.782
 4663WAT     H114231   8.518   0.834   2.806
 4663WAT     H214232   8.399   0.874   2.701
 4664WAT      O14233   1.099   8.897   8.942
 4664WAT     H114234   1.053   8.982   8.916
 4664WAT     H214235   1.050   8.855   9.019
 4665WAT      O14236   3.832   1.590   6.310
 4665WAT     H114237   3.906   1.652   6.283
 4665WAT     H214238   3.838   1.506   6.256
 4666WAT      O14239   4.000   4.195   9.120
 4666WAT     H114240   3.985   4.294   9.110
 4666WAT     H214241   4.094   4.174   9.096
 4667WAT      O14242   5.760   6.851   3.719
 4667WAT     H114243   5.772   6.852   3.818
 4667WAT     H214244   5.734   6.760   3.689
 4668WAT      O14245   9.782   0.845   2.927
 4668WAT     H114246   9.822   0.925   2.971
 4668WAT     H214247   9.767   0.773   2.995
 4669WAT      O14248   6.686   6.757   3.233
 4669WAT     H114249   6.717   6.675   3.280
 4669WAT     H214250   6.640   6.731   3.147
 4670WAT      O14251   5.558   4.670   0.703
 4670WAT     H114252   5.518   4.762   0.699
 4670WAT     H214253   5.541   4.631   0.793
 4671WAT      O14254   3.836   3.569   3.041
 4671WAT     H114255   3.772   3.504   2.999
 4671WAT     H214256   3.796   3.660   3.040
 4672WAT      O14257   5.953   7.589   5.628
 4672WAT     H114258   6.016   7.634   5.565
 4672WAT     H214259   5.934   7.650   5.705
 4673WAT      O14260   2.458   5.517   1.926
 4673WAT     H114261   2.400   5.578   1.980
 4673WAT     H214262   2.465   5.551   1.832
 4674WAT      O14263   7.184   1.190   5.545
 4674WAT     H114264   7.104   1.174   5.604
 4674WAT     H214265   7.262   1.141   5.583
 4675WAT      O14266   2.669   3.722   4.746
 4675WAT     H114267   2.654   3.624   4.734
 4675WAT     H214268   2.754   3.737   4.796
 4676WAT      O14269   7.171   6.094   8.304
 4676WAT     H114270   7.217   6.082   8.392
 4676WAT     H214271   7.072   6.094   8.318
 4677WAT      O14272   1.032   3.284   3.359
 4677WAT     H114273   0.996   3.199   3.398
 4677WAT     H214274   1.117   3.309   3.405
 4678WAT      O14275   2.429   8.125   1.779
 4678WAT     H114276   2.456   8.032   1.753
 4678WAT     H214277   2.446   8.139   1.877
 4679WAT      O14278   7.511   0.466   7.336
 4679WAT     H114279   7.506   0.546   7.395
 4679WAT     H214280   7.524   0.495   7.241
 4680WAT      O14281   6.236   8.964   1.017
 4680WAT     H114282   6.286   8.907   1.083
 4680WAT     H214283   6.296   9.036   0.984
 4681WAT      O14284   2.150   9.139   2.211
 4681WAT     H114285   2.109   9.182   2.130
 4681WAT     H214286   2.122   9.043   2.215
 4682WAT      O14287   5.673   6.212   5.378
 4682WAT     H114288   5.671   6.176   5.471
 4682WAT     H214289   5.730   6.294   5.375
 4683WAT      O14290   9.874   7.789   6.746
 4683WAT     H114291   9.955   7.801   6.688
 4683WAT     H214292   9.803   7.742   6.693
 4684WAT      O14293   3.812   6.142   2.767
 4684WAT     H114294   3.725   6.108   2.803
 4684WAT     H214295   3.884   6.074   2.784
 4685WAT      O14296   5.052   4.407   8.072
 4685WAT     H114297   5.085   4.359   8.154
 4685WAT     H214298   5.008   4.493   8.099
 4686WAT      O14299   8.731   1.578   1.701
 4686WAT     H114300   8.649   1.567   1.758
 4686WAT     H214301   8.705   1.615   1.612
 4687WAT      O14302   9.824   1.755   9.079
 4687WAT     H114303   9.907   1.811   9.073
 4687WAT     H214304   9.779   1.753   8.989
 4688WAT      O14305   5.143   2.808   8.026
 4688WAT     H114306   5.109   2.885   8.079
 4688WAT     H214307   5.179   2.738   8.088
 4689WAT      O14308   1.191   0.946   7.878
 4689WAT     H114309   1.135   0.978   7.954
 4689WAT     H214310   1.210   1.022   7.816
 4690WAT      O14311   7.302   6.468   7.808
 4690WAT     H114312   7.278   6.390   7.866
 4690WAT     H214313   7.377   6.519   7.850
 4691WAT      O14314   0.451   8.649   3.515
 4691WAT     H114315   0.428   8.710   3.591
 4691WAT     H214316   0.550   8.650   3.500
 4692WAT      O14317   9.037   9.558   8.078
 4692WAT     H114318   9.110   9.542   8.145
 4692WAT     H214319   8.953   9.513   8.108
 4693WAT      O14320   5.484   5.391   9.749
 4693WAT     H114321   5.393   5.426   9.772
 4693WAT     H214322   5.551   5.465   9.754
 4694WAT      O14323   4.716   8.399   3.598
 4694WAT     H114324   4.690   8.377   3.504
 4694WAT     H214325   4.788   8.337   3.628
 4695WAT      O14326   3.454   7.749   2.582
 4695WAT     H114327   3.500   7.662   2.565
 4695WAT     H214328   3.395   7.741   2.662
 4696WAT      O14329   2.594   6.025   4.959
 4696WAT     H114330   2.692   6.042   4.959
 4696WAT     H214331   2.558   6.040   4.867
 4697WAT      O14332   9.313   6.380   5.624
 4697WAT     H114333   9.306   6.453   5.692
 4697WAT     H214334   9.302   6.291   5.670
 4698WAT      O14335   8.294   4.861   7.911
 4698WAT     H114336   8.289   4.949   7.959
 4698WAT     H214337   8.209   4.811   7.925
 4699WAT      O14338   3.082   5.784   2.856
 4699WAT     H114339   3.005   5.849   2.857
 4699WAT     H214340   3.055   5.700   2.903
 4700WAT      O14341   4.179   6.713   0.177
 4700WAT     H114342   4.080   6.704   0.170
 4700WAT     H214343   4.221   6.687   0.090
 4701WAT      O14344   1.112   5.747   6.087
 4701WAT     H114345   1.191   5.685   6.094
 4701WAT     H214346   1.089   5.782   6.178
 4702WAT      O14347   8.663   5.132   4.605
 4702WAT     H114348   8.683   5.140   4.508
 4702WAT     H214349   8.711   5.054   4.644
 4703WAT      O14350   0.350   7.846   2.551
 4703WAT     H114351   0.369   7.854   2.648
 4703WAT     H214352   0.313   7.756   2.531
 4704WAT      O14353   3.413   8.857   2.854
 4704WAT     H114354   3.436   8.932   2.916
 4704WAT     H214355   3.403   8.773   2.907
 4705WAT      O14356   4.040   7.835   8.934
 4705WAT     H114357   4.062   7.906   9.000
 4705WAT     H214358   4.050   7.745   8.976
 4706WAT      O14359   8.431   9.351   5.614
 4706WAT     H114360   8.378   9.289   5.672
 4706WAT     H214361   8.518   9.308   5.591
 4707WAT      O14362   3.048   2.901   2.672
 4707WAT     H114363   2.957   2.883   2.711
 4707WAT     H214364   3.063   2.841   2.594
 4708WAT      O14365   6.246   5.491   6.045
 4708WAT     H114366   6.239   5.573   6.101
 4708WAT     H214367   6.265   5.412   6.103
 4709WAT      O14368   8.586   7.694   2.625
 4709WAT     H114369   8.532   7.732   2.700
 4709WAT     H214370   8.604   7.597   2.642
 4710WAT      O14371   6.068   5.406   5.840
 4710WAT     H114372   6.132   5.455   5.900
 4710WAT     H214373   6.024   5.333   5.891
 4711WAT      O14374   0.706   4.069   0.425
 4711WAT     H114375   0.768   3.992   0.410
 4711WAT     H214376   0.612   4.034   0.433
 4712WAT      O14377   3.429   8.446   6.248
 4712WAT     H114378   3.454   8.353   6.224
 4712WAT     H214379   3.486   8.511   6.197
 4713WAT      O14380   8.649   0.379   3.623
 4713WAT     H114381   8.659   0.285   3.590
 4713WAT     H214382   8.663   0.442   3.548
 4714WAT      O14383   5.047   6.613   2.264
 4714WAT     H114384   5.060   6.576   2.172
 4714WAT     H214385   5.021   6.539   2.326
 4715WAT      O14386   6.801   2.913   6.219
 4715WAT     H114387   6.707   2.925   6.188
 4715WAT     H214388   6.855   2.869   6.146
 4716WAT      O14389   3.790   1.040   6.378
 4716WAT     H114390   3.827   1.125   6.417
 4716WAT     H214391   3.749   0.985   6.450
 4717WAT      O14392   6.813   3.695   6.797
 4717WAT     H114393   6.776   3.752   6.870
 4717WAT     H214394   6.815   3.748   6.712
 4718WAT      O14395   7.581   3.822   9.727
 4718WAT     H114396   7.520   3.832   9.806
 4718WAT     H214397   7.655   3.888   9.733
 4719WAT      O14398   0.273   6.444   7.146
 4719WAT     H114399   0.296   6.347   7.147
 4719WAT     H214400   0.289   6.483   7.237
 4720WAT      O14401   4.142   2.380   7.418
 4720WAT     H114402   4.094   2.343   7.498
 4720WAT     H214403   4.106   2.338   7.335
 4721WAT      O14404   6.411   8.245   4.571
 4721WAT     H114405   6.376   8.262   4.663
 4721WAT     H214406   6.336   8.218   4.511
 4722WAT      O14407   1.345   1.548   5.853
 4722WAT     H114408   1.379   1.560   5.946
 4722WAT     H214409   1.410   1.494   5.800
 4723WAT      O14410   8.161   3.617   3.037
 4723WAT     H114411   8.181   3.678   2.960
 4723WAT     H214412   8.068   3.634   3.069
 4724WAT      O14413   5.035   1.060   6.696
 4724WAT     H114414   5.023   0.972   6.649
 4724WAT     H214415   5.017   1.135   6.632
 4725WAT      O14416   0.231   6.634   0.602
 4725WAT     H114417   0.131   6.622   0.604
 4725WAT     H214418   0.273   6.552   0.564
 4726WAT      O14419   3.080   8.813   1.644
 4726WAT     H114420   3.104   8.878   1.572
 4726WAT     H214421   2.980   8.809   1.654
 4727WAT      O14422   4.530   4.113   1.513
 4727WAT     H114423   4.541   4.014   1.501
 4727WAT     H214424   4.458   4.130   1.580
 4728WAT      O14425   6.060   7.588   4.589
 4728WAT     H114426   6.023   7.631   4.507
 4728WAT     H214427   6.122   7.651   4.635
 4729WAT      O14428   0.086   2.696   2.172
 4729WAT     H114429   0.076   2.784   2.127
 4729WAT     H214430   0.037   2.697   2.259
 4730WAT      O14431   6.117   9.393   7.023
 4730WAT     H114432   6.170   9.311   7.041
 4730WAT     H214433   6.143   9.465   7.088
 4731WAT      O14434   4.303   7.991   6.944
 4731WAT     H114435   4.292   7.892   6.935
 4731WAT     H214436   4.223   8.037   6.905
 4732WAT      O14437   3.572   0.892   2.534
 4732WAT     H114438   3.617   0.969   2.578
 4732WAT     H214439   3.479   0.883   2.570
 4733WAT      O14440   4.609   7.701   8.727
 4733WAT     H114441   4.620   7.724   8.823
 4733WAT     H214442   4.520   7.658   8.713
 4734WAT      O14443   3.183   4.876   8.913
 4734WAT     H114444   3.093   4.832   8.913
 4734WAT     H214445   3.184   4.950   8.980
 4735WAT      O14446   8.105   6.449   2.398
 4735WAT     H114447   8.025   6.401   2.361
 4735WAT     H214448   8.105   6.440   2.498
 4736WAT      O14449   3.006   2.889   1.088
 4736WAT     H114450   2.934   2.932   1.032
 4736WAT     H214451   3.087   2.947   1.087
 4737WAT      O14452   8.320   9.065   2.666
 4737WAT     H114453   8.371   9.151   2.675
 4737WAT     H214454   8.259   9.072   2.587
 4738WAT      O14455   7.646   7.613   0.135
 4738WAT     H114456   7.555   7.654   0.142
 4738WAT     H214457   7.716   7.682   0.154
 4739WAT      O14458   4.911   1.683   3.629
 4739WAT     H114459   4.838   1.703   3.694
 4739WAT     H214460   4.925   1.763   3.570
 4740WAT      O14461   5.686   1.873   2.915
 4740WAT     H114462   5.631   1.939   2.965
 4740WAT     H214463   5.698   1.791   2.971
 4741WAT      O14464   6.533   6.056   4.299
 4741WAT     H114465   6.461   5.994   4.329
 4741WAT     H214466   6.601   6.004   4.247
 4742WAT      O14467   2.342   7.433   3.961
 4742WAT     H114468   2.296   7.368   4.021
 4742WAT     H214469   2.433   7.454   3.998
 4743WAT      O14470   9.100   4.979   5.171
 4743WAT     H114471   9.181   5.036   5.156
 4743WAT     H214472   9.034   5.030   5.226
 4744WAT      O14473   0.774   6.387   5.306
 4744WAT     H114474   0.722   6.428   5.381
 4744WAT     H214475   0.720   6.314   5.264
 4745WAT      O14476   2.888   3.430   6.261
 4745WAT     H114477   2.962   3.376   6.222
 4745WAT     H214478   2.834   3.471   6.187
 4746WAT      O14479   2.016   6.488   3.684
 4746WAT     H114480   1.965   6.550   3.625
 4746WAT     H214481   2.103   6.464   3.641
 4747WAT      O14482   3.503   9.530   7.080
 4747WAT     H114483   3.458   9.464   7.139
 4747WAT     H214484   3.483   9.508   6.984
 4748WAT      O14485   1.578   2.713   8.856
 4748WAT     H114486   1.513   2.696   8.931
 4748WAT     H214487   1.573   2.809   8.829
 4749WAT      O14488   4.380   7.492   6.744
 4749WAT     H114489   4.350   7.442   6.663
 4749WAT     H214490   4.469   7.457   6.773
 4750WAT      O14491   1.548   1.440   3.107
 4750WAT     H114492   1.488   1.396   3.040
 4750WAT     H214493   1.502   1.521   3.145
 4751WAT      O14494   8.841   3.290   5.066
 4751WAT     H114495   8.843   3.247   4.976
 4751WAT     H214496   8.745   3.299   5.096
 4752WAT      O14497   3.448   8.252   5.675
 4752WAT     H114498   3.478   8.206   5.759
 4752WAT     H214499   3.426   8.183   5.606
 4753WAT      O14500   2.859   4.959   2.965
 4753WAT     H114501   2.905   4.975   2.878
 4753WAT     H214502   2.778   4.902   2.950
 4754WAT      O14503   4.792   5.727   7.781
 4754WAT     H114504   4.804   5.703   7.878
 4754WAT     H214505   4.694   5.737   7.762
 4755WAT      O14506   1.782   0.304   4.016
 4755WAT     H114507   1.779   0.340   4.110
 4755WAT     H214508   1.709   0.346   3.962
 4756WAT      O14509   0.472   4.261   1.492
 4756WAT     H114510   0.435   4.199   1.422
 4756WAT     H214511   0.402   4.279   1.561
 4757WAT      O14512   8.189   4.443   4.454
 4757WAT     H114513   8.186   4.537   4.418
 4757WAT     H214514   8.211   4.380   4.380
 4758WAT      O14515   5.343   5.131   6.615
 4758WAT     H114516   5.284   5.057   6.649
 4758WAT     H214517   5.295   5.180   6.542
 4759WAT      O14518   9.363   9.081   3.526
 4759WAT     H114519   9.278   9.095   3.474
 4759WAT     H214520   9.424   9.160   3.511
 4760WAT      O14521   1.765   9.744   4.055
 4760WAT     H114522   1.741   9.649   4.077
 4760WAT     H214523   1.692   9.785   4.001
 4761WAT      O14524   0.575   1.365   8.597
 4761WAT     H114525   0.669   1.379   8.566
 4761WAT     H214526   0.573   1.363   8.697
 4762WAT      O14527   0.589   0.394   4.418
 4762WAT     H114528   0.671   0.447   4.395
 4762WAT     H214529   0.616   0.304   4.452
 4763WAT      O14530   0.115   1.791   1.947
 4763WAT     H114531   0.184   1.862   1.958
 4763WAT     H214532   0.109   1.765   1.851
 4764WAT      O14533   1.881   0.863   6.254
 4764WAT     H114534   1.890   0.789   6.320
 4764WAT     H214535   1.963   0.867   6.197
 4765WAT      O14536   6.043   0.547   3.346
 4765WAT     H114537   6.100   0.624   3.318
 4765WAT     H214538   6.097   0.463   3.343
 4766WAT      O14539   9.041   4.670   1.549
 4766WAT     H114540   9.102   4.709   1.618
 4766WAT     H214541   9.072   4.697   1.458
 4767WAT      O14542   6.008   2.379   7.132
 4767WAT     H114543   6.095   2.419   7.162
 4767WAT     H214544   5.993   2.399   7.036
 4768WAT      O14545   2.266   7.046   8.952
 4768WAT     H114546   2.360   7.015   8.952
 4768WAT     H214547   2.231   7.048   9.046
 4769WAT      O14548   8.315   7.340   1.543
 4769WAT     H114549   8.307   7.439   1.556
 4769WAT     H214550   8.274   7.292   1.621
 4770WAT      O14551   1.452   1.579   6.900
 4770WAT     H114552   1.380   1.565   6.832
 4770WAT     H214553   1.441   1.513   6.974
 4771WAT      O14554   6.827   7.036   2.544
 4771WAT     H114555   6.815   7.048   2.642
 4771WAT     H214556   6.752   6.981   2.507
 4772WAT      O14557   8.745   3.260   7.070
 4772WAT     H114558   8.763   3.268   7.168
 4772WAT     H214559   8.647   3.274   7.054
 4773WAT      O14560   8.572   4.285   5.970
 4773WAT     H114561   8.588   4.343   5.890
 4773WAT     H214562   8.474   4.266   5.979
 4774WAT      O14563   1.364   1.387   2.913
 4774WAT     H114564   1.376   1.450   2.837
 4774WAT     H214565   1.271   1.393   2.948
 4775WAT      O14566   7.579   6.500   5.020
 4775WAT     H114567   7.659   6.544   4.978
 4775WAT     H214568   7.567   6.409   4.982
 4776WAT      O14569   0.507   4.208   0.688
 4776WAT     H114570   0.541   4.127   0.736
 4776WAT     H214571   0.412   4.226   0.715
 4777WAT      O14572   6.918   2.197   8.897
 4777WAT     H114573   6.987   2.195   8.825
 4777WAT     H214574   6.828   2.214   8.856
 4778WAT      O14575   6.276   7.178   3.446
 4778WAT     H114576   6.295   7.169   3.544
 4778WAT     H214577   6.230   7.095   3.414
 4779WAT      O14578   7.281   0.021   4.251
 4779WAT     H114579   7.199  -0.000   4.199
 4779WAT     H214580   7.306   0.117   4.237
 4780WAT      O14581   4.527   3.598   4.598
 4780WAT     H114582   4.475   3.652   4.532
 4780WAT     H214583   4.595   3.656   4.643
 4781WAT      O14584   9.313   4.876   8.359
 4781WAT     H114585   9.231   4.933   8.370
 4781WAT     H214586   9.336   4.870   8.262
 4782WAT      O14587   2.140   5.541   4.753
 4782WAT     H114588   2.043   5.532   4.775
 4782WAT     H214589   2.195   5.529   4.836
 4783WAT      O14590   8.269   8.433   1.236
 4783WAT     H114591   8.234   8.353   1.186
 4783WAT     H214592   8.240   8.517   1.189
 4784WAT      O14593   3.887   3.320   9.009
 4784WAT     H114594   3.840   3.360   8.930
 4784WAT     H214595   3.924   3.394   9.066
 4785WAT      O14596   6.546   9.451   4.672
 4785WAT     H114597   6.561   9.423   4.767
 4785WAT     H214598   6.455   9.421   4.643
 4786WAT      O14599   5.963   4.817   2.320
 4786WAT     H114600   5.872   4.817   2.279
 4786WAT     H214601   6.019   4.888   2.278
 4787WAT      O14602   9.716   7.597   0.161
 4787WAT     H114603   9.628   7.582   0.206
 4787WAT     H214604   9.743   7.513   0.114
 4788WAT      O14605   8.057   3.692   0.954
 4788WAT     H114606   7.972   3.640   0.959
 4788WAT     H214607   8.043   3.773   0.898
 4789WAT      O14608   8.468   9.588   7.407
 4789WAT     H114609   8.426   9.641   7.334
 4789WAT     H214610   8.542   9.533   7.370
 4790WAT      O14611   1.121   3.348   3.096
 4790WAT     H114612   1.080   3.338   3.187
 4790WAT     H214613   1.150   3.443   3.083
 4791WAT      O14614   2.610   7.454   1.143
 4791WAT     H114615   2.531   7.492   1.192
 4791WAT     H214616   2.688   7.517   1.153
 4792WAT      O14617   8.392   5.896   6.579
 4792WAT     H114618   8.485   5.860   6.570
 4792WAT     H214619   8.362   5.932   6.491
 4793WAT      O14620   5.902   4.619   2.981
 4793WAT     H114621   5.828   4.686   2.994
 4793WAT     H214622   5.870   4.529   3.011
 4794WAT      O14623   6.073   3.845   9.154
 4794WAT     H114624   6.099   3.922   9.212
 4794WAT     H214625   6.002   3.791   9.199
 4795WAT      O14626   8.308   9.049   4.704
 4795WAT     H114627   8.347   8.992   4.776
 4795WAT     H214628   8.377   9.112   4.669
 4796WAT      O14629   1.875   6.773   8.030
 4796WAT     H114630   1.970   6.770   7.999
 4796WAT     H214631   1.825   6.841   7.977
 4797WAT      O14632   4.135   5.729   9.684
 4797WAT     H114633   4.222   5.696   9.721
 4797WAT     H214634   4.143   5.740   9.585
 4798WAT      O14635   2.702   2.142   4.257
 4798WAT     H114636   2.651   2.139   4.344
 4798WAT     H214637   2.644   2.106   4.184
 4799WAT      O14638   1.106   8.553   2.836
 4799WAT     H114639   1.072   8.645   2.818
 4799WAT     H214640   1.105   8.500   2.751
 4800WAT      O14641   0.549   3.058   3.023
 4800WAT     H114642   0.588   3.034   2.934
 4800WAT     H214643   0.620   3.049   3.093
 4801WAT      O14644   5.823   4.534   1.747
 4801WAT     H114645   5.918   4.539   1.777
 4801WAT     H214646   5.813   4.579   1.659
 4802WAT      O14647   5.299   9.702   5.239
 4802WAT     H114648   5.220   9.748   5.199
 4802WAT     H214649   5.273   9.609   5.266
 4803WAT      O14650   7.022   8.019   6.183
 4803WAT     H114651   6.947   8.041   6.246
 4803WAT     H214652   7.068   8.104   6.154
 4804WAT      O14653   3.358   0.151   3.864
 4804WAT     H114654   3.345   0.149   3.963
 4804WAT     H214655   3.448   0.190   3.843
 4805WAT      O14656   0.267   3.924   0.161
 4805WAT     H114657   0.252   3.826   0.151
 4805WAT     H214658   0.181   3.968   0.187
 4806WAT      O14659   2.501   1.091   1.727
 4806WAT     H114660   2.490   1.183   1.690
 4806WAT     H214661   2.495   1.024   1.652
 4807WAT      O14662   7.060   1.159   7.010
 4807WAT     H114663   7.050   1.241   6.953
 4807WAT     H214664   7.127   1.097   6.969
 4808WAT      O14665   8.150   1.237   8.193
 4808WAT     H114666   8.082   1.213   8.123
 4808WAT     H214667   8.112   1.219   8.283
 4809WAT      O14668   4.472   9.377   8.100
 4809WAT     H114669   4.389   9.427   8.076
 4809WAT     H214670   4.549   9.410   8.044
 4810WAT      O14671   8.467   4.741   5.375
 4810WAT     H114672   8.563   4.717   5.384
 4810WAT     H214673   8.416   4.664   5.337
 4811WAT      O14674   0.904   1.511   1.512
 4811WAT     H114675   0.825   1.556   1.470
 4811WAT     H214676   0.941   1.570   1.585
 4812WAT      O14677   0.687   2.549   8.883
 4812WAT     H114678   0.708   2.580   8.791
 4812WAT     H214679   0.737   2.605   8.949
 4813WAT      O14680   3.145   7.688   7.266
 4813WAT     H114681   3.204   7.608   7.255
 4813WAT     H214682   3.160   7.729   7.355
 4814WAT      O14683   9.452   0.915   6.298
 4814WAT     H114684   9.483   0.939   6.390
 4814WAT     H214685   9.462   0.817   6.285
 4815WAT      O14686   7.195   4.641   8.792
 4815WAT     H114687   7.281   4.611   8.750
 4815WAT     H214688   7.215   4.695   8.874
 4816WAT      O14689   7.678   2.063   3.258
 4816WAT     H114690   7.741   2.134   3.225
 4816WAT     H214691   7.724   1.974   3.257
 4817WAT      O14692   4.585   0.023   4.212
 4817WAT     H114693   4.487   0.040   4.213
 4817WAT     H214694   4.632   0.094   4.264
 4818WAT      O14695   7.318   1.958   6.179
 4818WAT     H114696   7.324   2.055   6.156
 4818WAT     H214697   7.286   1.906   6.100
 4819WAT      O14698   3.569   8.575   4.480
 4819WAT     H114699   3.636   8.631   4.528
 4819WAT     H214700   3.605   8.482   4.469
 4820WAT      O14701   3.317   2.806   7.756
 4820WAT     H114702   3.229   2.835   7.793
 4820WAT     H214703   3.321   2.706   7.754
 4821WAT      O14704   3.072   3.019   6.588
 4821WAT     H114705   3.015   2.973   6.520
 4821WAT     H214706   3.168   3.004   6.566
 4822WAT      O14707   6.407   5.002   1.101
 4822WAT     H114708   6.332   4.984   1.038
 4822WAT     H214709   6.439   5.096   1.089
 4823WAT      O14710   6.406   7.908   4.260
 4823WAT     H114711   6.496   7.870   4.284
 4823WAT     H214712   6.340   7.884   4.331
 4824WAT      O14713   9.570   1.722   9.615
 4824WAT     H114714   9.609   1.649   9.560
 4824WAT     H214715   9.635   1.748   9.687
 4825WAT      O14716   6.227   2.328   0.379
 4825WAT     H114717   6.270   2.343   0.290
 4825WAT     H214718   6.286   2.364   0.451
 4826WAT      O14719   4.730   9.635   2.744
 4826WAT     H114720   4.631   9.617   2.742
 4826WAT     H214721   4.779   9.550   2.726
 4827WAT      O14722   3.852   1.352   9.775
 4827WAT     H114723   3.774   1.408   9.804
 4827WAT     H214724   3.936   1.391   9.814
 4828WAT      O14725   8.195   3.591   0.400
 4828WAT     H114726   8.166   3.541   0.481
 4828WAT     H214727   8.153   3.682   0.399
 4829WAT      O14728   3.728   6.832   9.478
 4829WAT     H114729   3.740   6.810   9.575
 4829WAT     H214730   3.765   6.757   9.423
 4830WAT      O14731   0.769   5.701   9.616
 4830WAT     H114732   0.706   5.625   9.631
 4830WAT     H214733   0.799   5.738   9.704
 4831WAT      O14734   5.688   1.598   4.865
 4831WAT     H114735   5.780   1.562   4.874
 4831WAT     H214736   5.689   1.677   4.804
 4832WAT      O14737   0.763   4.356   3.844
 4832WAT     H114738   0.851   4.333   3.802
 4832WAT     H214739   0.777   4.373   3.941
 4833WAT      O14740   2.248   7.171   7.764
 4833WAT     H114741   2.245   7.268   7.739
 4833WAT     H214742   2.156   7.141   7.790
 4834WAT      O14743   1.556   9.598   5.751
 4834WAT     H114744   1.652   9.578   5.770
 4834WAT     H214745   1.538   9.585   5.653
 4835WAT      O14746   6.915   4.590   4.214
 4835WAT     H114747   6.892   4.508   4.161
 4835WAT     H214748   6.913   4.670   4.154
 4836WAT      O14749   9.580   4.303   7.489
 4836WAT     H114750   9.591   4.204   7.482
 4836WAT     H214751   9.512   4.324   7.560
 4837WAT      O14752   1.807   9.039   6.740
 4837WAT     H114753   1.781   8.957   6.689
 4837WAT     H214754   1.725   9.080   6.780
 4838WAT      O14755   0.114   1.150   8.943
 4838WAT     H114756   0.206   1.110   8.944
 4838WAT     H214757   0.047   1.081   8.971
 4839WAT      O14758   4.921   5.831   2.281
 4839WAT     H114759   4.845   5.772   2.310
 4839WAT     H214760   4.893   5.885   2.202
 4840WAT      O14761   4.148   5.070   1.504
 4840WAT     H114762   4.126   5.167   1.508
 4840WAT     H214763   4.093   5.021   1.572
 4841WAT      O14764   7.785   7.001   7.731
 4841WAT     H114765   7.781   6.902   7.740
 4841WAT     H214766   7.744   7.028   7.643
 4842WAT      O14767   8.990   1.558   2.607
 4842WAT     H114768   9.044   1.619   2.665
 4842WAT     H214769   9.030   1.554   2.516
 4843WAT      O14770   5.499   5.736   7.360
 4843WAT     H114771   5.402   5.742   7.384
 4843WAT     H214772   5.555   5.775   7.433
 4844WAT      O14773   0.774   2.587   6.289
 4844WAT     H114774   0.777   2.537   6.203
 4844WAT     H214775   0.740   2.680   6.273
 4845WAT      O14776   3.959   7.089   5.391
 4845WAT     H114777   4.021   7.109   5.315
 4845WAT     H214778   3.976   6.997   5.424
 4846WAT      O14779   4.975   4.280   9.432
 4846WAT     H114780   4.998   4.184   9.448
 4846WAT     H214781   5.029   4.338   9.494
 4847WAT      O14782   1.380   4.521   4.734
 4847WAT     H114783   1.340   4.462   4.663
 4847WAT     H214784   1.465   4.561   4.700
 4848WAT      O14785   5.476   5.626   8.572
 4848WAT     H114786   5.458   5.544   8.518
 4848WAT     H214787   5.395   5.685   8.569
 4849WAT      O14788   5.282   6.857   7.591
 4849WAT     H114789   5.260   6.785   7.525
 4849WAT     H214790   5.204   6.872   7.651
 4850WAT      O14791   6.852   3.511   4.331
 4850WAT     H114792   6.774   3.479   4.278
 4850WAT     H214793   6.917   3.435   4.344
 4851WAT      O14794   2.704   1.554   3.323
 4851WAT     H114795   2.618   1.532   3.369
 4851WAT     H214796   2.727   1.650   3.338
 4852WAT      O14797   2.305   0.753   5.647
 4852WAT     H114798   2.261   0.663   5.648
 4852WAT     H214799   2.399   0.743   5.614
 4853WAT      O14800   7.853   8.519   6.603
 4853WAT     H114801   7.865   8.533   6.701
 4853WAT     H214802   7.921   8.572   6.553
 4854WAT      O14803   7.015   9.401   4.766
 4854WAT     H114804   7.048   9.477   4.822
 4854WAT     H214805   6.930   9.428   4.720
 4855WAT      O14806   5.261   0.624   4.297
 4855WAT     H114807   5.300   0.651   4.385
 4855WAT     H214808   5.172   0.668   4.284
 4856WAT      O14809   2.805   4.626   0.369
 4856WAT     H114810   2.892   4.667   0.398
 4856WAT     H214811   2.730   4.691   0.386
 4857WAT      O14812   7.713   7.697   5.817
 4857WAT     H114813   7.771   7.693   5.736
 4857WAT     H214814   7.675   7.790   5.826
 4858WAT      O14815   7.289   4.958   2.144
 4858WAT     H114816   7.212   4.894   2.144
 4858WAT     H214817   7.359   4.925   2.080
 4859WAT      O14818   5.812   1.016   5.407
 4859WAT     H114819   5.861   1.103   5.395
 4859WAT     H214820   5.770   0.989   5.321
 4860WAT      O14821   2.789   3.808   9.869
 4860WAT     H114822   2.718   3.878   9.871
 4860WAT     H214823   2.823   3.798   9.775
 4861WAT      O14824   7.490   8.373   8.729
 4861WAT     H114825   7.394   8.397   8.720
 4861WAT     H214826   7.501   8.305   8.802
 4862WAT      O14827   0.432   6.278   5.984
 4862WAT     H114828   0.413   6.244   5.892
 4862WAT     H214829   0.445   6.200   6.046
 4863WAT      O14830   6.193   4.369   2.932
 4863WAT     H114831   6.222   4.362   2.837
 4863WAT     H214832   6.111   4.315   2.946
 4864WAT      O14833   1.508   7.023   2.711
 4864WAT     H114834   1.438   7.089   2.736
 4864WAT     H214835   1.465   6.941   2.674
 4865WAT      O14836   2.017   6.349   8.179
 4865WAT     H114837   1.986   6.254   8.177
 4865WAT     H214838   1.943   6.410   8.150
 4866WAT      O14839   1.125   1.829   6.851
 4866WAT     H114840   1.031   1.794   6.858
 4866WAT     H214841   1.172   1.818   6.938
 4867WAT      O14842   1.813   9.476   5.825
 4867WAT     H114843   1.816   9.474   5.725
 4867WAT     H214844   1.889   9.422   5.862
 4868WAT      O14845   7.561   2.088   7.734
 4868WAT     H114846   7.507   2.158   7.688
 4868WAT     H214847   7.503   2.037   7.798
 4869WAT      O14848   6.481   4.931   1.400
 4869WAT     H114849   6.421   4.851   1.410
 4869WAT     H214850   6.474   4.966   1.307
 4870WAT      O14851   2.023   4.445   6.230
 4870WAT     H114852   2.042   4.534   6.188
 4870WAT     H214853   2.066   4.372   6.176
 4871WAT      O14854   0.065   5.293   2.524
 4871WAT     H114855   0.112   5.313   2.438
 4871WAT     H214856   0.034   5.378   2.566
 4872WAT      O14857   7.010   8.049   1.864
 4872WAT     H114858   6.993   8.103   1.947
 4872WAT     H214859   7.022   8.110   1.786
 4873WAT      O14860   7.476   5.796   5.057
 4873WAT     H114861   7.488   5.772   5.154
 4873WAT     H214862   7.417   5.877   5.050
 4874WAT      O14863   9.524   3.415   7.478
 4874WAT     H114864   9.534   3.356   7.398
 4874WAT     H214865   9.499   3.507   7.449
 4875WAT      O14866   4.676   8.270   7.657
 4875WAT     H114867   4.718   8.311   7.739
 4875WAT     H214868   4.636   8.343   7.601
 4876WAT      O14869   4.094   1.582   1.745
 4876WAT     H114870   4.076   1.484   1.742
 4876WAT     H214871   4.160   1.602   1.817
 4877WAT      O14872   3.466   4.002   4.494
 4877WAT     H114873   3.376   3.966   4.469
 4877WAT     H214874   3.462   4.101   4.498
 4878WAT      O14875   6.995   6.901   8.380
 4878WAT     H114876   6.989   6.911   8.480
 4878WAT     H214877   7.016   6.806   8.358
 4879WAT      O14878   8.472   8.773   0.010
 4879WAT     H114879   8.535   8.754   0.085
 4879WAT     H214880   8.519   8.759  -0.077
 4880WAT      O14881   9.336   5.130   0.350
 4880WAT     H114882   9.421   5.095   0.308
 4880WAT     H214883   9.359   5.187   0.429
 4881WAT      O14884   0.079   9.647   0.601
 4881WAT     H114885   0.092   9.570   0.664
 4881WAT     H214886   0.129   9.726   0.635
 4882WAT      O14887   1.238   7.557   2.423
 4882WAT     H114888   1.222   7.458   2.422
 4882WAT     H214889   1.152   7.605   2.406
 4883WAT      O14890   2.576   1.822   5.189
 4883WAT     H114891   2.644   1.810   5.261
 4883WAT     H214892   2.493   1.771   5.213
 4884WAT      O14893   3.864   7.875   1.129
 4884WAT     H114894   3.827   7.856   1.038
 4884WAT     H214895   3.794   7.858   1.198
 4885WAT      O14896   5.879   3.233   0.591
 4885WAT     H114897   5.795   3.179   0.586
 4885WAT     H214898   5.920   3.222   0.681
 4886WAT      O14899   9.724   9.079   0.396
 4886WAT     H114900   9.673   9.014   0.452
 4886WAT     H214901   9.727   9.047   0.302
 4887WAT      O14902   8.304   6.479   3.419
 4887WAT     H114903   8.222   6.452   3.469
 4887WAT     H214904   8.305   6.434   3.330
 4888WAT      O14905   8.996   1.953   8.686
 4888WAT     H114906   8.979   1.879   8.621
 4888WAT     H214907   9.027   1.915   8.773
 4889WAT      O14908   7.048   5.208   1.363
 4889WAT     H114909   7.043   5.238   1.459
 4889WAT     H214910   6.960   5.169   1.335
 4890WAT      O14911   8.710   4.072   7.672
 4890WAT     H114912   8.785   4.099   7.613
 4890WAT     H214913   8.746   4.025   7.753
 4891WAT      O14914   9.839   0.726   6.527
 4891WAT     H114915   9.803   0.666   6.455
 4891WAT     H214916   9.764   0.776   6.570
 4892WAT      O14917   9.877   4.809   0.260
 4892WAT     H114918   9.873   4.735   0.193
 4892WAT     H214919   9.964   4.858   0.251
 4893WAT      O14920   2.474   2.120   8.549
 4893WAT     H114921   2.480   2.189   8.621
 4893WAT     H214922   2.556   2.125   8.491
 4894WAT      O14923   9.439   8.116   2.888
 4894WAT     H114924   9.352   8.165   2.881
 4894WAT     H214925   9.451   8.059   2.807
 4895WAT      O14926   9.018   4.049   6.384
 4895WAT     H114927   8.990   4.143   6.404
 4895WAT     H214928   8.945   4.002   6.334
 4896WAT      O14929   8.934   1.850   3.220
 4896WAT     H114930   8.891   1.799   3.294
 4896WAT     H214931   8.983   1.787   3.159
 4897WAT      O14932   5.603   3.944   4.978
 4897WAT     H114933   5.598   3.906   5.071
 4897WAT     H214934   5.510   3.955   4.942
 4898WAT      O14935   8.992   7.675   7.436
 4898WAT     H114936   9.034   7.753   7.389
 4898WAT     H214937   8.979   7.600   7.371
 4899WAT      O14938   9.665   1.746   2.684
 4899WAT     H114939   9.632   1.711   2.771
 4899WAT     H214940   9.762   1.723   2.673
 4900WAT      O14941   1.031   9.224   0.009
 4900WAT     H114942   0.949   9.274  -0.018
 4900WAT     H214943   1.104   9.241  -0.057
 4901WAT      O14944   0.749   2.137   0.068
 4901WAT     H114945   0.754   2.138   0.168
 4901WAT     H214946   0.693   2.059   0.038
 4902WAT      O14947   6.029   2.165   6.258
 4902WAT     H114948   6.090   2.160   6.179
 4902WAT     H214949   6.047   2.087   6.318
 4903WAT      O14950   3.053   8.017   1.675
 4903WAT     H114951   2.961   7.977   1.675
 4903WAT     H214952   3.083   8.031   1.580
 4904WAT      O14953   2.433   2.713   6.458
 4904WAT     H114954   2.455   2.761   6.542
 4904WAT     H214955   2.445   2.614   6.471
 4905WAT      O14956   3.472   2.882   8.905
 4905WAT     H114957   3.409   2.805   8.910
 4905WAT     H214958   3.491   2.904   8.810
 4906WAT      O14959   9.561   4.730   3.079
 4906WAT     H114960   9.640   4.674   3.103
 4906WAT     H214961   9.499   4.677   3.021
 4907WAT      O14962   5.375   0.310   4.027
 4907WAT     H114963   5.416   0.223   4.054
 4907WAT     H214964   5.294   0.328   4.084
 4908WAT      O14965   4.673   2.994   3.999
 4908WAT     H114966   4.682   3.058   4.075
 4908WAT     H214967   4.576   2.981   3.978
 4909WAT      O14968   5.571   0.597   9.473
 4909WAT     H114969   5.496   0.561   9.418
 4909WAT     H214970   5.607   0.680   9.430
 4910WAT      O14971   4.995   5.341   7.932
 4910WAT     H114972   5.087   5.302   7.942
 4910WAT     H214973   4.942   5.284   7.869
 4911WAT      O14974   7.261   5.820   1.310
 4911WAT     H114975   7.263   5.799   1.212
 4911WAT     H214976   7.258   5.734   1.362
 4912WAT      O14977   7.221   6.049   8.587
 4912WAT     H114978   7.143   5.996   8.621
 4912WAT     H214979   7.299   5.988   8.575
 4913WAT      O14980   7.670   7.277   8.047
 4913WAT     H114981   7.754   7.267   7.992
 4913WAT     H214982   7.609   7.343   8.003
 4914WAT      O14983   7.717   7.670   3.299
 4914WAT     H114984   7.630   7.679   3.348
 4914WAT     H214985   7.739   7.573   3.287
 4915WAT      O14986   3.658   8.673   9.672
 4915WAT     H114987   3.723   8.597   9.666
 4915WAT     H214988   3.585   8.659   9.605
 4916WAT      O14989   4.156   4.086   7.057
 4916WAT     H114990   4.183   4.044   7.144
 4916WAT     H214991   4.220   4.059   6.985
 4917WAT      O14992   8.814   5.550   5.249
 4917WAT     H114993   8.768   5.611   5.313
 4917WAT     H214994   8.909   5.579   5.238
 4918WAT      O14995   2.961   9.297   5.910
 4918WAT     H114996   2.916   9.383   5.886
 4918WAT     H214997   3.003   9.257   5.828
 4919WAT      O14998   6.001   3.181   3.107
 4919WAT     H114999   5.914   3.141   3.132
 4919WAT     H215000   6.075   3.118   3.131
 4920WAT      O15001   4.719   3.417   6.646
 4920WAT     H115002   4.709   3.516   6.641
 4920WAT     H215003   4.636   3.377   6.685
 4921WAT      O15004   2.852   5.061   3.615
 4921WAT     H115005   2.769   5.045   3.668
 4921WAT     H215006   2.905   4.977   3.608
 4922WAT      O15007   9.747   8.819   8.360
 4922WAT     H115008   9.677   8.843   8.293
 4922WAT     H215009   9.837   8.841   8.323
 4923WAT      O15010   5.638   9.733   7.377
 4923WAT     H115011   5.703   9.726   7.453
 4923WAT     H215012   5.670   9.802   7.312
 4924WAT      O15013   1.039   3.667   1.896
 4924WAT     H115014   0.967   3.689   1.962
 4924WAT     H215015   1.004   3.601   1.829
 4925WAT      O15016   1.026   1.809   8.780
 4925WAT     H115017   1.067   1.727   8.740
 4925WAT     H215018   1.091   1.886   8.771
 4926WAT      O15019   5.728   6.861   6.781
 4926WAT     H115020   5.772   6.923   6.716
 4926WAT     H215021   5.636   6.895   6.802
 4927WAT      O15022   1.992   7.346   9.512
 4927WAT     H115023   1.962   7.294   9.432
 4927WAT     H215024   1.967   7.296   9.595
 4928WAT      O15025   1.710   4.543   8.949
 4928WAT     H115026   1.786   4.517   8.890
 4928WAT     H215027   1.624   4.534   8.899
 4929WAT      O15028   5.341   2.528   3.476
 4929WAT     H115029   5.281   2.539   3.397
 4929WAT     H215030   5.286   2.503   3.556
 4930WAT      O15031   9.771   6.737   5.505
 4930WAT     H115032   9.855   6.686   5.488
 4930WAT     H215033   9.794   6.828   5.539
 4931WAT      O15034   2.047   1.013   4.858
 4931WAT     H115035   1.988   0.974   4.929
 4931WAT     H215036   2.071   0.941   4.792
 4932WAT      O15037   5.978   9.370   1.861
 4932WAT     H115038   6.071   9.367   1.897
 4932WAT     H215039   5.941   9.278   1.858
 4933WAT      O15040   2.025   2.085   3.465
 4933WAT     H115041   2.080   2.167   3.483
 4933WAT     H215042   1.945   2.084   3.525
 4934WAT      O15043   8.946   5.173   3.703
 4934WAT     H115044   9.023   5.215   3.752
 4934WAT     H215045   8.972   5.082   3.672
 4935WAT      O15046   1.748   4.742   9.840
 4935WAT     H115047   1.764   4.840   9.849
 4935WAT     H215048   1.829   4.698   9.802
 4936WAT      O15049   4.341   1.566   5.477
 4936WAT     H115050   4.289   1.561   5.561
 4936WAT     H215051   4.326   1.483   5.423
 4937WAT      O15052   0.083   0.644   3.195
 4937WAT     H115053   0.090   0.586   3.276
 4937WAT     H215054  -0.012   0.674   3.184
 4938WAT      O15055   1.699   7.270   1.423
 4938WAT     H115056   1.692   7.345   1.357
 4938WAT     H215057   1.657   7.188   1.384
 4939WAT      O15058   4.900   7.185   5.468
 4939WAT     H115059   4.866   7.107   5.521
 4939WAT     H215060   5.000   7.179   5.460
 4940WAT      O15061   5.281   1.976   2.079
 4940WAT     H115062   5.286   1.917   2.160
 4940WAT     H215063   5.365   1.966   2.025
 4941WAT      O15064   6.661   6.500   0.899
 4941WAT     H115065   6.581   6.451   0.863
 4941WAT     H215066   6.631   6.585   0.943
 4942WAT      O15067   6.244   7.994   1.065
 4942WAT     H115068   6.215   8.003   1.160
 4942WAT     H215069   6.341   7.970   1.062
 4943WAT      O15070   4.696   0.339   1.331
 4943WAT     H115071   4.596   0.339   1.333
 4943WAT     H215072   4.729   0.420   1.282
 4944WAT      O15073   1.938   9.312   0.472
 4944WAT     H115074   1.889   9.396   0.494
 4944WAT     H215075   1.882   9.255   0.412
 4945WAT      O15076   2.981   9.155   4.570
 4945WAT     H115077   2.910   9.192   4.509
 4945WAT     H215078   2.940   9.134   4.659
 4946WAT      O15079   0.845   8.897   2.410
 4946WAT     H115080   0.880   8.984   2.447
 4946WAT     H215081   0.883   8.882   2.319
 4947WAT      O15082   3.880   9.199   1.247
 4947WAT     H115083   3.871   9.143   1.164
 4947WAT     H215084   3.916   9.143   1.321
 4948WAT      O15085   8.805   3.535   9.795
 4948WAT     H115086   8.726   3.553   9.853
 4948WAT     H215087   8.857   3.619   9.782
 4949WAT      O15088   0.278   2.617   8.882
 4949WAT     H115089   0.298   2.577   8.971
 4949WAT     H215090   0.358   2.668   8.850
 4950WAT      O15091   8.786   5.961   5.987
 4950WAT     H115092   8.792   5.887   6.054
 4950WAT     H215093   8.805   5.925   5.896
 4951WAT      O15094   7.448   9.735   9.208
 4951WAT     H115095   7.370   9.682   9.241
 4951WAT     H215096   7.416   9.810   9.151
 4952WAT      O15097   3.372   2.335   0.794
 4952WAT     H115098   3.434   2.365   0.721
 4952WAT     H215099   3.357   2.411   0.858
 4953WAT      O15100   1.843   6.780   0.919
 4953WAT     H115101   1.872   6.752   0.828
 4953WAT     H215102   1.817   6.877   0.917
 4954WAT      O15103   5.106   1.627   7.330
 4954WAT     H115104   5.132   1.625   7.234
 4954WAT     H215105   5.171   1.573   7.384
 4955WAT      O15106   2.193   2.339   4.600
 4955WAT     H115107   2.114   2.280   4.580
 4955WAT     H215108   2.171   2.398   4.678
 4956WAT      O15109   8.187   5.306   5.316
 4956WAT     H115110   8.285   5.292   5.328
 4956WAT     H215111   8.161   5.396   5.351
 4957WAT      O15112   2.801   0.069   5.376
 4957WAT     H115113   2.715   0.117   5.397
 4957WAT     H215114   2.873   0.104   5.435
 4958WAT      O15115   3.416   7.824   7.382
 4958WAT     H115116   3.510   7.808   7.353
 4958WAT     H215117   3.404   7.791   7.476
 4959WAT      O15118   9.219   9.366   8.675
 4959WAT     H115119   9.229   9.324   8.765
 4959WAT     H215120   9.309   9.380   8.634
 4960WAT      O15121   7.087   1.436   7.994
 4960WAT     H115122   6.987   1.429   7.991
 4960WAT     H215123   7.120   1.405   8.083
 4961WAT      O15124   2.546   1.435   0.377
 4961WAT     H115125   2.513   1.431   0.282
 4961WAT     H215126   2.602   1.517   0.389
 4962WAT      O15127   3.489   3.782   5.940
 4962WAT     H115128   3.410   3.784   5.878
 4962WAT     H215129   3.569   3.818   5.892
 4963WAT      O15130   1.199   0.561   3.384
 4963WAT     H115131   1.143   0.636   3.419
 4963WAT     H215132   1.164   0.531   3.295
 4964WAT      O15133   6.470   3.403   1.564
 4964WAT     H115134   6.539   3.427   1.632
 4964WAT     H215135   6.398   3.472   1.565
 4965WAT      O15136   0.286   5.470   6.511
 4965WAT     H115137   0.210   5.442   6.453
 4965WAT     H215138   0.294   5.570   6.510
 4966WAT      O15139   1.745   2.194   5.475
 4966WAT     H115140   1.792   2.113   5.441
 4966WAT     H215141   1.674   2.221   5.410
 4967WAT      O15142   5.360   7.791   4.320
 4967WAT     H115143   5.391   7.882   4.293
 4967WAT     H215144   5.346   7.788   4.419
 4968WAT      O15145   8.058   9.671   9.639
 4968WAT     H115146   8.141   9.721   9.615
 4968WAT     H215147   7.997   9.667   9.559
 4969WAT      O15148   0.137   6.841   2.225
 4969WAT     H115149   0.123   6.939   2.239
 4969WAT     H215150   0.190   6.804   2.300
 4970WAT      O15151   5.647   3.131   2.533
 4970WAT     H115152   5.614   3.108   2.442
 4970WAT     H215153   5.571   3.132   2.597
 4971WAT      O15154   0.737   7.313   7.378
 4971WAT     H115155   0.799   7.324   7.301
 4971WAT     H215156   0.659   7.374   7.368
 4972WAT      O15157   6.833   7.708   4.001
 4972WAT     H115158   6.883   7.786   4.038
 4972WAT     H215159   6.783   7.663   4.076
 4973WAT      O15160   3.527   2.272   0.138
 4973WAT     H115161   3.486   2.226   0.218
 4973WAT     H215162   3.586   2.346   0.169
 4974WAT      O15163   4.105   1.322   0.429
 4974WAT     H115164   4.030   1.351   0.487
 4974WAT     H215165   4.119   1.223   0.439
 4975WAT      O15166   1.063   7.194   0.049
 4975WAT     H115167   0.970   7.203   0.015
 4975WAT     H215168   1.067   7.227   0.144
 4976WAT      O15169   6.716   9.109   5.780
 4976WAT     H115170   6.747   9.120   5.686
 4976WAT     H215171   6.770   9.166   5.841
 4977WAT      O15172   6.670   3.620   3.990
 4977WAT     H115173   6.731   3.627   3.911
 4977WAT     H215174   6.623   3.531   3.989
 4978WAT      O15175   2.326   7.788   9.599
 4978WAT     H115176   2.272   7.704   9.603
 4978WAT     H215177   2.299   7.848   9.675
 4979WAT      O15178   8.629   4.151   7.915
 4979WAT     H115179   8.701   4.202   7.867
 4979WAT     H215180   8.661   4.125   8.006
 4980WAT      O15181   3.499   8.230   4.300
 4980WAT     H115182   3.534   8.154   4.245
 4980WAT     H215183   3.402   8.243   4.280
 4981WAT      O15184   0.205   1.909   5.492
 4981WAT     H115185   0.194   1.838   5.561
 4981WAT     H215186   0.300   1.941   5.491
 4982WAT      O15187   0.171   8.705   6.784
 4982WAT     H115188   0.128   8.624   6.824
 4982WAT     H215189   0.171   8.697   6.684
 4983WAT      O15190   1.355   4.507   2.128
 4983WAT     H115191   1.351   4.472   2.034
 4983WAT     H215192   1.388   4.601   2.127
 4984WAT      O15193   3.744   0.950   9.057
 4984WAT     H115194   3.677   1.016   9.090
 4984WAT     H215195   3.703   0.892   8.987
 4985WAT      O15196   5.271   2.239   1.784
 4985WAT     H115197   5.223   2.318   1.744
 4985WAT     H215198   5.284   2.254   1.882
 4986WAT      O15199   2.975   4.451   6.176
 4986WAT     H115200   2.999   4.410   6.265
 4986WAT     H215201   2.892   4.506   6.185
 4987WAT      O15202   0.588   0.337   3.647
 4987WAT     H115203   0.539   0.417   3.611
 4987WAT     H215204   0.560   0.321   3.742
 4988WAT      O15205   3.597   0.434   8.097
 4988WAT     H115206   3.695   0.454   8.092
 4988WAT     H215207   3.547   0.518   8.120
 4989WAT      O15208   8.861   5.478   4.044
 4989WAT     H115209   8.855   5.504   3.948
 4989WAT     H215210   8.946   5.428   4.060
 4990WAT      O15211   7.429   1.692   4.539
 4990WAT     H115212   7.401   1.620   4.475
 4990WAT     H215213   7.392   1.673   4.630
 4991WAT      O15214   0.207   6.218   9.566
 4991WAT     H115215   0.203   6.167   9.652
 4991WAT     H215216   0.115   6.249   9.542
 4992WAT      O15217   8.205   1.443   0.234
 4992WAT     H115218   8.132   1.382   0.266
 4992WAT     H215219   8.200   1.529   0.284
 4993WAT      O15220   2.741   6.628   6.020
 4993WAT     H115221   2.776   6.642   6.112
 4993WAT     H215222   2.641   6.633   6.021
 4994WAT      O15223   2.280   6.060   5.587
 4994WAT     H115224   2.183   6.078   5.567
 4994WAT     H215225   2.287   5.981   5.647
 4995WAT      O15226   4.390   0.550   9.633
 4995WAT     H115227   4.437   0.638   9.637
 4995WAT     H215228   4.357   0.534   9.540
 4996WAT      O15229   7.176   8.169   5.057
 4996WAT     H115230   7.210   8.077   5.077
 4996WAT     H215231   7.183   8.187   4.959
 4997WAT      O15232   5.833   3.384   4.094
 4997WAT     H115233   5.896   3.340   4.031
 4997WAT     H215234   5.739   3.374   4.060
 4998WAT      O15235   2.457   2.059   2.316
 4998WAT     H115236   2.397   1.981   2.298
 4998WAT     H215237   2.401   2.138   2.342
 4999WAT      O15238   8.476   4.582   3.261
 4999WAT     H115239   8.444   4.492   3.292
 4999WAT     H215240   8.469   4.648   3.336
 5000WAT      O15241   4.668   0.505   0.363
 5000WAT     H115242   4.766   0.514   0.377
 5000WAT     H215243   4.631   0.439   0.429
 5001WAT      O15244   0.467   0.158   2.057
 5001WAT     H115245   0.381   0.207   2.072
 5001WAT     H215246   0.539   0.223   2.035
 5002WAT      O15247   7.080   5.077   6.685
 5002WAT     H115248   7.147   5.055   6.756
 5002WAT     H215249   7.001   5.017   6.694
 5003WAT      O15250   4.636   0.689   8.661
 5003WAT     H115251   4.631   0.621   8.734
 5003WAT     H215252   4.600   0.776   8.695
 5004WAT      O15253   6.575   9.013   1.055
 5004WAT     H115254   6.589   9.062   0.968
 5004WAT     H215255   6.628   9.059   1.127
 5005WAT      O15256   6.906   6.180   5.670
 5005WAT     H115257   6.979   6.248   5.666
 5005WAT     H215258   6.943   6.089   5.648
 5006WAT      O15259   7.222   3.440   2.471
 5006WAT     H115260   7.146   3.419   2.410
 5006WAT     H215261   7.274   3.357   2.490
 5007WAT      O15262   1.323   3.140   7.236
 5007WAT     H115263   1.284   3.076   7.169
 5007WAT     H215264   1.276   3.228   7.228
 5008WAT      O15265   2.134   8.048   6.943
 5008WAT     H115266   2.114   8.108   7.020
 5008WAT     H215267   2.233   8.043   6.929
 5009WAT      O15268   2.413   3.066   0.594
 5009WAT     H115269   2.338   3.088   0.657
 5009WAT     H215270   2.454   3.151   0.560
 5010WAT      O15271   5.231   0.656   3.033
 5010WAT     H115272   5.305   0.673   2.967
 5010WAT     H215273   5.143   0.680   2.991
 5011WAT      O15274   4.097   3.415   8.382
 5011WAT     H115275   4.086   3.479   8.306
 5011WAT     H215276   4.066   3.324   8.354
 5012WAT      O15277   1.270   0.047   9.230
 5012WAT     H115278   1.346   0.035   9.166
 5012WAT     H215279   1.275   0.138   9.271
 5013WAT      O15280   8.002   3.177   1.783
 5013WAT     H115281   8.077   3.128   1.738
 5013WAT     H215282   8.035   3.266   1.816
 5014WAT      O15283   3.039   9.633   5.828
 5014WAT     H115284   2.955   9.582   5.847
 5014WAT     H215285   3.021   9.731   5.837
 5015WAT      O15286   6.028   4.462   2.010
 5015WAT     H115287   6.108   4.453   2.070
 5015WAT     H215288   6.053   4.520   1.931
 5016WAT      O15289   8.208   7.165   6.687
 5016WAT     H115290   8.187   7.251   6.735
 5016WAT     H215291   8.274   7.113   6.740
 5017WAT      O15292   2.059   7.428   1.926
 5017WAT     H115293   2.102   7.427   1.835
 5017WAT     H215294   2.080   7.515   1.971
 5018WAT      O15295   9.342   2.991   4.726
 5018WAT     H115296   9.276   3.052   4.681
 5018WAT     H215297   9.416   3.045   4.766
 5019WAT      O15298   7.936   6.499   1.726
 5019WAT     H115299   7.948   6.401   1.738
 5019WAT     H215300   7.873   6.516   1.651
 5020WAT      O15301   9.526   5.672   4.740
 5020WAT     H115302   9.434   5.694   4.773
 5020WAT     H215303   9.522   5.589   4.683
 5021WAT      O15304   9.277   9.275   2.066
 5021WAT     H115305   9.376   9.267   2.055
 5021WAT     H215306   9.231   9.242   1.984
 5022WAT      O15307   9.431   4.737   8.088
 5022WAT     H115308   9.363   4.665   8.072
 5022WAT     H215309   9.522   4.704   8.064
 5023WAT      O15310   8.831   8.183   5.737
 5023WAT     H115311   8.876   8.200   5.825
 5023WAT     H215312   8.743   8.230   5.735
 5024WAT      O15313   1.090   1.796   7.370
 5024WAT     H115314   1.010   1.854   7.356
 5024WAT     H215315   1.160   1.847   7.419
 5025WAT      O15316   7.911   6.680   1.403
 5025WAT     H115317   7.815   6.681   1.375
 5025WAT     H215318   7.963   6.623   1.340
 5026WAT      O15319   3.745   4.131   3.964
 5026WAT     H115320   3.700   4.219   3.947
 5026WAT     H215321   3.842   4.139   3.943
 5027WAT      O15322   6.130   9.789   5.208
 5027WAT     H115323   6.081   9.762   5.290
 5027WAT     H215324   6.158   9.708   5.156
 5028WAT      O15325   1.860   6.413   2.595
 5028WAT     H115326   1.891   6.361   2.675
 5028WAT     H215327   1.782   6.470   2.620
 5029WAT      O15328   2.300   6.081   0.071
 5029WAT     H115329   2.204   6.075   0.046
 5029WAT     H215330   2.342   6.160   0.025
 5030WAT      O15331   3.171   0.341   1.847
 5030WAT     H115332   3.180   0.280   1.926
 5030WAT     H215333   3.183   0.288   1.763
 5031WAT      O15334   6.085   7.542   9.122
 5031WAT     H115335   6.021   7.615   9.096
 5031WAT     H215336   6.178   7.573   9.107
 5032WAT      O15337   3.573   9.692   2.081
 5032WAT     H115338   3.533   9.623   2.141
 5032WAT     H215339   3.501   9.754   2.050
 5033WAT      O15340   5.744   6.744   0.016
 5033WAT     H115341   5.783   6.658   0.049
 5033WAT     H215342   5.645   6.741   0.025
 5034WAT      O15343   9.650   9.495   7.788
 5034WAT     H115344   9.599   9.580   7.806
 5034WAT     H215345   9.622   9.426   7.855
 5035WAT      O15346   1.652   4.598   4.463
 5035WAT     H115347   1.617   4.646   4.544
 5035WAT     H215348   1.734   4.546   4.488
 5036WAT      O15349   5.356   7.492   5.311
 5036WAT     H115350   5.325   7.584   5.285
 5036WAT     H215351   5.287   7.425   5.283
 5037WAT      O15352   3.239   6.629   4.219
 5037WAT     H115353   3.338   6.614   4.214
 5037WAT     H215354   3.221   6.728   4.219
 5038WAT      O15355   3.581   8.608   7.935
 5038WAT     H115356   3.579   8.625   7.836
 5038WAT     H215357   3.542   8.686   7.984
 5039WAT      O15358   5.404   2.837   0.708
 5039WAT     H115359   5.458   2.769   0.759
 5039WAT     H215360   5.418   2.824   0.610
 5040WAT      O15361   2.265   4.608   2.525
 5040WAT     H115362   2.167   4.626   2.524
 5040WAT     H215363   2.308   4.652   2.446
 5041WAT      O15364   8.405   4.014   7.834
 5041WAT     H115365   8.355   4.073   7.771
 5041WAT     H215366   8.489   4.060   7.864
 5042WAT      O15367   2.265   3.322   5.150
 5042WAT     H115368   2.184   3.364   5.107
 5042WAT     H215369   2.343   3.329   5.088
 5043WAT      O15370   7.714   0.162   8.855
 5043WAT     H115371   7.795   0.203   8.897
 5043WAT     H215372   7.704   0.198   8.762
 5044WAT      O15373   5.623   2.756   1.417
 5044WAT     H115374   5.721   2.741   1.418
 5044WAT     H215375   5.601   2.832   1.355
 5045WAT      O15376   6.174   4.247   0.271
 5045WAT     H115377   6.257   4.269   0.322
 5045WAT     H215378   6.096   4.298   0.309
 5046WAT      O15379   4.953   8.429   1.403
 5046WAT     H115380   5.005   8.344   1.406
 5046WAT     H215381   4.981   8.488   1.478
 5047WAT      O15382   6.825   1.391   2.857
 5047WAT     H115383   6.848   1.461   2.924
 5047WAT     H215384   6.867   1.304   2.884
 5048WAT      O15385   0.439   0.659   2.415
 5048WAT     H115386   0.441   0.734   2.480
 5048WAT     H215387   0.351   0.611   2.422
 5049WAT      O15388   7.208   9.177   6.156
 5049WAT     H115389   7.177   9.265   6.121
 5049WAT     H215390   7.138   9.107   6.140
 5050WAT      O15391   3.890   5.361   1.944
 5050WAT     H115392   3.792   5.361   1.961
 5050WAT     H215393   3.923   5.455   1.941
 5051WAT      O15394   4.133   0.467   5.413
 5051WAT     H115395   4.112   0.373   5.385
 5051WAT     H215396   4.160   0.467   5.510
 5052WAT      O15397   2.048   8.196   3.827
 5052WAT     H115398   2.145   8.222   3.817
 5052WAT     H215399   2.041   8.097   3.836
 5053WAT      O15400   6.154   9.712   8.946
 5053WAT     H115401   6.162   9.743   9.041
 5053WAT     H215402   6.237   9.737   8.896
 5054WAT      O15403   1.695   6.129   5.923
 5054WAT     H115404   1.732   6.221   5.933
 5054WAT     H215405   1.764   6.068   5.884
 5055WAT      O15406   3.327   3.054   4.994
 5055WAT     H115407   3.307   3.028   4.899
 5055WAT     H215408   3.298   3.148   5.009
 5056WAT      O15409   7.422   8.867   0.760
 5056WAT     H115410   7.413   8.936   0.831
 5056WAT     H215411   7.490   8.897   0.692
 5057WAT      O15412   8.472   4.835   6.441
 5057WAT     H115413   8.373   4.827   6.428
 5057WAT     H215414   8.520   4.791   6.366
 5058WAT      O15415   8.585   7.678   0.924
 5058WAT     H115416   8.582   7.625   1.008
 5058WAT     H215417   8.647   7.634   0.858
 5059WAT      O15418   4.453   1.520   8.755
 5059WAT     H115419   4.488   1.574   8.831
 5059WAT     H215420   4.530   1.473   8.709
 5060WAT      O15421   2.250   0.789   2.733
 5060WAT     H115422   2.269   0.716   2.667
 5060WAT     H215423   2.291   0.875   2.701
 5061WAT      O15424   4.231   8.281   2.534
 5061WAT     H115425   4.185   8.261   2.620
 5061WAT     H215426   4.163   8.292   2.462
 5062WAT      O15427   8.765   3.341   7.823
 5062WAT     H115428   8.777   3.395   7.906
 5062WAT     H215429   8.853   3.301   7.797
 5063WAT      O15430   5.212   7.344   7.082
 5063WAT     H115431   5.215   7.256   7.034
 5063WAT     H215432   5.258   7.336   7.170
 5064WAT      O15433   4.382   4.438   6.426
 5064WAT     H115434   4.338   4.385   6.498
 5064WAT     H215435   4.380   4.387   6.340
 5065WAT      O15436   0.366   8.262   0.332
 5065WAT     H115437   0.444   8.206   0.306
 5065WAT     H215438   0.377   8.293   0.426
 5066WAT      O15439   5.915   5.610   4.031
 5066WAT     H115440   5.977   5.626   4.108
 5066WAT     H215441   5.888   5.698   3.992
 5067WAT      O15442   8.717   4.642   0.792
 5067WAT     H115443   8.799   4.596   0.759
 5067WAT     H215444   8.637   4.604   0.744
 5068WAT      O15445   8.828   7.596   5.399
 5068WAT     H115446   8.738   7.619   5.438
 5068WAT     H215447   8.824   7.507   5.355
 5069WAT      O15448   8.585   8.420   1.791
 5069WAT     H115449   8.632   8.334   1.812
 5069WAT     H215450   8.497   8.400   1.747
 5070WAT      O15451   5.357   8.907   2.004
 5070WAT     H115452   5.300   8.913   2.085
 5070WAT     H215453   5.367   8.811   1.977
 5071WAT      O15454   0.358   8.589   4.944
 5071WAT     H115455   0.415   8.529   4.889
 5071WAT     H215456   0.280   8.620   4.890
 5072WAT      O15457   9.506   9.032   8.545
 5072WAT     H115458   9.480   8.959   8.607
 5072WAT     H215459   9.458   9.022   8.458
 5073WAT      O15460   9.025   7.926   4.492
 5073WAT     H115461   8.999   7.832   4.470
 5073WAT     H215462   8.944   7.977   4.521
 5074WAT      O15463   9.711   8.403   9.142
 5074WAT     H115464   9.801   8.402   9.100
 5074WAT     H215465   9.705   8.330   9.210
 5075WAT      O15466   4.735   6.059   7.322
 5075WAT     H115467   4.668   6.077   7.250
 5075WAT     H215468   4.693   6.003   7.394
 5076WAT      O15469   4.887   7.937   6.493
 5076WAT     H115470   4.852   7.843   6.499
 5076WAT     H215471   4.931   7.950   6.404
 5077WAT      O15472   2.467   7.893   5.712
 5077WAT     H115473   2.522   7.971   5.681
 5077WAT     H215474   2.455   7.829   5.637
 5078WAT      O15475   0.902   0.564   4.042
 5078WAT     H115476   0.912   0.507   4.124
 5078WAT     H215477   0.925   0.510   3.961
 5079WAT      O15478   5.424   2.852   8.597
 5079WAT     H115479   5.512   2.853   8.644
 5079WAT     H215480   5.375   2.768   8.620
 5080WAT      O15481   2.168   6.789   5.908
 5080WAT     H115482   2.131   6.828   5.992
 5080WAT     H215483   2.196   6.862   5.846
 5081WAT      O15484   0.648   3.318   0.662
 5081WAT     H115485   0.601   3.249   0.606
 5081WAT     H215486   0.718   3.363   0.607
 5082WAT      O15487   0.923   6.038   6.250
 5082WAT     H115488   0.839   6.041   6.196
 5082WAT     H215489   0.996   5.998   6.194
 5083WAT      O15490   7.864   7.424   8.474
 5083WAT     H115491   7.902   7.516   8.487
 5083WAT     H215492   7.899   7.385   8.389
 5084WAT      O15493   9.098   0.497   0.465
 5084WAT     H115494   9.095   0.561   0.388
 5084WAT     H215495   9.162   0.531   0.534
 5085WAT      O15496   8.748   5.995   7.679
 5085WAT     H115497   8.728   6.005   7.581
 5085WAT     H215498   8.663   5.978   7.729
 5086WAT      O15499   5.470   9.245   4.854
 5086WAT     H115500   5.438   9.327   4.805
 5086WAT     H215501   5.556   9.213   4.815
 5087WAT      O15502   1.400   1.757   2.861
 5087WAT     H115503   1.488   1.798   2.887
 5087WAT     H215504   1.413   1.698   2.781
 5088WAT      O15505   6.865   9.324   7.340
 5088WAT     H115506   6.875   9.260   7.264
 5088WAT     H215507   6.848   9.273   7.424
 5089WAT      O15508   1.236   9.569   1.245
 5089WAT     H115509   1.173   9.493   1.225
 5089WAT     H215510   1.192   9.633   1.308
 5090WAT      O15511   3.877   1.807   4.034
 5090WAT     H115512   3.862   1.743   3.959
 5090WAT     H215513   3.905   1.757   4.116
 5091WAT      O15514   0.840   8.538   5.257
 5091WAT     H115515   0.845   8.492   5.346
 5091WAT     H215516   0.932   8.557   5.225
 5092WAT      O15517   2.428   5.710   3.533
 5092WAT     H115518   2.404   5.785   3.471
 5092WAT     H215519   2.383   5.724   3.621
 5093WAT      O15520   0.377   8.057   8.993
 5093WAT     H115521   0.307   8.087   9.057
 5093WAT     H215522   0.444   8.130   8.979
 5094WAT      O15523   1.564   7.007   7.872
 5094WAT     H115524   1.567   7.059   7.957
 5094WAT     H215525   1.621   6.925   7.881
 5095WAT      O15526   3.282   5.334   8.183
 5095WAT     H115527   3.240   5.424   8.192
 5095WAT     H215528   3.279   5.287   8.271
 5096WAT      O15529   2.291   6.024   8.512
 5096WAT     H115530   2.279   5.947   8.574
 5096WAT     H215531   2.215   6.088   8.522
 5097WAT      O15532   1.221   3.131   8.422
 5097WAT     H115533   1.304   3.080   8.400
 5097WAT     H215534   1.153   3.117   8.350
 5098WAT      O15535   7.883   6.281   6.656
 5098WAT     H115536   7.883   6.307   6.752
 5098WAT     H215537   7.952   6.211   6.640
 5099WAT      O15538   4.483   4.299   3.383
 5099WAT     H115539   4.491   4.387   3.431
 5099WAT     H215540   4.474   4.226   3.450
 5100WAT      O15541   9.291   5.715   1.125
 5100WAT     H115542   9.290   5.674   1.033
 5100WAT     H215543   9.346   5.798   1.124
 5101WAT      O15544   7.160   3.065   1.566
 5101WAT     H115545   7.094   3.051   1.640
 5101WAT     H215546   7.135   3.007   1.488
 5102WAT      O15547   9.012   1.786   8.479
 5102WAT     H115548   8.971   1.835   8.402
 5102WAT     H215549   9.107   1.815   8.491
 5103WAT      O15550   4.277   9.472   6.602
 5103WAT     H115551   4.258   9.413   6.524
 5103WAT     H215552   4.372   9.458   6.632
 5104WAT      O15553   7.069   0.457   1.465
 5104WAT     H115554   7.026   0.511   1.537
 5104WAT     H215555   7.139   0.398   1.505
 5105WAT      O15556   3.335   7.820   2.024
 5105WAT     H115557   3.299   7.912   2.007
 5105WAT     H215558   3.318   7.795   2.120
 5106WAT      O15559   6.562   6.704   5.840
 5106WAT     H115560   6.534   6.731   5.748
 5106WAT     H215561   6.640   6.642   5.834
 5107WAT      O15562   7.176   1.018   1.621
 5107WAT     H115563   7.190   0.978   1.530
 5107WAT     H215564   7.245   0.982   1.684
 5108WAT      O15565   2.038   7.711   2.903
 5108WAT     H115566   1.976   7.634   2.918
 5108WAT     H215567   2.037   7.736   2.806
 5109WAT      O15568   1.056   7.166   5.876
 5109WAT     H115569   1.033   7.068   5.874
 5109WAT     H215570   0.977   7.218   5.907
 5110WAT      O15571   0.972   3.787   2.635
 5110WAT     H115572   0.989   3.791   2.733
 5110WAT     H215573   1.003   3.872   2.592
 5111WAT      O15574   5.372   5.075   7.231
 5111WAT     H115575   5.418   5.103   7.315
 5111WAT     H215576   5.421   5.111   7.152
 5112WAT      O15577   8.942   7.331   7.424
 5112WAT     H115578   8.989   7.394   7.361
 5112WAT     H215579   8.956   7.237   7.393
 5113WAT      O15580   6.983   8.968   9.358
 5113WAT     H115581   7.005   8.876   9.389
 5113WAT     H215582   7.057   9.030   9.384
 5114WAT      O15583   1.011   1.331   7.662
 5114WAT     H115584   1.090   1.273   7.642
 5114WAT     H215585   1.000   1.398   7.588
 5115WAT      O15586   7.225   4.509   0.410
 5115WAT     H115587   7.177   4.584   0.363
 5115WAT     H215588   7.317   4.500   0.373
 5116WAT      O15589   7.812   1.369   7.969
 5116WAT     H115590   7.729   1.359   8.025
 5116WAT     H215591   7.867   1.286   7.975
 5117WAT      O15592   2.037   7.712   9.831
 5117WAT     H115593   2.061   7.786   9.894
 5117WAT     H215594   1.938   7.709   9.819
 5118WAT      O15595   3.058   3.747   6.836
 5118WAT     H115596   3.053   3.834   6.787
 5118WAT     H215597   3.113   3.682   6.783
 5119WAT      O15598   9.114   7.099   8.932
 5119WAT     H115599   9.194   7.128   8.983
 5119WAT     H215600   9.057   7.041   8.989
 5120WAT      O15601   1.772   4.811   4.188
 5120WAT     H115602   1.718   4.743   4.239
 5120WAT     H215603   1.852   4.767   4.149
 5121WAT      O15604   3.364   3.919   7.142
 5121WAT     H115605   3.340   3.844   7.080
 5121WAT     H215606   3.451   3.959   7.114
 5122WAT      O15607   1.335   8.457   0.005
 5122WAT     H115608   1.276   8.521   0.053
 5122WAT     H215609   1.301   8.443  -0.088
 5123WAT      O15610   3.099   8.435   8.624
 5123WAT     H115611   3.136   8.360   8.569
 5123WAT     H215612   3.015   8.469   8.581
 5124WAT      O15613   6.939   0.421   5.136
 5124WAT     H115614   6.972   0.400   5.044
 5124WAT     H215615   6.995   0.372   5.203
 5125WAT      O15616   7.839   9.508   0.179
 5125WAT     H115617   7.775   9.578   0.145
 5125WAT     H215618   7.806   9.472   0.266
 5126WAT      O15619   6.839   9.835   7.648
 5126WAT     H115620   6.866   9.739   7.645
 5126WAT     H215621   6.757   9.847   7.592
 5127WAT      O15622   4.492   2.948   0.647
 5127WAT     H115623   4.470   2.950   0.550
 5127WAT     H215624   4.499   3.042   0.682
 5128WAT      O15625   5.500   0.661   8.515
 5128WAT     H115626   5.432   0.627   8.580
 5128WAT     H215627   5.568   0.716   8.564
 5129WAT      O15628   4.200   8.378   0.872
 5129WAT     H115629   4.208   8.280   0.891
 5129WAT     H215630   4.168   8.425   0.954
 5130WAT      O15631   5.416   2.123   8.581
 5130WAT     H115632   5.361   2.206   8.592
 5130WAT     H215633   5.385   2.073   8.500
 5131WAT      O15634   1.722   7.244   3.984
 5131WAT     H115635   1.788   7.199   3.924
 5131WAT     H215636   1.725   7.343   3.971
 5132WAT      O15637   8.023   5.761   8.048
 5132WAT     H115638   7.925   5.772   8.035
 5132WAT     H215639   8.068   5.749   7.959
 5133WAT      O15640   3.055   4.518   7.441
 5133WAT     H115641   3.024   4.527   7.346
 5133WAT     H215642   3.123   4.445   7.447
 5134WAT      O15643   8.351   3.814   9.005
 5134WAT     H115644   8.372   3.840   9.099
 5134WAT     H215645   8.282   3.876   8.967
 5135WAT      O15646   0.215   3.780   7.450
 5135WAT     H115647   0.152   3.787   7.527
 5135WAT     H215648   0.187   3.705   7.391
 5136WAT      O15649   2.630   4.404   9.404
 5136WAT     H115650   2.691   4.363   9.336
 5136WAT     H215651   2.675   4.484   9.445
 5137WAT      O15652   4.401   2.632   2.695
 5137WAT     H115653   4.402   2.688   2.612
 5137WAT     H215654   4.449   2.680   2.769
 5138WAT      O15655   7.796   1.316   5.111
 5138WAT     H115656   7.819   1.240   5.172
 5138WAT     H215657   7.713   1.293   5.060
 5139WAT      O15658   4.336   5.022   7.670
 5139WAT     H115659   4.240   5.002   7.654
 5139WAT     H215660   4.351   5.041   7.767
 5140WAT      O15661   7.034   6.100   1.691
 5140WAT     H115662   6.965   6.169   1.667
 5140WAT     H215663   7.124   6.143   1.692
 5141WAT      O15664   7.065   0.830   6.413
 5141WAT     H115665   7.020   0.749   6.375
 5141WAT     H215666   7.011   0.911   6.392
 5142WAT      O15667   8.670   3.002   3.560
 5142WAT     H115668   8.742   2.991   3.491
 5142WAT     H215669   8.586   3.034   3.515
 5143WAT      O15670   7.322   1.132   6.018
 5143WAT     H115671   7.317   1.045   5.969
 5143WAT     H215672   7.242   1.188   5.994
 5144WAT      O15673   7.566   6.999   3.510
 5144WAT     H115674   7.661   7.024   3.528
 5144WAT     H215675   7.562   6.946   3.426
 5145WAT      O15676   8.007   4.587   6.507
 5145WAT     H115677   8.074   4.514   6.495
 5145WAT     H215678   7.922   4.564   6.460
 5146WAT      O15679   1.873   3.883   9.271
 5146WAT     H115680   1.953   3.824   9.259
 5146WAT     H215681   1.799   3.830   9.314
 5147WAT      O15682   5.259   5.542   9.352
 5147WAT     H115683   5.355   5.537   9.377
 5147WAT     H215684   5.211   5.460   9.383
 5148WAT      O15685   6.981   2.704   6.693
 5148WAT     H115686   6.932   2.662   6.770
 5148WAT     H215687   7.068   2.656   6.679
 5149WAT      O15688   5.481   9.686   5.981
 5149WAT     H115689   5.572   9.645   5.986
 5149WAT     H215690   5.478   9.766   6.041
 5150WAT      O15691   5.670   3.116   8.976
 5150WAT     H115692   5.727   3.146   8.899
 5150WAT     H215693   5.631   3.027   8.957
 5151WAT      O15694   9.100   9.180   7.371
 5151WAT     H115695   9.111   9.188   7.470
 5151WAT     H215696   9.009   9.142   7.351
 5152WAT      O15697   7.702   1.555   4.783
 5152WAT     H115698   7.664   1.516   4.699
 5152WAT     H215699   7.639   1.624   4.818
 5153WAT      O15700   9.537   5.726   4.325
 5153WAT     H115701   9.464   5.779   4.281
 5153WAT     H215702   9.561   5.769   4.412
 5154WAT      O15703   8.936   1.391   4.992
 5154WAT     H115704   8.907   1.461   5.057
 5154WAT     H215705   8.875   1.312   5.000
 5155WAT      O15706   0.463   0.666   3.761
 5155WAT     H115707   0.394   0.661   3.833
 5155WAT     H215708   0.554   0.647   3.800
 5156WAT      O15709   8.058   7.239   7.126
 5156WAT     H115710   8.051   7.298   7.206
 5156WAT     H215711   8.013   7.283   7.048
 5157WAT      O15712   0.422   8.220   7.626
 5157WAT     H115713   0.366   8.215   7.543
 5157WAT     H215714   0.453   8.128   7.651
 5158WAT      O15715   0.614   0.185   7.554
 5158WAT     H115716   0.666   0.107   7.518
 5158WAT     H215717   0.658   0.219   7.637
 5159WAT      O15718   8.114   6.773   7.398
 5159WAT     H115719   8.200   6.792   7.350
 5159WAT     H215720   8.048   6.732   7.334
 5160WAT      O15721   1.453   3.062   1.586
 5160WAT     H115722   1.429   3.140   1.527
 5160WAT     H215723   1.435   3.085   1.681
 5161WAT      O15724   0.732   9.747   2.533
 5161WAT     H115725   0.736   9.649   2.553
 5161WAT     H215726   0.819   9.790   2.560
 5162WAT      O15727   7.081   0.939   8.466
 5162WAT     H115728   7.153   0.940   8.397
 5162WAT     H215729   7.072   1.030   8.506
 5163WAT      O15730   8.658   6.937   8.661
 5163WAT     H115731   8.729   6.882   8.618
 5163WAT     H215732   8.697   6.987   8.738
 5164WAT      O15733   3.483   2.763   2.461
 5164WAT     H115734   3.415   2.754   2.388
 5164WAT     H215735   3.489   2.676   2.511
 5165WAT      O15736   3.724   3.110   3.910
 5165WAT     H115737   3.812   3.139   3.871
 5165WAT     H215738   3.724   3.127   4.008
 5166WAT      O15739   3.983   0.883   6.064
 5166WAT     H115740   3.939   0.921   5.982
 5166WAT     H215741   4.012   0.789   6.046
 5167WAT      O15742   7.892   7.283   6.065
 5167WAT     H115743   7.839   7.199   6.068
 5167WAT     H215744   7.915   7.305   5.970
 5168WAT      O15745   3.419   4.567   6.254
 5168WAT     H115746   3.480   4.488   6.242
 5168WAT     H215747   3.443   4.615   6.338
 5169WAT      O15748   9.812   8.427   9.855
 5169WAT     H115749   9.841   8.336   9.888
 5169WAT     H215750   9.893   8.480   9.830
 5170WAT      O15751   0.178   5.093   6.100
 5170WAT     H115752   0.160   4.995   6.089
 5170WAT     H215753   0.241   5.106   6.177
 5171WAT      O15754   8.833   6.040   6.891
 5171WAT     H115755   8.745   6.086   6.906
 5171WAT     H215756   8.884   6.087   6.819
 5172WAT      O15757   7.187   9.391   2.783
 5172WAT     H115758   7.167   9.472   2.837
 5172WAT     H215759   7.219   9.419   2.692
 5173WAT      O15760   4.423   2.070   3.195
 5173WAT     H115761   4.457   2.051   3.103
 5173WAT     H215762   4.334   2.116   3.188
 5174WAT      O15763   6.355   1.309   2.982
 5174WAT     H115764   6.406   1.258   3.052
 5174WAT     H215765   6.306   1.245   2.923
 5175WAT      O15766   7.753   2.917   8.690
 5175WAT     H115767   7.658   2.925   8.659
 5175WAT     H215768   7.762   2.960   8.780
 5176WAT      O15769   4.483   9.078   3.014
 5176WAT     H115770   4.531   9.115   3.093
 5176WAT     H215771   4.417   9.009   3.044
 5177WAT      O15772   8.836   1.517   7.119
 5177WAT     H115773   8.774   1.502   7.196
 5177WAT     H215774   8.899   1.439   7.112
 5178WAT      O15775   1.018   4.317   3.725
 5178WAT     H115776   0.989   4.237   3.673
 5178WAT     H215777   1.106   4.349   3.690
 5179WAT      O15778   8.931   6.252   4.822
 5179WAT     H115779   8.909   6.286   4.913
 5179WAT     H215780   8.917   6.324   4.754
 5180WAT      O15781   4.349   6.260   2.914
 5180WAT     H115782   4.381   6.196   2.983
 5180WAT     H215783   4.330   6.348   2.956
 5181WAT      O15784   6.652   7.068   9.537
 5181WAT     H115785   6.623   7.154   9.579
 5181WAT     H215786   6.730   7.085   9.477
 5182WAT      O15787   3.191   3.057   6.942
 5182WAT     H115788   3.143   3.008   6.869
 5182WAT     H215789   3.281   3.015   6.956
 5183WAT      O15790   3.472   6.276   2.023
 5183WAT     H115791   3.492   6.315   1.933
 5183WAT     H215792   3.394   6.214   2.016
 5184WAT      O15793   4.976   2.942   4.146
 5184WAT     H115794   5.059   2.895   4.176
 5184WAT     H215795   4.990   2.980   4.055
 5185WAT      O15796   2.434   4.630   7.175
 5185WAT     H115797   2.398   4.723   7.170
 5185WAT     H215798   2.418   4.583   7.088
 5186WAT      O15799   8.542   6.357   7.666
 5186WAT     H115800   8.568   6.335   7.760
 5186WAT     H215801   8.536   6.456   7.655
 5187WAT      O15802   5.158   6.764   9.601
 5187WAT     H115803   5.145   6.767   9.700
 5187WAT     H215804   5.150   6.670   9.568
 5188WAT      O15805   7.480   5.161   2.008
 5188WAT     H115806   7.410   5.129   1.945
 5188WAT     H215807   7.569   5.159   1.962
 5189WAT      O15808   7.755   3.186   0.258
 5189WAT     H115809   7.800   3.274   0.270
 5189WAT     H215810   7.752   3.137   0.345
 5190WAT      O15811   7.415   2.627   0.802
 5190WAT     H115812   7.418   2.716   0.756
 5190WAT     H215813   7.493   2.618   0.863
 5191WAT      O15814   0.397   3.811   8.788
 5191WAT     H115815   0.461   3.825   8.862
 5191WAT     H215816   0.333   3.888   8.783
 5192WAT      O15817   2.758   5.049   7.748
 5192WAT     H115818   2.782   4.954   7.767
 5192WAT     H215819   2.800   5.108   7.816
 5193WAT      O15820   4.618   0.466   8.853
 5193WAT     H115821   4.671   0.399   8.801
 5193WAT     H215822   4.632   0.450   8.951
 5194WAT      O15823   2.030   6.776   1.326
 5194WAT     H115824   1.968   6.725   1.266
 5194WAT     H215825   2.068   6.854   1.276
 5195WAT      O15826   5.230   5.802   5.709
 5195WAT     H115827   5.265   5.759   5.626
 5195WAT     H215828   5.149   5.754   5.740
 5196WAT      O15829   1.607   0.511   6.444
 5196WAT     H115830   1.592   0.586   6.379
 5196WAT     H215831   1.669   0.444   6.404
 5197WAT      O15832   7.700   1.552   9.611
 5197WAT     H115833   7.710   1.537   9.513
 5197WAT     H215834   7.781   1.597   9.647
 5198WAT      O15835   5.547   0.943   8.196
 5198WAT     H115836   5.539   1.010   8.270
 5198WAT     H215837   5.495   0.861   8.219
 5199WAT      O15838   0.994   6.894   7.260
 5199WAT     H115839   0.904   6.859   7.285
 5199WAT     H215840   0.994   6.994   7.264
 5200WAT      O15841   7.482   3.246   0.204
 5200WAT     H115842   7.489   3.323   0.141
 5200WAT     H215843   7.573   3.223   0.239
 5201WAT      O15844   9.354   7.773   1.237
 5201WAT     H115845   9.261   7.809   1.229
 5201WAT     H215846   9.359   7.710   1.314
 5202WAT      O15847   9.757   7.155   6.567
 5202WAT     H115848   9.709   7.081   6.614
 5202WAT     H215849   9.723   7.162   6.473
 5203WAT      O15850   7.787   6.620   0.792
 5203WAT     H115851   7.721   6.548   0.814
 5203WAT     H215852   7.797   6.627   0.693
 5204WAT      O15853   1.621   3.283   9.656
 5204WAT     H115854   1.566   3.364   9.674
 5204WAT     H215855   1.596   3.211   9.720
 5205WAT      O15856   3.552   1.012   0.401
 5205WAT     H115857   3.563   1.103   0.441
 5205WAT     H215858   3.596   0.944   0.460
 5206WAT      O15859   5.398   9.488   3.600
 5206WAT     H115860   5.453   9.404   3.597
 5206WAT     H215861   5.425   9.543   3.679
 5207WAT      O15862   2.015   1.188   8.812
 5207WAT     H115863   1.957   1.255   8.767
 5207WAT     H215864   1.965   1.102   8.824
 5208WAT      O15865   5.071   4.853   8.181
 5208WAT     H115866   5.151   4.822   8.130
 5208WAT     H215867   5.010   4.776   8.199
 5209WAT      O15868   1.304   3.783   5.965
 5209WAT     H115869   1.395   3.788   6.005
 5209WAT     H215870   1.311   3.760   5.868
 5210WAT      O15871   2.546   1.904   6.455
 5210WAT     H115872   2.450   1.928   6.470
 5210WAT     H215873   2.565   1.813   6.493
 5211WAT      O15874   1.964   7.852   2.645
 5211WAT     H115875   2.016   7.934   2.622
 5211WAT     H215876   1.866   7.873   2.644
 5212WAT      O15877   2.006   5.841   8.342
 5212WAT     H115878   2.062   5.878   8.268
 5212WAT     H215879   1.931   5.905   8.362
 5213WAT      O15880   7.709   8.294   1.590
 5213WAT     H115881   7.765   8.213   1.611
 5213WAT     H215882   7.720   8.361   1.663
 5214WAT      O15883   6.490   9.659   2.297
 5214WAT     H115884   6.495   9.726   2.223
 5214WAT     H215885   6.487   9.567   2.259
 5215WAT      O15886   0.664   0.282   4.183
 5215WAT     H115887   0.640   0.193   4.223
 5215WAT     H215888   0.743   0.271   4.123
 5216WAT      O15889   3.330   2.622   0.586
 5216WAT     H115890   3.349   2.720   0.589
 5216WAT     H215891   3.312   2.589   0.679
 5217WAT      O15892   8.023   1.867   7.546
 5217WAT     H115893   7.997   1.837   7.638
 5217WAT     H215894   8.097   1.934   7.553
 5218WAT      O15895   3.499   9.440   6.821
 5218WAT     H115896   3.453   9.352   6.832
 5218WAT     H215897   3.492   9.470   6.726
 5219WAT      O15898   8.536   4.153   8.401
 5219WAT     H115899   8.561   4.235   8.454
 5219WAT     H215900   8.469   4.100   8.453
 5220WAT      O15901   2.053   9.706   9.134
 5220WAT     H115902   2.094   9.790   9.170
 5220WAT     H215903   2.125   9.645   9.101
 5221WAT      O15904   3.245   8.492   4.932
 5221WAT     H115905   3.264   8.459   4.840
 5221WAT     H215906   3.293   8.579   4.947
 5222WAT      O15907   5.265   0.062   1.588
 5222WAT     H115908   5.217  -0.014   1.632
 5222WAT     H215909   5.204   0.142   1.584
 5223WAT      O15910   5.624   0.938   2.972
 5223WAT     H115911   5.678   0.927   3.056
 5223WAT     H215912   5.554   1.007   2.987
 5224WAT      O15913   1.307   1.196   9.320
 5224WAT     H115914   1.353   1.277   9.283
 5224WAT     H215915   1.351   1.169   9.406
 5225WAT      O15916   5.351   2.526   0.876
 5225WAT     H115917   5.322   2.434   0.903
 5225WAT     H215918   5.414   2.520   0.799
 5226WAT      O15919   2.998   0.766   4.220
 5226WAT     H115920   2.926   0.704   4.187
 5226WAT     H215921   3.085   0.717   4.223
 5227WAT      O15922   2.261   9.727   6.242
 5227WAT     H115923   2.231   9.760   6.152
 5227WAT     H215924   2.185   9.735   6.307
 5228WAT      O15925   6.070   6.981   6.215
 5228WAT     H115926   5.983   6.992   6.167
 5228WAT     H215927   6.133   6.928   6.158
 5229WAT      O15928   8.780   6.904   5.193
 5229WAT     H115929   8.863   6.849   5.193
 5229WAT     H215930   8.778   6.963   5.275
 5230WAT      O15931   7.115   3.542   3.904
 5230WAT     H115932   7.129   3.459   3.957
 5230WAT     H215933   7.172   3.616   3.941
 5231WAT      O15934   9.194   4.205   0.325
 5231WAT     H115935   9.246   4.253   0.396
 5231WAT     H215936   9.187   4.108   0.348
 5232WAT      O15937   5.770   5.381   0.181
 5232WAT     H115938   5.869   5.381   0.199
 5232WAT     H215939   5.751   5.326   0.099
 5233WAT      O15940   0.191   3.563   4.329
 5233WAT     H115941   0.110   3.547   4.385
 5233WAT     H215942   0.243   3.479   4.321
 5234WAT      O15943   5.041   1.219   6.917
 5234WAT     H115944   5.013   1.311   6.888
 5234WAT     H215945   5.057   1.162   6.837
 5235WAT      O15946   0.018   7.569   1.230
 5235WAT     H115947   0.085   7.626   1.278
 5235WAT     H215948   0.026   7.584   1.131
 5236WAT      O15949   1.183   1.850   8.439
 5236WAT     H115950   1.127   1.776   8.402
 5236WAT     H215951   1.278   1.838   8.412
 5237WAT      O15952   3.536   2.259   3.556
 5237WAT     H115953   3.451   2.267   3.505
 5237WAT     H215954   3.555   2.345   3.603
 5238WAT      O15955   8.953   1.741   5.534
 5238WAT     H115956   8.955   1.836   5.503
 5238WAT     H215957   8.860   1.706   5.528
 5239WAT      O15958   0.532   7.249   8.559
 5239WAT     H115959   0.582   7.277   8.641
 5239WAT     H215960   0.435   7.243   8.580
 5240WAT      O15961   0.122   8.596   4.256
 5240WAT     H115962   0.101   8.693   4.246
 5240WAT     H215963   0.046   8.542   4.220
 5241WAT      O15964   5.885   7.457   6.161
 5241WAT     H115965   5.983   7.455   6.140
 5241WAT     H215966   5.872   7.443   6.259
 5242WAT      O15967   7.564   7.694   6.049
 5242WAT     H115968   7.614   7.691   5.962
 5242WAT     H215969   7.607   7.633   6.115
 5243WAT      O15970   1.785   6.752   9.656
 5243WAT     H115971   1.860   6.801   9.611
 5243WAT     H215972   1.743   6.810   9.725
 5244WAT      O15973   5.879   2.735   4.651
 5244WAT     H115974   5.866   2.809   4.718
 5244WAT     H215975   5.790   2.706   4.616
 5245WAT      O15976   3.548   3.719   1.478
 5245WAT     H115977   3.484   3.719   1.555
 5245WAT     H215978   3.641   3.714   1.512
 5246WAT      O15979   9.741   2.160   9.772
 5246WAT     H115980   9.795   2.078   9.757
 5246WAT     H215981   9.712   2.197   9.684
 5247WAT      O15982   4.970   9.760   4.264
 5247WAT     H115983   5.002   9.744   4.357
 5247WAT     H215984   4.899   9.693   4.241
 5248WAT      O15985   4.747   0.617   9.307
 5248WAT     H115986   4.781   0.560   9.382
 5248WAT     H215987   4.647   0.624   9.314
 5249WAT      O15988   9.369   4.295   7.920
 5249WAT     H115989   9.368   4.196   7.904
 5249WAT     H215990   9.461   4.325   7.943
 5250WAT      O15991   5.700   8.066   9.288
 5250WAT     H115992   5.652   7.994   9.238
 5250WAT     H215993   5.680   8.057   9.386
 5251WAT      O15994   3.901   3.693   1.379
 5251WAT     H115995   3.954   3.648   1.307
 5251WAT     H215996   3.878   3.625   1.449
 5252WAT      O15997   5.013   7.788   1.082
 5252WAT     H115998   4.923   7.802   1.122
 5252WAT     H215999   5.004   7.768   0.985
 5253WAT      O16000   4.442   3.333   3.015
 5253WAT     H116001   4.509   3.396   2.977
 5253WAT     H216002   4.349   3.366   2.995
 5254WAT      O16003   6.714   9.587   7.264
 5254WAT     H116004   6.681   9.598   7.171
 5254WAT     H216005   6.750   9.495   7.276
 5255WAT      O16006   0.936   3.512   8.721
 5255WAT     H116007   0.996   3.589   8.698
 5255WAT     H216008   0.882   3.486   8.641
 5256WAT      O16009   7.661   7.580   3.742
 5256WAT     H116010   7.615   7.667   3.763
 5256WAT     H216011   7.593   7.513   3.712
 5257WAT      O16012   7.159   6.529   9.868
 5257WAT     H116013   7.146   6.620   9.907
 5257WAT     H216014   7.075   6.501   9.822
 5258WAT      O16015   7.296   6.510   7.374
 5258WAT     H116016   7.324   6.572   7.447
 5258WAT     H216017   7.236   6.558   7.310
 5259WAT      O16018   8.991   6.237   9.008
 5259WAT     H116019   9.046   6.220   8.926
 5259WAT     H216020   8.965   6.334   9.012
 5260WAT      O16021   9.763   4.440   1.687
 5260WAT     H116022   9.673   4.484   1.679
 5260WAT     H216023   9.752   4.348   1.723
 5261WAT      O16024   3.095   4.108   7.008
 5261WAT     H116025   3.056   4.198   6.990
 5261WAT     H216026   3.097   4.055   6.923
 5262WAT      O16027   5.996   1.832   9.337
 5262WAT     H116028   5.945   1.840   9.423
 5262WAT     H216029   5.975   1.909   9.278
 5263WAT      O16030   0.254   9.731   4.535
 5263WAT     H116031   0.173   9.733   4.593
 5263WAT     H216032   0.238   9.787   4.454
 5264WAT      O16033   6.336   7.589   6.548
 5264WAT     H116034   6.405   7.636   6.493
 5264WAT     H216035   6.287   7.656   6.604
 5265WAT      O16036   4.116   5.830   4.159
 5265WAT     H116037   4.041   5.804   4.220
 5265WAT     H216038   4.105   5.925   4.130
 5266WAT      O16039   0.453   7.712   3.688
 5266WAT     H116040   0.479   7.808   3.696
 5266WAT     H216041   0.528   7.655   3.721
 5267WAT      O16042   5.126   0.722   0.519
 5267WAT     H116043   5.181   0.805   0.521
 5267WAT     H216044   5.174   0.649   0.568
 5268WAT      O16045   7.129   1.522   0.291
 5268WAT     H116046   7.071   1.543   0.370
 5268WAT     H216047   7.187   1.601   0.271
 5269WAT      O16048   5.053   3.234   9.517
 5269WAT     H116049   5.037   3.141   9.481
 5269WAT     H216050   5.025   3.301   9.448
 5270WAT      O16051   1.340   2.664   7.094
 5270WAT     H116052   1.319   2.755   7.057
 5270WAT     H216053   1.333   2.596   7.021
 5271WAT      O16054   5.306   7.709   6.633
 5271WAT     H116055   5.405   7.712   6.620
 5271WAT     H216056   5.263   7.665   6.554
 5272WAT      O16057   6.650   9.482   5.849
 5272WAT     H116058   6.584   9.544   5.892
 5272WAT     H216059   6.604   9.428   5.779
 5273WAT      O16060   3.385   3.357   2.291
 5273WAT     H116061   3.333   3.272   2.284
 5273WAT     H216062   3.325   3.434   2.271
 5274WAT      O16063   2.926   6.996   0.422
 5274WAT     H116064   2.867   7.057   0.368
 5274WAT     H216065   3.020   7.029   0.418
 5275WAT      O16066   7.938   1.867   7.288
 5275WAT     H116067   8.005   1.897   7.356
 5275WAT     H216068   7.846   1.878   7.325
 5276WAT      O16069   3.924   0.323   5.909
 5276WAT     H116070   4.007   0.286   5.868
 5276WAT     H216071   3.850   0.321   5.842
 5277WAT      O16072   5.835   8.800   4.913
 5277WAT     H116073   5.860   8.721   4.969
 5277WAT     H216074   5.830   8.772   4.817
 5278WAT      O16075   1.486   0.186   8.258
 5278WAT     H116076   1.578   0.151   8.240
 5278WAT     H216077   1.463   0.257   8.191
 5279WAT      O16078   0.096   3.957   9.049
 5279WAT     H116079   0.036   3.957   8.969
 5279WAT     H216080   0.076   4.037   9.105
 5280WAT      O16081   7.913   6.484   8.241
 5280WAT     H116082   7.921   6.390   8.209
 5280WAT     H216083   7.908   6.485   8.341
 5281WAT      O16084   1.679   0.683   9.002
 5281WAT     H116085   1.738   0.621   9.053
 5281WAT     H216086   1.583   0.663   9.024
 5282WAT      O16087   3.629   9.125   8.683
 5282WAT     H116088   3.665   9.035   8.710
 5282WAT     H216089   3.624   9.184   8.764
 5283WAT      O16090   3.480   2.406   7.081
 5283WAT     H116091   3.492   2.500   7.111
 5283WAT     H216092   3.443   2.351   7.156
 5284WAT      O16093   6.207   1.503   8.032
 5284WAT     H116094   6.126   1.554   8.003
 5284WAT     H216095   6.288   1.560   8.016
 5285WAT      O16096   1.600   7.137   2.208
 5285WAT     H116097   1.625   7.202   2.135
 5285WAT     H216098   1.602   7.184   2.296
 5286WAT      O16099   3.248   7.280   9.758
 5286WAT     H116100   3.239   7.260   9.660
 5286WAT     H216101   3.236   7.196   9.811
 5287WAT      O16102   2.611   9.747   1.422
 5287WAT     H116103   2.637   9.813   1.492
 5287WAT     H216104   2.550   9.679   1.462
 5288WAT      O16105   4.534   7.949   4.323
 5288WAT     H116106   4.463   7.992   4.267
 5288WAT     H216107   4.495   7.922   4.411
 5289WAT      O16108   5.477   7.805   3.005
 5289WAT     H116109   5.409   7.761   3.063
 5289WAT     H216110   5.558   7.827   3.060
 5290WAT      O16111   0.615   7.522   3.797
 5290WAT     H116112   0.655   7.434   3.823
 5290WAT     H216113   0.676   7.595   3.826
 5291WAT      O16114   3.329   0.435   3.219
 5291WAT     H116115   3.352   0.358   3.160
 5291WAT     H216116   3.412   0.468   3.266
 5292WAT      O16117   7.986   3.028   3.934
 5292WAT     H116118   7.889   3.042   3.911
 5292WAT     H216119   8.016   2.940   3.897
 5293WAT      O16120   0.010   8.972   4.730
 5293WAT     H116121   0.083   9.036   4.708
 5293WAT     H216122   0.023   8.937   4.823
 5294WAT      O16123   5.467   9.544   3.887
 5294WAT     H116124   5.489   9.640   3.902
 5294WAT     H216125   5.397   9.515   3.952
 5295WAT      O16126   9.096   6.642   0.723
 5295WAT     H116127   9.031   6.657   0.797
 5295WAT     H216128   9.051   6.653   0.635
 5296WAT      O16129   2.980   2.461   4.270
 5296WAT     H116130   2.919   2.529   4.230
 5296WAT     H216131   3.041   2.505   4.335
 5297WAT      O16132   8.690   1.296   1.872
 5297WAT     H116133   8.697   1.360   1.796
 5297WAT     H216134   8.594   1.287   1.900
 5298WAT      O16135   3.962   4.864   3.245
 5298WAT     H116136   3.947   4.963   3.241
 5298WAT     H216137   4.049   4.846   3.291
 5299WAT      O16138   3.593   9.185   8.416
 5299WAT     H116139   3.541   9.261   8.454
 5299WAT     H216140   3.652   9.147   8.488
 5300WAT      O16141   1.242   9.660   5.447
 5300WAT     H116142   1.150   9.698   5.439
 5300WAT     H216143   1.289   9.667   5.359
 5301WAT      O16144   8.824   4.643   3.879
 5301WAT     H116145   8.824   4.548   3.847
 5301WAT     H216146   8.790   4.703   3.807
 5302WAT      O16147   5.908   1.265   5.335
 5302WAT     H116148   5.992   1.303   5.374
 5302WAT     H216149   5.843   1.339   5.316
 5303WAT      O16150   0.623   3.864   4.000
 5303WAT     H116151   0.660   3.939   4.056
 5303WAT     H216152   0.627   3.890   3.903
 5304WAT      O16153   5.377   1.118   6.225
 5304WAT     H116154   5.418   1.181   6.290
 5304WAT     H216155   5.360   1.030   6.269
 5305WAT      O16156   8.956   5.244   6.979
 5305WAT     H116157   8.923   5.170   7.039
 5305WAT     H216158   8.938   5.220   6.884
 5306WAT      O16159   5.003   4.447   9.674
 5306WAT     H116160   4.913   4.420   9.640
 5306WAT     H216161   5.019   4.404   9.763
 5307WAT      O16162   8.826   0.354   8.330
 5307WAT     H116163   8.767   0.424   8.370
 5307WAT     H216164   8.797   0.264   8.361
 5308WAT      O16165   7.964   0.363   8.189
 5308WAT     H116166   7.886   0.307   8.163
 5308WAT     H216167   7.993   0.420   8.112
 5309WAT      O16168   0.392   5.008   7.324
 5309WAT     H116169   0.421   5.015   7.228
 5309WAT     H216170   0.383   4.911   7.348
 5310WAT      O16171   8.450   5.617   6.881
 5310WAT     H116172   8.365   5.621   6.934
 5310WAT     H216173   8.491   5.708   6.878
 5311WAT      O16174   7.103   9.372   6.010
 5311WAT     H116175   7.041   9.450   6.009
 5311WAT     H216176   7.156   9.369   5.926
 5312WAT      O16177   3.810   3.522   1.873
 5312WAT     H116178   3.729   3.467   1.851
 5312WAT     H216179   3.784   3.593   1.939
 5313WAT      O16180   9.032   7.258   6.587
 5313WAT     H116181   8.943   7.220   6.613
 5313WAT     H216182   9.039   7.262   6.488
 5314WAT      O16183   2.400   8.039   6.938
 5314WAT     H116184   2.459   8.001   6.866
 5314WAT     H216185   2.405   8.139   6.936
 5315WAT      O16186   0.771   7.525   9.362
 5315WAT     H116187   0.850   7.557   9.310
 5315WAT     H216188   0.786   7.544   9.459
 5316WAT      O16189   6.283   1.778   2.776
 5316WAT     H116190   6.249   1.816   2.690
 5316WAT     H216191   6.258   1.682   2.783
 5317WAT      O16192   2.541   9.550   4.536
 5317WAT     H116193   2.621   9.591   4.492
 5317WAT     H216194   2.519   9.599   4.620
 5318WAT      O16195   0.904   4.220   7.919
 5318WAT     H116196   0.834   4.244   7.987
 5318WAT     H216197   0.907   4.120   7.909
 5319WAT      O16198   4.441   0.576   7.898
 5319WAT     H116199   4.514   0.634   7.935
 5319WAT     H216200   4.359   0.630   7.885
 5320WAT      O16201   4.029   3.858   7.566
 5320WAT     H116202   3.994   3.951   7.580
 5320WAT     H216203   4.078   3.828   7.648
 5321WAT      O16204   9.861   5.560   4.487
 5321WAT     H116205   9.903   5.541   4.576
 5321WAT     H216206   9.927   5.608   4.429
 5322WAT      O16207   7.886   0.824   2.682
 5322WAT     H116208   7.863   0.919   2.662
 5322WAT     H216209   7.805   0.767   2.669
 5323WAT      O16210   4.332   4.540   8.986
 5323WAT     H116211   4.363   4.495   9.070
 5323WAT     H216212   4.408   4.591   8.947
 5324WAT      O16213   1.228   4.985   5.799
 5324WAT     H116214   1.130   4.999   5.782
 5324WAT     H216215   1.240   4.917   5.871
 5325WAT      O16216   8.616   3.432   0.464
 5325WAT     H116217   8.669   3.377   0.528
 5325WAT     H216218   8.600   3.380   0.380
 5326WAT      O16219   9.854   8.873   0.740
 5326WAT     H116220   9.865   8.780   0.705
 5326WAT     H216221   9.921   8.933   0.696
 5327WAT      O16222   3.033   8.592   9.537
 5327WAT     H116223   3.099   8.666   9.547
 5327WAT     H216224   3.077   8.512   9.497
 5328WAT      O16225   0.134   6.841   3.796
 5328WAT     H116226   0.230   6.813   3.788
 5328WAT     H216227   0.081   6.767   3.839
 5329WAT      O16228   9.812   1.331   0.872
 5329WAT     H116229   9.726   1.314   0.921
 5329WAT     H216230   9.866   1.247   0.871
 5330WAT      O16231   7.840   3.744   8.000
 5330WAT     H116232   7.814   3.835   7.966
 5330WAT     H216233   7.933   3.723   7.970
 5331WAT      O16234   8.688   9.105   6.349
 5331WAT     H116235   8.600   9.142   6.378
 5331WAT     H216236   8.675   9.042   6.273
 5332WAT      O16237   0.498   2.763   8.795
 5332WAT     H116238   0.584   2.717   8.775
 5332WAT     H216239   0.488   2.843   8.736
 5333WAT      O16240   1.144   4.269   8.350
 5333WAT     H116241   1.176   4.175   8.363
 5333WAT     H216242   1.210   4.318   8.294
 5334WAT      O16243   2.016   6.483   1.239
 5334WAT     H116244   1.937   6.543   1.225
 5334WAT     H216245   2.033   6.431   1.155
 5335WAT      O16246   9.185   6.950   7.887
 5335WAT     H116247   9.246   6.944   7.966
 5335WAT     H216248   9.147   7.043   7.881
 5336WAT      O16249   9.308   2.728   7.781
 5336WAT     H116250   9.376   2.794   7.813
 5336WAT     H216251   9.245   2.706   7.855
 5337WAT      O16252   8.058   0.244   6.916
 5337WAT     H116253   7.993   0.255   6.992
 5337WAT     H216254   8.146   0.284   6.942
 5338WAT      O16255   4.445   9.359   7.606
 5338WAT     H116256   4.544   9.368   7.601
 5338WAT     H216257   4.413   9.295   7.537
 5339WAT      O16258   7.314   1.828   0.612
 5339WAT     H116259   7.408   1.838   0.578
 5339WAT     H216260   7.317   1.806   0.710
 5340WAT      O16261   0.148   7.510   9.595
 5340WAT     H116262   0.109   7.590   9.550
 5340WAT     H216263   0.151   7.525   9.694
 5341WAT      O16264   2.036   7.374   5.237
 5341WAT     H116265   1.966   7.359   5.307
 5341WAT     H216266   2.058   7.287   5.193
 5342WAT      O16267   0.407   7.988   2.262
 5342WAT     H116268   0.308   8.000   2.274
 5342WAT     H216269   0.456   8.053   2.320
 5343WAT      O16270   0.318   7.823   8.883
 5343WAT     H116271   0.248   7.786   8.944
 5343WAT     H216272   0.353   7.908   8.921
 5344WAT      O16273   0.574   3.621   4.939
 5344WAT     H116274   0.658   3.647   4.988
 5344WAT     H216275   0.597   3.596   4.845
 5345WAT      O16276   4.404   6.756   7.647
 5345WAT     H116277   4.491   6.802   7.631
 5345WAT     H216278   4.329   6.815   7.616
 5346WAT      O16279   2.825   2.846   0.102
 5346WAT     H116280   2.763   2.808   0.171
 5346WAT     H216281   2.781   2.924   0.057
 5347WAT      O16282   0.551   1.923   0.086
 5347WAT     H116283   0.510   1.833   0.097
 5347WAT     H216284   0.505   1.971   0.011
 5348WAT      O16285   8.055   4.647   3.209
 5348WAT     H116286   8.095   4.697   3.286
 5348WAT     H216287   8.124   4.632   3.139
 5349WAT      O16288   3.335   2.684   8.576
 5349WAT     H116289   3.302   2.631   8.655
 5349WAT     H216290   3.418   2.733   8.601
 5350WAT      O16291   5.058   6.857   7.269
 5350WAT     H116292   5.015   6.899   7.348
 5350WAT     H216293   5.157   6.862   7.277
 5351WAT      O16294   1.967   4.593   0.579
 5351WAT     H116295   1.918   4.560   0.499
 5351WAT     H216296   2.064   4.567   0.572
 5352WAT      O16297   8.536   1.025   1.998
 5352WAT     H116298   8.526   1.119   2.032
 5352WAT     H216299   8.632   1.007   1.976
 5353WAT      O16300   9.540   3.145   4.350
 5353WAT     H116301   9.524   3.133   4.252
 5353WAT     H216302   9.609   3.079   4.380
 5354WAT      O16303   7.846   8.642   8.493
 5354WAT     H116304   7.784   8.720   8.495
 5354WAT     H216305   7.811   8.571   8.554
 5355WAT      O16306   7.242   5.964   1.949
 5355WAT     H116307   7.285   6.050   1.977
 5355WAT     H216308   7.146   5.981   1.926
 5356WAT      O16309   1.138   4.610   8.437
 5356WAT     H116310   1.043   4.592   8.464
 5356WAT     H216311   1.161   4.705   8.458
 5357WAT      O16312   3.706   1.743   0.617
 5357WAT     H116313   3.711   1.723   0.519
 5357WAT     H216314   3.765   1.822   0.637
 5358WAT      O16315   4.258   5.472   7.483
 5358WAT     H116316   4.171   5.442   7.442
 5358WAT     H216317   4.333   5.451   7.421
 5359WAT      O16318   9.664   3.125   8.184
 5359WAT     H116319   9.671   3.172   8.096
 5359WAT     H216320   9.689   3.188   8.258
 5360WAT      O16321   5.739   2.531   6.379
 5360WAT     H116322   5.666   2.581   6.332
 5360WAT     H216323   5.785   2.592   6.444
 5361WAT      O16324   9.506   6.112   3.831
 5361WAT     H116325   9.497   6.089   3.927
 5361WAT     H216326   9.603   6.108   3.804
 5362WAT      O16327   8.861   5.066   3.355
 5362WAT     H116328   8.771   5.024   3.340
 5362WAT     H216329   8.849   5.155   3.399
 5363WAT      O16330   7.913   5.087   2.007
 5363WAT     H116331   8.002   5.107   1.966
 5363WAT     H216332   7.920   5.095   2.106
 5364WAT      O16333   4.559   1.570   3.950
 5364WAT     H116334   4.640   1.511   3.945
 5364WAT     H216335   4.572   1.650   3.892
 5365WAT      O16336   0.749   2.394   6.107
 5365WAT     H116337   0.764   2.427   6.014
 5365WAT     H216338   0.782   2.300   6.115
 5366WAT      O16339   8.142   1.874   1.270
 5366WAT     H116340   8.109   1.955   1.319
 5366WAT     H216341   8.203   1.821   1.328
 5367WAT      O16342   1.877   5.774   4.570
 5367WAT     H116343   1.797   5.825   4.599
 5367WAT     H216344   1.954   5.795   4.630
 5368WAT      O16345   6.223   5.983   4.127
 5368WAT     H116346   6.187   6.066   4.085
 5368WAT     H216347   6.265   6.005   4.215
 5369WAT      O16348   9.437   8.276   3.957
 5369WAT     H116349   9.535   8.257   3.952
 5369WAT     H216350   9.422   8.374   3.944
 5370WAT      O16351   0.329   8.132   2.031
 5370WAT     H116352   0.320   8.033   2.033
 5370WAT     H216353   0.282   8.168   1.950
 5371WAT      O16354   1.857   9.292   1.389
 5371WAT     H116355   1.839   9.369   1.451
 5371WAT     H216356   1.950   9.299   1.353
 5372WAT      O16357   0.148   5.883   0.238
 5372WAT     H116358   0.164   5.945   0.315
 5372WAT     H216359   0.163   5.789   0.268
 5373WAT      O16360   4.160   3.830   0.915
 5373WAT     H116361   4.161   3.929   0.901
 5373WAT     H216362   4.247   3.791   0.884
 5374WAT      O16363   8.793   9.630   2.132
 5374WAT     H116364   8.698   9.606   2.153
 5374WAT     H216365   8.798   9.668   2.039
 5375WAT      O16366   8.800   5.953   3.908
 5375WAT     H116367   8.761   5.993   3.825
 5375WAT     H216368   8.891   5.991   3.923
 5376WAT      O16369   3.161   1.313   2.655
 5376WAT     H116370   3.138   1.217   2.672
 5376WAT     H216371   3.115   1.345   2.573
 5377WAT      O16372   7.632   7.501   8.725
 5377WAT     H116373   7.656   7.431   8.658
 5377WAT     H216374   7.705   7.508   8.794
 5378WAT      O16375   5.993   3.017   7.895
 5378WAT     H116376   6.089   2.987   7.897
 5378WAT     H216377   5.975   3.065   7.809
 5379WAT      O16378   3.638   4.704   9.513
 5379WAT     H116379   3.635   4.719   9.612
 5379WAT     H216380   3.727   4.666   9.487
 5380WAT      O16381   1.581   9.772   7.472
 5380WAT     H116382   1.506   9.705   7.479
 5380WAT     H216383   1.545   9.863   7.494
 5381WAT      O16384   5.842   3.253   9.156
 5381WAT     H116385   5.777   3.209   9.094
 5381WAT     H216386   5.904   3.311   9.103
 5382WAT      O16387   6.326   4.723   1.444
 5382WAT     H116388   6.321   4.697   1.347
 5382WAT     H216389   6.289   4.648   1.500
 5383WAT      O16390   6.470   6.603   4.915
 5383WAT     H116391   6.409   6.680   4.900
 5383WAT     H216392   6.472   6.545   4.834
 5384WAT      O16393   2.254   2.011   3.622
 5384WAT     H116394   2.181   2.030   3.556
 5384WAT     H216395   2.298   2.097   3.648
 5385WAT      O16396   0.992   7.868   3.423
 5385WAT     H116397   0.899   7.851   3.454
 5385WAT     H216398   1.039   7.927   3.489
 5386WAT      O16399   4.014   6.098   1.204
 5386WAT     H116400   3.982   6.127   1.295
 5386WAT     H216401   3.990   6.002   1.189
 5387WAT      O16402   7.639   2.656   2.705
 5387WAT     H116403   7.720   2.600   2.722
 5387WAT     H216404   7.641   2.690   2.610
 5388WAT      O16405   7.191   5.732   2.948
 5388WAT     H116406   7.237   5.643   2.940
 5388WAT     H216407   7.183   5.773   2.857
 5389WAT      O16408   2.135   3.615   0.824
 5389WAT     H116409   2.192   3.684   0.868
 5389WAT     H216410   2.077   3.658   0.755
 5390WAT      O16411   5.799   6.780   3.979
 5390WAT     H116412   5.868   6.846   4.008
 5390WAT     H216413   5.844   6.697   3.946
 5391WAT      O16414   9.837   2.489   0.159
 5391WAT     H116415   9.757   2.527   0.113
 5391WAT     H216416   9.820   2.484   0.258
 5392WAT      O16417   4.293   5.877   6.910
 5392WAT     H116418   4.202   5.837   6.921
 5392WAT     H216419   4.289   5.953   6.845
 5393WAT      O16420   5.530   7.261   0.394
 5393WAT     H116421   5.475   7.260   0.477
 5393WAT     H216422   5.471   7.247   0.315
 5394WAT      O16423   1.483   8.577   5.533
 5394WAT     H116424   1.541   8.557   5.454
 5394WAT     H216425   1.416   8.647   5.508
 5395WAT      O16426   9.558   0.760   7.536
 5395WAT     H116427   9.616   0.680   7.553
 5395WAT     H216428   9.465   0.742   7.569
 5396WAT      O16429   0.936   8.828   1.871
 5396WAT     H116430   1.009   8.822   1.803
 5396WAT     H216431   0.944   8.913   1.922
 5397WAT      O16432   8.433   8.363   8.433
 5397WAT     H116433   8.441   8.275   8.481
 5397WAT     H216434   8.382   8.427   8.491
 5398WAT      O16435   4.732   8.773   8.377
 5398WAT     H116436   4.770   8.778   8.470
 5398WAT     H216437   4.723   8.677   8.350
 5399WAT      O16438   9.041   6.230   0.749
 5399WAT     H116439   9.125   6.276   0.777
 5399WAT     H216440   9.039   6.138   0.789
 5400WAT      O16441   8.215   8.648   5.939
 5400WAT     H116442   8.249   8.712   5.871
 5400WAT     H216443   8.204   8.695   6.027
 5401WAT      O16444   7.646   7.979   4.844
 5401WAT     H116445   7.717   7.937   4.787
 5401WAT     H216446   7.566   8.000   4.788
 5402WAT      O16447   5.831   8.501   2.860
 5402WAT     H116448   5.744   8.524   2.903
 5402WAT     H216449   5.874   8.425   2.911
 5403WAT      O16450   4.889   1.585   7.498
 5403WAT     H116451   4.960   1.606   7.432
 5403WAT     H216452   4.799   1.598   7.456
 5404WAT      O16453   1.748   5.031   5.112
 5404WAT     H116454   1.790   5.058   5.198
 5404WAT     H216455   1.743   5.110   5.051
 5405WAT      O16456   4.879   6.734   0.607
 5405WAT     H116457   4.812   6.806   0.631
 5405WAT     H216458   4.957   6.740   0.670
 5406WAT      O16459   2.515   1.916   5.594
 5406WAT     H116460   2.435   1.944   5.539
 5406WAT     H216461   2.541   1.992   5.654
 5407WAT      O16462   3.288   1.130   6.895
 5407WAT     H116463   3.273   1.155   6.800
 5407WAT     H216464   3.336   1.205   6.942
 5408WAT      O16465   6.862   2.654   0.888
 5408WAT     H116466   6.801   2.733   0.892
 5408WAT     H216467   6.903   2.648   0.797
 5409WAT      O16468   0.337   9.222   5.732
 5409WAT     H116469   0.387   9.290   5.784
 5409WAT     H216470   0.324   9.254   5.638
 5410WAT      O16471   0.511   3.643   6.843
 5410WAT     H116472   0.510   3.629   6.744
 5410WAT     H216473   0.563   3.569   6.887
 5411WAT      O16474   2.100   8.193   5.483
 5411WAT     H116475   2.072   8.272   5.539
 5411WAT     H216476   2.125   8.117   5.542
 5412WAT      O16477   2.099   6.884   6.175
 5412WAT     H116478   2.086   6.982   6.158
 5412WAT     H216479   2.163   6.871   6.250
 5413WAT      O16480   2.191   6.382   5.738
 5413WAT     H116481   2.230   6.325   5.666
 5413WAT     H216482   2.176   6.475   5.704
 5414WAT      O16483   3.272   2.256   8.432
 5414WAT     H116484   3.174   2.274   8.443
 5414WAT     H216485   3.314   2.246   8.522
 5415WAT      O16486   1.973   4.635   7.713
 5415WAT     H116487   2.040   4.707   7.728
 5415WAT     H216488   1.881   4.671   7.725
 5416WAT      O16489   7.953   5.534   9.187
 5416WAT     H116490   7.991   5.501   9.101
 5416WAT     H216491   7.895   5.462   9.227
 5417WAT      O16492   9.809   1.350   5.551
 5417WAT     H116493   9.844   1.302   5.470
 5417WAT     H216494   9.758   1.286   5.609
 5418WAT      O16495   1.582   9.684   1.297
 5418WAT     H116496   1.516   9.689   1.372
 5418WAT     H216497   1.620   9.592   1.292
 5419WAT      O16498   4.177   6.623   3.633
 5419WAT     H116499   4.220   6.713   3.637
 5419WAT     H216500   4.079   6.633   3.614
 5420WAT      O16501   9.176   6.393   4.274
 5420WAT     H116502   9.105   6.418   4.209
 5420WAT     H216503   9.259   6.445   4.256
 5421WAT      O16504   4.769   4.993   8.910
 5421WAT     H116505   4.820   4.908   8.900
 5421WAT     H216506   4.672   4.977   8.892
 5422WAT      O16507   2.956   9.401   4.737
 5422WAT     H116508   2.943   9.311   4.695
 5422WAT     H216509   2.965   9.391   4.836
 5423WAT      O16510   0.239   8.839   0.360
 5423WAT     H116511   0.174   8.802   0.294
 5423WAT     H216512   0.327   8.853   0.316
 5424WAT      O16513   5.684   1.497   8.776
 5424WAT     H116514   5.616   1.551   8.726
 5424WAT     H216515   5.724   1.553   8.848
 5425WAT      O16516   0.756   1.771   9.797
 5425WAT     H116517   0.846   1.754   9.758
 5425WAT     H216518   0.731   1.867   9.783
 5426WAT      O16519   9.827   7.369   3.508
 5426WAT     H116520   9.875   7.281   3.506
 5426WAT     H216521   9.875   7.431   3.570
 5427WAT      O16522   1.364   4.756   5.886
 5427WAT     H116523   1.359   4.735   5.788
 5427WAT     H216524   1.332   4.677   5.939
 5428WAT      O16525   5.847   0.339   4.637
 5428WAT     H116526   5.824   0.317   4.542
 5428WAT     H216527   5.834   0.258   4.694
 5429WAT      O16528   3.806   8.700   9.200
 5429WAT     H116529   3.855   8.696   9.113
 5429WAT     H216530   3.803   8.794   9.233
 5430WAT      O16531   9.011   3.212   7.836
 5430WAT     H116532   9.074   3.229   7.913
 5430WAT     H216533   9.064   3.204   7.751
 5431WAT      O16534   5.000   3.570   3.625
 5431WAT     H116535   4.966   3.562   3.531
 5431WAT     H216536   5.006   3.666   3.651
 5432WAT      O16537   3.352   2.609   2.858
 5432WAT     H116538   3.348   2.707   2.877
 5432WAT     H216539   3.394   2.595   2.768
 5433WAT      O16540   1.581   5.217   3.706
 5433WAT     H116541   1.606   5.223   3.803
 5433WAT     H216542   1.640   5.277   3.652
 5434WAT      O16543   8.013   0.906   4.067
 5434WAT     H116544   8.017   1.004   4.047
 5434WAT     H216545   7.940   0.888   4.132
 5435WAT      O16546   2.936   6.044   6.687
 5435WAT     H116547   2.936   6.007   6.780
 5435WAT     H216548   2.846   6.030   6.646
 5436WAT      O16549   5.023   9.053   8.684
 5436WAT     H116550   4.952   8.996   8.725
 5436WAT     H216551   4.986   9.096   8.601
 5437WAT      O16552   6.282   9.040   0.099
 5437WAT     H116553   6.189   9.006   0.108
 5437WAT     H216554   6.317   9.066   0.190
 5438WAT      O16555   0.330   7.986   0.623
 5438WAT     H116556   0.291   8.077   0.633
 5438WAT     H216557   0.273   7.932   0.562
 5439WAT      O16558   6.755   6.169   4.087
 5439WAT     H116559   6.772   6.237   4.016
 5439WAT     H216560   6.741   6.215   4.175
 5440WAT      O16561   2.860   8.343   6.583
 5440WAT     H116562   2.930   8.320   6.650
 5440WAT     H216563   2.902   8.354   6.493
 5441WAT      O16564   3.186   4.178   9.879
 5441WAT     H116565   3.105   4.234   9.891
 5441WAT     H216566   3.186   4.102   9.944
 5442WAT      O16567   8.975   2.824   7.154
 5442WAT     H116568   8.903   2.884   7.119
 5442WAT     H216569   9.000   2.757   7.085
 5443WAT      O16570   4.556   7.953   5.286
 5443WAT     H116571   4.608   7.880   5.241
 5443WAT     H216572   4.567   7.944   5.385
 5444WAT      O16573   6.970   8.622   5.060
 5444WAT     H116574   7.047   8.576   5.106
 5444WAT     H216575   6.985   8.620   4.961
 5445WAT      O16576   6.228   2.471   1.760
 5445WAT     H116577   6.215   2.442   1.665
 5445WAT     H216578   6.142   2.463   1.810
 5446WAT      O16579   2.017   4.667   1.031
 5446WAT     H116580   1.988   4.699   1.121
 5446WAT     H216581   2.106   4.706   1.009
 5447WAT      O16582   3.646   5.737   5.906
 5447WAT     H116583   3.696   5.687   5.976
 5447WAT     H216584   3.585   5.674   5.858
 5448WAT      O16585   7.107   7.049   2.597
 5448WAT     H116586   7.032   6.988   2.571
 5448WAT     H216587   7.140   7.098   2.516
 5449WAT      O16588   9.415   4.620   2.898
 5449WAT     H116589   9.319   4.644   2.913
 5449WAT     H216590   9.429   4.595   2.802
 5450WAT      O16591   7.155   4.774   5.667
 5450WAT     H116592   7.074   4.754   5.611
 5450WAT     H216593   7.236   4.778   5.608
 5451WAT      O16594   1.270   9.030   8.687
 5451WAT     H116595   1.305   8.993   8.773
 5451WAT     H216596   1.176   9.062   8.699
 5452WAT      O16597   0.000   2.039   5.396
 5452WAT     H116598   0.032   2.133   5.396
 5452WAT     H216599   0.077   1.977   5.414
 5453WAT      O16600   7.446   0.471   1.459
 5453WAT     H116601   7.436   0.571   1.466
 5453WAT     H216602   7.443   0.431   1.551
 5454WAT      O16603   4.714   4.473   7.658
 5454WAT     H116604   4.650   4.449   7.585
 5454WAT     H216605   4.808   4.452   7.628
 5455WAT      O16606   4.282   9.794   4.312
 5455WAT     H116607   4.223   9.802   4.232
 5455WAT     H216608   4.300   9.697   4.331
 5456WAT      O16609   3.211   1.030   0.280
 5456WAT     H116610   3.164   1.019   0.192
 5456WAT     H216611   3.280   0.958   0.290
 5457WAT      O16612   0.594   2.699   2.526
 5457WAT     H116613   0.553   2.631   2.465
 5457WAT     H216614   0.543   2.701   2.612
 5458WAT      O16615   1.624   3.886   9.068
 5458WAT     H116616   1.585   3.976   9.051
 5458WAT     H216617   1.721   3.896   9.092
 5459WAT      O16618   1.577   6.605   4.985
 5459WAT     H116619   1.646   6.652   4.929
 5459WAT     H216620   1.493   6.658   4.985
 5460WAT      O16621   0.812   9.367   9.852
 5460WAT     H116622   0.830   9.451   9.799
 5460WAT     H216623   0.729   9.380   9.907
 5461WAT      O16624   3.294   5.381   7.873
 5461WAT     H116625   3.244   5.463   7.899
 5461WAT     H216626   3.381   5.379   7.922
 5462WAT      O16627   8.690   7.007   4.155
 5462WAT     H116628   8.640   7.072   4.212
 5462WAT     H216629   8.785   7.001   4.186
 5463WAT      O16630   4.576   2.672   5.801
 5463WAT     H116631   4.612   2.648   5.711
 5463WAT     H216632   4.566   2.590   5.857
 5464WAT      O16633   3.604   2.541   5.945
 5464WAT     H116634   3.573   2.603   6.017
 5464WAT     H216635   3.690   2.575   5.906
 5465WAT      O16636   4.890   6.494   7.811
 5465WAT     H116637   4.871   6.580   7.858
 5465WAT     H216638   4.803   6.447   7.791
 5466WAT      O16639   8.382   9.830   1.394
 5466WAT     H116640   8.448   9.894   1.355
 5466WAT     H216641   8.421   9.787   1.475
 5467WAT      O16642   2.482   5.642   5.719
 5467WAT     H116643   2.439   5.554   5.741
 5467WAT     H216644   2.557   5.658   5.783
 5468WAT      O16645   0.257   8.928   9.301
 5468WAT     H116646   0.266   8.944   9.399
 5468WAT     H216647   0.212   9.007   9.259
 5469WAT      O16648   3.721   8.106   8.948
 5469WAT     H116649   3.771   8.193   8.951
 5469WAT     H216650   3.765   8.044   8.883
 5470WAT      O16651   8.374   2.969   7.867
 5470WAT     H116652   8.426   3.053   7.882
 5470WAT     H216653   8.379   2.912   7.949
 5471WAT      O16654   8.883   3.642   5.282
 5471WAT     H116655   8.934   3.689   5.209
 5471WAT     H216656   8.789   3.626   5.252
 5472WAT      O16657   9.525   5.674   8.428
 5472WAT     H116658   9.587   5.752   8.417
 5472WAT     H216659   9.566   5.592   8.387
 5473WAT      O16660   9.169   2.109   5.171
 5473WAT     H116661   9.158   2.156   5.259
 5473WAT     H216662   9.136   2.167   5.097
 5474WAT      O16663   2.576   8.072   7.500
 5474WAT     H116664   2.662   8.121   7.516
 5474WAT     H216665   2.568   8.050   7.402
 5475WAT      O16666   1.200   0.212   4.295
 5475WAT     H116667   1.132   0.141   4.279
 5475WAT     H216668   1.278   0.198   4.235
 5476WAT      O16669   5.464   7.283   1.414
 5476WAT     H116670   5.404   7.203   1.411
 5476WAT     H216671   5.467   7.326   1.324
 5477WAT      O16672   4.772   5.105   2.612
 5477WAT     H116673   4.741   5.023   2.660
 5477WAT     H216674   4.705   5.179   2.625
 5478WAT      O16675   2.764   0.038   5.102
 5478WAT     H116676   2.805   0.066   5.188
 5478WAT     H216677   2.704   0.111   5.069
 5479WAT      O16678   0.913   3.916   7.889
 5479WAT     H116679   0.854   3.882   7.963
 5479WAT     H216680   0.879   3.882   7.802
 5480WAT      O16681   5.460   4.799   6.429
 5480WAT     H116682   5.496   4.853   6.505
 5480WAT     H216683   5.383   4.847   6.387
 5481WAT      O16684   2.307   0.761   2.178
 5481WAT     H116685   2.386   0.818   2.152
 5481WAT     H216686   2.338   0.667   2.194
 5482WAT      O16687   1.670   0.944   5.827
 5482WAT     H116688   1.668   0.930   5.728
 5482WAT     H216689   1.763   0.930   5.861
 5483WAT      O16690   9.035   5.321   5.428
 5483WAT     H116691   9.057   5.416   5.409
 5483WAT     H216692   9.107   5.281   5.486
 5484WAT      O16693   1.298   8.250   0.612
 5484WAT     H116694   1.221   8.288   0.561
 5484WAT     H216695   1.359   8.201   0.549
 5485WAT      O16696   5.392   8.037   4.957
 5485WAT     H116697   5.358   7.948   4.986
 5485WAT     H216698   5.393   8.042   4.858
 5486WAT      O16699   5.598   4.662   2.377
 5486WAT     H116700   5.596   4.566   2.350
 5486WAT     H216701   5.638   4.717   2.303
 5487WAT      O16702   9.170   0.651   2.981
 5487WAT     H116703   9.078   0.673   3.014
 5487WAT     H216704   9.167   0.566   2.928
 5488WAT      O16705   2.494   3.872   7.814
 5488WAT     H116706   2.404   3.912   7.800
 5488WAT     H216707   2.497   3.780   7.775
 5489WAT      O16708   3.830   0.815   3.598
 5489WAT     H116709   3.808   0.897   3.547
 5489WAT     H216710   3.904   0.765   3.553
 5490WAT      O16711   8.776   7.546   4.848
 5490WAT     H116712   8.760   7.448   4.844
 5490WAT     H216713   8.694   7.595   4.818
 5491WAT      O16714   7.844   8.946   3.741
 5491WAT     H116715   7.901   9.015   3.696
 5491WAT     H216716   7.835   8.968   3.838
 5492WAT      O16717   7.229   0.570   2.184
 5492WAT     H116718   7.327   0.587   2.183
 5492WAT     H216719   7.206   0.504   2.112
 5493WAT      O16720   5.397   3.749   2.291
 5493WAT     H116721   5.356   3.839   2.274
 5493WAT     H216722   5.357   3.682   2.229
 5494WAT      O16723   3.137   4.392   1.601
 5494WAT     H116724   3.075   4.390   1.523
 5494WAT     H216725   3.215   4.451   1.580
 5495WAT      O16726   0.516   4.645   4.216
 5495WAT     H116727   0.614   4.638   4.198
 5495WAT     H216728   0.466   4.641   4.129
 5496WAT      O16729   3.040   5.337   7.260
 5496WAT     H116730   3.046   5.256   7.201
 5496WAT     H216731   3.131   5.380   7.266
 5497WAT      O16732   6.420   7.198   7.227
 5497WAT     H116733   6.516   7.205   7.254
 5497WAT     H216734   6.406   7.115   7.172
 5498WAT      O16735   2.062   0.155   9.615
 5498WAT     H116736   2.022   0.151   9.524
 5498WAT     H216737   2.021   0.084   9.673
 5499WAT      O16738   2.386   0.089   9.881
 5499WAT     H116739   2.483   0.093   9.854
 5499WAT     H216740   2.355  -0.006   9.881
 5500WAT      O16741   5.220   5.446   5.295
 5500WAT     H116742   5.320   5.435   5.292
 5500WAT     H216743   5.188   5.483   5.208
 5501WAT      O16744   3.193   6.915   7.802
 5501WAT     H116745   3.188   6.850   7.878
 5501WAT     H216746   3.117   6.898   7.739
 5502WAT      O16747   0.019   6.156   1.863
 5502WAT     H116748   0.022   6.253   1.841
 5502WAT     H216749  -0.036   6.142   1.946
 5503WAT      O16750   3.559   1.139   9.592
 5503WAT     H116751   3.520   1.161   9.681
 5503WAT     H216752   3.656   1.117   9.602
 5504WAT      O16753   7.961   4.199   5.688
 5504WAT     H116754   7.895   4.157   5.751
 5504WAT     H216755   7.917   4.273   5.638
 5505WAT      O16756   1.586   2.956   9.115
 5505WAT     H116757   1.641   2.976   9.196
 5505WAT     H216758   1.547   2.865   9.122
 5506WAT      O16759   9.503   4.777   8.912
 5506WAT     H116760   9.519   4.856   8.971
 5506WAT     H216761   9.590   4.748   8.872
 5507WAT      O16762   4.660   4.005   2.474
 5507WAT     H116763   4.732   3.977   2.538
 5507WAT     H216764   4.674   4.100   2.447
 5508WAT      O16765   9.733   2.263   3.203
 5508WAT     H116766   9.701   2.356   3.216
 5508WAT     H216767   9.741   2.218   3.292
 5509WAT      O16768   9.020   6.716   4.589
 5509WAT     H116769   8.955   6.784   4.555
 5509WAT     H216770   9.099   6.713   4.528
 5510WAT      O16771   8.809   8.927   4.351
 5510WAT     H116772   8.853   9.015   4.331
 5510WAT     H216773   8.857   8.854   4.302
 5511WAT      O16774   7.371   8.483   2.478
 5511WAT     H116775   7.355   8.554   2.409
 5511WAT     H216776   7.347   8.518   2.569
 5512WAT      O16777   2.921   3.230   2.898
 5512WAT     H116778   2.928   3.269   2.806
 5512WAT     H216779   2.994   3.267   2.955
 5513WAT      O16780   1.248   7.296   8.604
 5513WAT     H116781   1.213   7.386   8.628
 5513WAT     H216782   1.306   7.262   8.679
 5514WAT      O16783   3.148   3.160   1.737
 5514WAT     H116784   3.109   3.224   1.804
 5514WAT     H216785   3.211   3.209   1.677
 5515WAT      O16786   3.202   1.158   3.271
 5515WAT     H116787   3.283   1.157   3.212
 5515WAT     H216788   3.168   1.251   3.280
 5516WAT      O16789   4.417   4.960   7.130
 5516WAT     H116790   4.507   4.969   7.173
 5516WAT     H216791   4.423   4.992   7.035
 5517WAT      O16792   8.188   5.110   1.919
 5517WAT     H116793   8.226   5.163   1.994
 5517WAT     H216794   8.209   5.156   1.832
 5518WAT      O16795   3.224   2.934   4.230
 5518WAT     H116796   3.222   2.954   4.132
 5518WAT     H216797   3.177   2.847   4.247
 5519WAT      O16798   2.867   6.635   6.303
 5519WAT     H116799   2.872   6.536   6.292
 5519WAT     H216800   2.951   6.668   6.347
 5520WAT      O16801   6.583   6.519   1.734
 5520WAT     H116802   6.560   6.603   1.684
 5520WAT     H216803   6.500   6.466   1.752
 5521WAT      O16804   3.757   2.884   4.673
 5521WAT     H116805   3.812   2.842   4.601
 5521WAT     H216806   3.754   2.983   4.659
 5522WAT      O16807   9.579   3.084   9.452
 5522WAT     H116808   9.647   3.116   9.518
 5522WAT     H216809   9.608   3.107   9.359
 5523WAT      O16810   9.432   3.657   7.380
 5523WAT     H116811   9.344   3.663   7.428
 5523WAT     H216812   9.417   3.656   7.282
 5524WAT      O16813   3.162   1.360   3.658
 5524WAT     H116814   3.157   1.269   3.615
 5524WAT     H216815   3.240   1.410   3.621
 5525WAT      O16816   2.436   7.102   7.261
 5525WAT     H116817   2.464   7.133   7.352
 5525WAT     H216818   2.380   7.019   7.270
 5526WAT      O16819   4.675   1.048   6.483
 5526WAT     H116820   4.728   0.988   6.424
 5526WAT     H216821   4.648   1.130   6.431
 5527WAT      O16822   8.664   3.944   4.577
 5527WAT     H116823   8.601   3.872   4.604
 5527WAT     H216824   8.672   4.011   4.651
 5528WAT      O16825   6.526   1.177   8.279
 5528WAT     H116826   6.567   1.210   8.364
 5528WAT     H216827   6.429   1.158   8.295
 5529WAT      O16828   6.106   8.348   7.080
 5529WAT     H116829   6.177   8.417   7.096
 5529WAT     H216830   6.118   8.309   6.989
 5530WAT      O16831   7.951   5.382   8.042
 5530WAT     H116832   8.016   5.360   7.970
 5530WAT     H216833   7.972   5.328   8.124
 5531WAT      O16834   7.977   6.787   4.701
 5531WAT     H116835   7.951   6.884   4.699
 5531WAT     H216836   7.918   6.735   4.639
 5532WAT      O16837   0.358   9.404   5.009
 5532WAT     H116838   0.319   9.496   5.008
 5532WAT     H216839   0.288   9.338   5.037
 5533WAT      O16840   9.424   5.231   9.711
 5533WAT     H116841   9.463   5.145   9.677
 5533WAT     H216842   9.497   5.291   9.743
 5534WAT      O16843   9.240   6.851   7.623
 5534WAT     H116844   9.293   6.766   7.620
 5534WAT     H216845   9.251   6.893   7.713
 5535WAT      O16846   0.218   5.385   0.671
 5535WAT     H116847   0.161   5.442   0.731
 5535WAT     H216848   0.160   5.345   0.599
 5536WAT      O16849   2.665   0.560   7.599
 5536WAT     H116850   2.585   0.516   7.640
 5536WAT     H216851   2.695   0.635   7.657
 5537WAT      O16852   1.004   6.121   4.246
 5537WAT     H116853   0.918   6.139   4.199
 5537WAT     H216854   1.035   6.029   4.224
 5538WAT      O16855   5.111   0.022   0.020
 5538WAT     H116856   5.125  -0.057   0.079
 5538WAT     H216857   5.080  -0.008  -0.070
 5539WAT      O16858   4.795   1.389   3.503
 5539WAT     H116859   4.824   1.478   3.539
 5539WAT     H216860   4.696   1.390   3.488
 5540WAT      O16861   3.464   3.147   9.538
 5540WAT     H116862   3.368   3.165   9.515
 5540WAT     H216863   3.511   3.111   9.458
 5541WAT      O16864   3.596   1.448   4.331
 5541WAT     H116865   3.508   1.408   4.304
 5541WAT     H216866   3.580   1.523   4.395
 5542WAT      O16867   3.230   4.147   3.510
 5542WAT     H116868   3.320   4.104   3.521
 5542WAT     H216869   3.168   4.082   3.466
 5543WAT      O16870   0.100   6.047   7.277
 5543WAT     H116871   0.161   6.045   7.198
 5543WAT     H216872   0.079   5.953   7.305
 5544WAT      O16873   3.417   4.298   0.892
 5544WAT     H116874   3.346   4.255   0.836
 5544WAT     H216875   3.443   4.385   0.852
 5545WAT      O16876   4.340   1.742   4.603
 5545WAT     H116877   4.407   1.806   4.567
 5545WAT     H216878   4.385   1.656   4.628
 5546WAT      O16879   9.030   0.257   5.356
 5546WAT     H116880   9.072   0.344   5.330
 5546WAT     H216881   9.085   0.213   5.427
 5547WAT      O16882   9.724   1.026   1.917
 5547WAT     H116883   9.819   1.012   1.889
 5547WAT     H216884   9.720   1.099   1.986
 5548WAT      O16885   7.835   5.898   6.504
 5548WAT     H116886   7.902   5.971   6.514
 5548WAT     H216887   7.759   5.930   6.447
 5549WAT      O16888   8.189   6.382   8.567
 5549WAT     H116889   8.175   6.407   8.471
 5549WAT     H216890   8.278   6.418   8.597
 5550WAT      O16891   8.501   3.332   6.984
 5550WAT     H116892   8.452   3.414   6.955
 5550WAT     H216893   8.443   3.278   7.046
 5551WAT      O16894   3.666   6.377   0.420
 5551WAT     H116895   3.758   6.410   0.402
 5551WAT     H216896   3.666   6.319   0.502
 5552WAT      O16897   2.701   5.332   0.409
 5552WAT     H116898   2.776   5.344   0.344
 5552WAT     H216899   2.713   5.245   0.457
 5553WAT      O16900   8.479   0.666   1.486
 5553WAT     H116901   8.477   0.566   1.496
 5553WAT     H216902   8.408   0.707   1.544
 5554WAT      O16903   1.577   8.007   7.675
 5554WAT     H116904   1.657   8.031   7.620
 5554WAT     H216905   1.571   7.908   7.684
 5555WAT      O16906   8.633   3.633   3.653
 5555WAT     H116907   8.631   3.689   3.736
 5555WAT     H216908   8.668   3.687   3.577
 5556WAT      O16909   2.848   5.617   4.783
 5556WAT     H116910   2.880   5.565   4.704
 5556WAT     H216911   2.762   5.578   4.816
 5557WAT      O16912   2.768   1.038   3.493
 5557WAT     H116913   2.685   1.074   3.536
 5557WAT     H216914   2.844   1.042   3.558
 5558WAT      O16915   1.634   9.511   6.159
 5558WAT     H116916   1.660   9.417   6.136
 5558WAT     H216917   1.554   9.537   6.106
 5559WAT      O16918   2.677   1.835   7.095
 5559WAT     H116919   2.610   1.903   7.065
 5559WAT     H216920   2.693   1.846   7.193
 5560WAT      O16921   4.002   1.129   9.421
 5560WAT     H116922   4.062   1.092   9.350
 5560WAT     H216923   3.952   1.208   9.386
 5561WAT      O16924   9.164   8.407   4.081
 5561WAT     H116925   9.226   8.355   4.140
 5561WAT     H216926   9.212   8.431   3.996
 5562WAT      O16927   8.067   0.695   0.237
 5562WAT     H116928   8.070   0.618   0.173
 5562WAT     H216929   7.994   0.681   0.303
 5563WAT      O16930   5.179   3.547   5.835
 5563WAT     H116931   5.246   3.548   5.910
 5563WAT     H216932   5.112   3.620   5.850
 5564WAT      O16933   7.430   1.110   8.489
 5564WAT     H116934   7.369   1.070   8.422
 5564WAT     H216935   7.491   1.176   8.445
 5565WAT      O16936   6.508   7.216   0.112
 5565WAT     H116937   6.486   7.286   0.044
 5565WAT     H216938   6.523   7.260   0.201
 5566WAT      O16939   3.658   0.881   6.551
 5566WAT     H116940   3.660   0.781   6.550
 5566WAT     H216941   3.578   0.914   6.502
 5567WAT      O16942   0.116   8.047   4.914
 5567WAT     H116943   0.078   7.967   4.866
 5567WAT     H216944   0.098   8.038   5.012
 5568WAT      O16945   5.467   6.285   4.925
 5568WAT     H116946   5.522   6.209   4.958
 5568WAT     H216947   5.512   6.329   4.847
 5569WAT      O16948   2.787   7.243   1.669
 5569WAT     H116949   2.805   7.311   1.598
 5569WAT     H216950   2.689   7.223   1.673
 5570WAT      O16951   9.610   4.895   8.245
 5570WAT     H116952   9.607   4.870   8.342
 5570WAT     H216953   9.539   4.846   8.195
 5571WAT      O16954   4.911   2.977   8.743
 5571WAT     H116955   4.929   3.074   8.759
 5571WAT     H216956   4.970   2.921   8.801
 5572WAT      O16957   9.489   2.497   4.817
 5572WAT     H116958   9.409   2.544   4.780
 5572WAT     H216959   9.514   2.421   4.757
 5573WAT      O16960   6.250   3.660   8.981
 5573WAT     H116961   6.193   3.717   9.041
 5573WAT     H216962   6.347   3.679   8.999
 5574WAT      O16963   6.935   6.442   2.090
 5574WAT     H116964   6.947   6.532   2.050
 5574WAT     H216965   6.862   6.394   2.043
 5575WAT      O16966   9.502   1.969   7.750
 5575WAT     H116967   9.448   1.907   7.806
 5575WAT     H216968   9.555   1.916   7.684
 5576WAT      O16969   6.709   7.458   0.620
 5576WAT     H116970   6.729   7.360   0.632
 5576WAT     H216971   6.707   7.502   0.710
 5577WAT      O16972   7.845   6.957   9.700
 5577WAT     H116973   7.944   6.948   9.704
 5577WAT     H216974   7.819   7.052   9.716
 5578WAT      O16975   3.246   8.093   6.234
 5578WAT     H116976   3.172   8.056   6.177
 5578WAT     H216977   3.215   8.101   6.328
 5579WAT      O16978   4.150   4.548   4.998
 5579WAT     H116979   4.132   4.563   5.095
 5579WAT     H216980   4.064   4.534   4.949
 5580WAT      O16981   8.212   8.610   7.779
 5580WAT     H116982   8.309   8.611   7.800
 5580WAT     H216983   8.160   8.638   7.859
 5581WAT      O16984   5.375   8.611   0.500
 5581WAT     H116985   5.403   8.649   0.588
 5581WAT     H216986   5.280   8.634   0.482
 5582WAT      O16987   9.544   2.712   3.622
 5582WAT     H116988   9.546   2.809   3.597
 5582WAT     H216989   9.457   2.672   3.593
 5583WAT      O16990   5.481   8.345   7.725
 5583WAT     H116991   5.412   8.350   7.653
 5583WAT     H216992   5.551   8.415   7.710
 5584WAT      O16993   8.300   5.304   2.081
 5584WAT     H116994   8.267   5.335   2.170
 5584WAT     H216995   8.312   5.383   2.021
 5585WAT      O16996   8.954   3.125   2.308
 5585WAT     H116997   8.952   3.217   2.269
 5585WAT     H216998   9.048   3.093   2.313
 5586WAT      O16999   8.073   6.013   2.682
 5586WAT     H117000   8.102   5.995   2.589
 5586WAT     H217001   8.153   6.018   2.742
 5587WAT      O17002   5.201   4.317   9.882
 5587WAT     H117003   5.242   4.408   9.879
 5587WAT     H217004   5.263   4.253   9.927
 5588WAT      O17005   7.491   0.111   8.121
 5588WAT     H117006   7.475   0.174   8.197
 5588WAT     H217007   7.530   0.026   8.156
 5589WAT      O17008   4.883   1.710   9.208
 5589WAT     H117009   4.980   1.712   9.234
 5589WAT     H217010   4.845   1.802   9.215
 5590WAT      O17011   3.468   6.922   9.426
 5590WAT     H117012   3.558   6.895   9.459
 5590WAT     H217013   3.407   6.843   9.424
 5591WAT      O17014   1.027   5.658   8.063
 5591WAT     H117015   0.959   5.609   8.009
 5591WAT     H217016   1.027   5.755   8.036
 5592WAT      O17017   2.700   4.444   7.328
 5592WAT     H117018   2.631   4.446   7.401
 5592WAT     H217019   2.755   4.361   7.337
 5593WAT      O17020   1.672   6.116   1.336
 5593WAT     H117021   1.680   6.017   1.324
 5593WAT     H217022   1.725   6.163   1.265
 5594WAT      O17023   5.752   9.263   6.414
 5594WAT     H117024   5.707   9.266   6.503
 5594WAT     H217025   5.782   9.169   6.395
 5595WAT      O17026   9.603   4.634   8.608
 5595WAT     H117027   9.550   4.712   8.575
 5595WAT     H217028   9.675   4.666   8.670
 5596WAT      O17029   0.834   4.218   6.816
 5596WAT     H117030   0.764   4.172   6.871
 5596WAT     H217031   0.922   4.172   6.830
 5597WAT      O17032   6.920   7.624   6.111
 5597WAT     H117033   6.972   7.563   6.052
 5597WAT     H217034   6.871   7.691   6.055
 5598WAT      O17035   7.058   7.069   6.588
 5598WAT     H117036   6.962   7.095   6.597
 5598WAT     H217037   7.089   7.087   6.495
 5599WAT      O17038   1.253   0.541   3.790
 5599WAT     H117039   1.313   0.555   3.711
 5599WAT     H217040   1.270   0.451   3.830
 5600WAT      O17041   0.034   0.931   9.692
 5600WAT     H117042   0.050   0.858   9.625
 5600WAT     H217043   0.100   0.923   9.766
 5601WAT      O17044   3.548   0.126   9.367
 5601WAT     H117045   3.594   0.153   9.452
 5601WAT     H217046   3.483   0.197   9.340
 5602WAT      O17047   3.106   8.203   5.052
 5602WAT     H117048   3.085   8.186   4.956
 5602WAT     H217049   3.200   8.236   5.060
 5603WAT      O17050   2.987   7.624   8.990
 5603WAT     H117051   2.921   7.642   8.917
 5603WAT     H217052   3.032   7.709   9.016
 5604WAT      O17053   8.705   3.852   8.836
 5604WAT     H117054   8.788   3.907   8.820
 5604WAT     H217055   8.724   3.756   8.817
 5605WAT      O17056   6.853   6.900   3.077
 5605WAT     H117057   6.901   6.814   3.062
 5605WAT     H217058   6.796   6.893   3.159
 5606WAT      O17059   2.320   2.279   5.033
 5606WAT     H117060   2.292   2.319   5.120
 5606WAT     H217061   2.281   2.188   5.023
 5607WAT      O17062   7.865   2.080   0.295
 5607WAT     H117063   7.866   2.180   0.291
 5607WAT     H217064   7.959   2.046   0.291
 5608WAT      O17065   5.508   3.954   6.043
 5608WAT     H117066   5.413   3.932   6.064
 5608WAT     H217067   5.511   4.005   5.957
 5609WAT      O17068   6.424   2.804   4.124
 5609WAT     H117069   6.384   2.869   4.189
 5609WAT     H217070   6.483   2.853   4.060
 5610WAT      O17071   1.265   2.106   1.915
 5610WAT     H117072   1.246   2.199   1.885
 5610WAT     H217073   1.284   2.105   2.013
 5611WAT      O17074   1.462   7.534   7.073
 5611WAT     H117075   1.502   7.620   7.104
 5611WAT     H217076   1.479   7.523   6.975
 5612WAT      O17077   6.799   9.396   4.612
 5612WAT     H117078   6.702   9.413   4.627
 5612WAT     H217079   6.810   9.329   4.539
 5613WAT      O17080   3.620   2.699   9.043
 5613WAT     H117081   3.642   2.639   8.966
 5613WAT     H217082   3.571   2.780   9.009
 5614WAT      O17083   2.231   0.395   0.856
 5614WAT     H117084   2.287   0.324   0.899
 5614WAT     H217085   2.223   0.473   0.918
 5615WAT      O17086   4.445   4.529   0.421
 5615WAT     H117087   4.413   4.615   0.460
 5615WAT     H217088   4.540   4.514   0.448
 5616WAT      O17089   7.910   4.672   6.181
 5616WAT     H117090   7.847   4.613   6.131
 5616WAT     H217091   7.860   4.749   6.221
 5617WAT      O17092   6.617   0.298   4.238
 5617WAT     H117093   6.583   0.266   4.150
 5617WAT     H217094   6.548   0.282   4.308
 5618WAT      O17095   4.351   0.926   1.602
 5618WAT     H117096   4.414   0.971   1.665
 5618WAT     H217097   4.388   0.837   1.577
 5619WAT      O17098   1.594   4.549   5.806
 5619WAT     H117099   1.657   4.598   5.747
 5619WAT     H217100   1.602   4.583   5.900
 5620WAT      O17101   2.732   5.895   7.529
 5620WAT     H117102   2.773   5.813   7.568
 5620WAT     H217103   2.698   5.953   7.603
 5621WAT      O17104   5.504   1.349   6.693
 5621WAT     H117105   5.585   1.297   6.719
 5621WAT     H217106   5.531   1.439   6.658
 5622WAT      O17107   0.699   1.908   0.719
 5622WAT     H117108   0.732   1.985   0.774
 5622WAT     H217109   0.615   1.871   0.759
 5623WAT      O17110   4.785   8.701   0.368
 5623WAT     H117111   4.730   8.732   0.445
 5623WAT     H217112   4.780   8.602   0.361
 5624WAT      O17113   1.479   9.092   7.171
 5624WAT     H117114   1.411   9.040   7.119
 5624WAT     H217115   1.439   9.178   7.202
 5625WAT      O17116   8.155   0.824   9.826
 5625WAT     H117117   8.160   0.923   9.810
 5625WAT     H217118   8.228   0.797   9.888
 5626WAT      O17119   1.114   6.423   8.830
 5626WAT     H117120   1.131   6.358   8.905
 5626WAT     H217121   1.200   6.459   8.797
 5627WAT      O17122   0.612   0.646   0.702
 5627WAT     H117123   0.643   0.619   0.611
 5627WAT     H217124   0.668   0.600   0.771
 5628WAT      O17125   3.738   5.832   3.173
 5628WAT     H117126   3.796   5.878   3.240
 5628WAT     H217127   3.795   5.787   3.104
 5629WAT      O17128   5.171   5.646   6.073
 5629WAT     H117129   5.238   5.607   6.010
 5629WAT     H217130   5.081   5.606   6.055
 5630WAT      O17131   4.272   6.993   3.475
 5630WAT     H117132   4.181   6.999   3.516
 5630WAT     H217133   4.272   6.923   3.404
 5631WAT      O17134   6.732   1.595   9.788
 5631WAT     H117135   6.667   1.583   9.713
 5631WAT     H217136   6.727   1.516   9.849
 5632WAT      O17137   3.162   7.283   3.460
 5632WAT     H117138   3.236   7.319   3.516
 5632WAT     H217139   3.094   7.238   3.519
 5633WAT      O17140   5.611   6.698   1.474
 5633WAT     H117141   5.633   6.617   1.419
 5633WAT     H217142   5.545   6.755   1.425
 5634WAT      O17143   6.602   8.685   2.998
 5634WAT     H117144   6.536   8.631   3.050
 5634WAT     H217145   6.618   8.773   3.044
 5635WAT      O17146   5.615   3.881   8.094
 5635WAT     H117147   5.656   3.832   8.171
 5635WAT     H217148   5.639   3.978   8.098
 5636WAT      O17149   9.419   0.421   1.860
 5636WAT     H117150   9.372   0.449   1.776
 5636WAT     H217151   9.473   0.339   1.842
 5637WAT      O17152   8.304   7.798   6.371
 5637WAT     H117153   8.214   7.822   6.408
 5637WAT     H217154   8.323   7.702   6.390
 5638WAT      O17155   6.179   8.272   7.558
 5638WAT     H117156   6.128   8.194   7.523
 5638WAT     H217157   6.153   8.289   7.654
 5639WAT      O17158   5.798   4.006   1.254
 5639WAT     H117159   5.757   3.942   1.189
 5639WAT     H217160   5.876   3.964   1.299
 5640WAT      O17161   8.423   8.564   2.445
 5640WAT     H117162   8.372   8.649   2.456
 5640WAT     H217163   8.366   8.495   2.400
 5641WAT      O17164   5.065   6.028   4.034
 5641WAT     H117165   5.107   6.069   3.953
 5641WAT     H217166   4.983   5.978   4.007
 5642WAT      O17167   5.069   7.022   4.353
 5642WAT     H117168   5.022   7.106   4.325
 5642WAT     H217169   5.071   6.957   4.277
 5643WAT      O17170   4.896   2.943   0.753
 5643WAT     H117171   4.950   2.943   0.837
 5643WAT     H217172   4.957   2.937   0.674
 5644WAT      O17173   2.722   1.246   5.680
 5644WAT     H117174   2.666   1.185   5.624
 5644WAT     H217175   2.737   1.332   5.631
 5645WAT      O17176   9.726   2.755   1.512
 5645WAT     H117177   9.730   2.708   1.601
 5645WAT     H217178   9.807   2.813   1.502
 5646WAT      O17179   8.262   3.133   0.278
 5646WAT     H117180   8.345   3.165   0.323
 5646WAT     H217181   8.255   3.174   0.187
 5647WAT      O17182   5.290   1.559   0.517
 5647WAT     H117183   5.220   1.490   0.533
 5647WAT     H217184   5.358   1.555   0.590
 5648WAT      O17185   8.618   6.234   1.972
 5648WAT     H117186   8.634   6.282   1.886
 5648WAT     H217187   8.538   6.175   1.963
 5649WAT      O17188   9.541   1.472   1.531
 5649WAT     H117189   9.533   1.507   1.624
 5649WAT     H217190   9.479   1.394   1.519
 5650WAT      O17191   8.112   0.009   7.062
 5650WAT     H117192   8.088   0.061   7.144
 5650WAT     H217193   8.072   0.054   6.982
 5651WAT      O17194   1.380   9.046   1.237
 5651WAT     H117195   1.393   8.954   1.200
 5651WAT     H217196   1.409   9.114   1.170
 5652WAT      O17197   2.709   4.071   4.045
 5652WAT     H117198   2.655   4.035   3.968
 5652WAT     H217199   2.669   4.157   4.077
 5653WAT      O17200   9.316   2.546   0.429
 5653WAT     H117201   9.285   2.454   0.404
 5653WAT     H217202   9.405   2.564   0.387
 5654WAT      O17203   2.669   5.009   8.345
 5654WAT     H117204   2.580   4.962   8.341
 5654WAT     H217205   2.703   5.009   8.439
 5655WAT      O17206   6.362   9.177   6.085
 5655WAT     H117207   6.391   9.082   6.099
 5655WAT     H217208   6.362   9.226   6.172
 5656WAT      O17209   4.260   4.348   3.164
 5656WAT     H117210   4.223   4.270   3.214
 5656WAT     H217211   4.305   4.316   3.080
 5657WAT      O17212   1.750   5.279   8.518
 5657WAT     H117213   1.775   5.183   8.531
 5657WAT     H217214   1.698   5.311   8.597
 5658WAT      O17215   3.260   9.626   2.801
 5658WAT     H117216   3.213   9.664   2.881
 5658WAT     H217217   3.217   9.540   2.774
 5659WAT      O17218   5.363   1.974   7.547
 5659WAT     H117219   5.266   2.001   7.544
 5659WAT     H217220   5.382   1.910   7.473
 5660WAT      O17221   9.057   2.801   3.463
 5660WAT     H117222   9.083   2.771   3.371
 5660WAT     H217223   9.009   2.727   3.510
 5661WAT      O17224   2.826   5.318   6.156
 5661WAT     H117225   2.820   5.301   6.254
 5661WAT     H217226   2.890   5.253   6.115
 5662WAT      O17227   2.470   5.475   8.291
 5662WAT     H117228   2.500   5.568   8.307
 5662WAT     H217229   2.416   5.471   8.207
 5663WAT      O17230   8.566   3.338   3.089
 5663WAT     H117231   8.649   3.335   3.032
 5663WAT     H217232   8.591   3.357   3.184
 5664WAT      O17233   1.782   2.287   8.324
 5664WAT     H117234   1.716   2.272   8.398
 5664WAT     H217235   1.818   2.198   8.295
 5665WAT      O17236   1.905   7.471   2.960
 5665WAT     H117237   1.963   7.405   3.007
 5665WAT     H217238   1.823   7.488   3.015
 5666WAT      O17239   9.808   8.049   9.195
 5666WAT     H117240   9.785   7.952   9.193
 5666WAT     H217241   9.762   8.093   9.272
 5667WAT      O17242   0.332   5.137   3.155
 5667WAT     H117243   0.243   5.107   3.122
 5667WAT     H217244   0.402   5.114   3.087
 5668WAT      O17245   2.041   1.568   1.988
 5668WAT     H117246   1.993   1.512   1.921
 5668WAT     H217247   2.055   1.515   2.072
 5669WAT      O17248   0.526   8.990   0.345
 5669WAT     H117249   0.608   9.010   0.291
 5669WAT     H217250   0.529   8.895   0.376
 5670WAT      O17251   2.333   8.941   8.575
 5670WAT     H117252   2.330   8.841   8.582
 5670WAT     H217253   2.402   8.968   8.508
 5671WAT      O17254   1.749   2.662   3.982
 5671WAT     H117255   1.757   2.564   3.964
 5671WAT     H217256   1.709   2.708   3.903
 5672WAT      O17257   1.895   3.659   1.936
 5672WAT     H117258   1.964   3.623   1.999
 5672WAT     H217259   1.939   3.722   1.872
 5673WAT      O17260   3.746   7.316   3.300
 5673WAT     H117261   3.671   7.381   3.290
 5673WAT     H217262   3.714   7.237   3.353
 5674WAT      O17263   8.617   1.341   9.292
 5674WAT     H117264   8.652   1.358   9.384
 5674WAT     H217265   8.580   1.248   9.286
 5675WAT      O17266   0.052   6.171   8.097
 5675WAT     H117267   0.092   6.079   8.095
 5675WAT     H217268   0.122   6.238   8.119
 5676WAT      O17269   2.780   8.879   8.131
 5676WAT     H117270   2.727   8.919   8.206
 5676WAT     H217271   2.801   8.784   8.151
 5677WAT      O17272   3.240   5.178   6.180
 5677WAT     H117273   3.302   5.255   6.168
 5677WAT     H217274   3.176   5.175   6.104
 5678WAT      O17275   6.430   7.663   0.690
 5678WAT     H117276   6.483   7.626   0.614
 5678WAT     H217277   6.336   7.682   0.659
 5679WAT      O17278   8.900   0.339   0.539
 5679WAT     H117279   8.826   0.369   0.478
 5679WAT     H217280   8.979   0.399   0.527
 5680WAT      O17281   7.899   9.079   0.372
 5680WAT     H117282   7.802   9.102   0.375
 5680WAT     H217283   7.910   8.990   0.328
 5681WAT      O17284   0.470   5.837   5.259
 5681WAT     H117285   0.465   5.767   5.188
 5681WAT     H217286   0.455   5.795   5.348
 5682WAT      O17287   4.403   0.059   7.432
 5682WAT     H117288   4.357   0.119   7.496
 5682WAT     H217289   4.385  -0.036   7.456
 5683WAT      O17290   2.242   9.779   3.830
 5683WAT     H117291   2.230   9.789   3.731
 5683WAT     H217292   2.184   9.704   3.863
 5684WAT      O17293   6.787   2.578   8.413
 5684WAT     H117294   6.772   2.675   8.390
 5684WAT     H217295   6.790   2.525   8.328
 5685WAT      O17296   3.181   3.705   5.444
 5685WAT     H117297   3.175   3.667   5.352
 5685WAT     H217298   3.235   3.790   5.442
 5686WAT      O17299   2.878   5.345   0.224
 5686WAT     H117300   2.873   5.361   0.125
 5686WAT     H217301   2.970   5.370   0.257
 5687WAT      O17302   2.740   1.821   0.582
 5687WAT     H117303   2.778   1.816   0.674
 5687WAT     H217304   2.649   1.862   0.585
 5688WAT      O17305   8.863   8.185   6.256
 5688WAT     H117306   8.860   8.133   6.342
 5688WAT     H217307   8.872   8.282   6.276
 5689WAT      O17308   4.442   5.055   4.701
 5689WAT     H117309   4.461   5.144   4.661
 5689WAT     H217310   4.502   4.986   4.660
 5690WAT      O17311   0.865   8.785   2.142
 5690WAT     H117312   0.897   8.784   2.047
 5690WAT     H217313   0.817   8.699   2.161
 5691WAT      O17314   9.122   3.033   8.582
 5691WAT     H117315   9.082   3.028   8.491
 5691WAT     H217316   9.157   3.126   8.598
 5692WAT      O17317   3.512   1.750   1.039
 5692WAT     H117318   3.595   1.723   0.991
 5692WAT     H217319   3.537   1.790   1.128
 5693WAT      O17320   1.414   1.811   5.743
 5693WAT     H117321   1.456   1.788   5.656
 5693WAT     H217322   1.404   1.729   5.799
 5694WAT      O17323   2.767   6.932   6.973
 5694WAT     H117324   2.761   6.845   7.022
 5694WAT     H217325   2.775   6.914   6.875
 5695WAT      O17326   7.651   5.786   7.082
 5695WAT     H117327   7.594   5.772   7.001
 5695WAT     H217328   7.592   5.801   7.162
 5696WAT      O17329   5.861   9.602   8.654
 5696WAT     H117330   5.839   9.681   8.712
 5696WAT     H217331   5.921   9.631   8.580
 5697WAT      O17332   0.853   3.452   0.541
 5697WAT     H117333   0.855   3.498   0.452
 5697WAT     H217334   0.867   3.520   0.613
 5698WAT      O17335   2.206   4.410   0.712
 5698WAT     H117336   2.226   4.467   0.632
 5698WAT     H217337   2.267   4.331   0.714
 5699WAT      O17338   6.819   0.986   0.453
 5699WAT     H117339   6.728   0.943   0.456
 5699WAT     H217340   6.813   1.080   0.486
 5700WAT      O17341   5.926   3.263   2.077
 5700WAT     H117342   5.887   3.300   2.162
 5700WAT     H217343   5.853   3.219   2.024
 5701WAT      O17344   7.722   2.963   1.358
 5701WAT     H117345   7.653   3.036   1.361
 5701WAT     H217346   7.800   2.989   1.415
 5702WAT      O17347   0.087   7.586   6.007
 5702WAT     H117348   0.166   7.541   6.048
 5702WAT     H217349   0.103   7.685   6.003
 5703WAT      O17350   5.558   8.939   3.805
 5703WAT     H117351   5.645   8.933   3.854
 5703WAT     H217352   5.532   9.036   3.794
 5704WAT      O17353   9.652   0.471   8.077
 5704WAT     H117354   9.730   0.491   8.135
 5704WAT     H217355   9.569   0.466   8.133
 5705WAT      O17356   5.695   1.308   8.967
 5705WAT     H117357   5.665   1.342   9.056
 5705WAT     H217358   5.701   1.383   8.902
 5706WAT      O17359   9.405   7.445   0.893
 5706WAT     H117360   9.366   7.500   0.967
 5706WAT     H217361   9.372   7.351   0.900
 5707WAT      O17362   0.027   5.517   0.316
 5707WAT     H117363   0.004   5.435   0.368
 5707WAT     H217364  -0.056   5.570   0.299
 5708WAT      O17365   1.457   0.108   0.290
 5708WAT     H117366   1.431   0.043   0.218
 5708WAT     H217367   1.520   0.175   0.254
 5709WAT      O17368   5.058   7.817   1.580
 5709WAT     H117369   5.044   7.737   1.637
 5709WAT     H217370   5.096   7.789   1.491
 5710WAT      O17371   4.741   4.278   2.083
 5710WAT     H117372   4.838   4.296   2.097
 5710WAT     H217373   4.703   4.345   2.020
 5711WAT      O17374   1.811   6.789   5.143
 5711WAT     H117375   1.769   6.804   5.054
 5711WAT     H217376   1.861   6.703   5.143
 5712WAT      O17377   6.045   8.044   8.304
 5712WAT     H117378   6.000   8.016   8.389
 5712WAT     H217379   5.978   8.050   8.231
 5713WAT      O17380   4.966   1.280   0.294
 5713WAT     H117381   5.050   1.284   0.240
 5713WAT     H217382   4.898   1.340   0.253
 5714WAT      O17383   6.415   3.111   8.560
 5714WAT     H117384   6.483   3.158   8.617
 5714WAT     H217385   6.330   3.164   8.558
 5715WAT      O17386   4.884   3.467   5.427
 5715WAT     H117387   4.956   3.527   5.462
 5715WAT     H217388   4.924   3.395   5.371
 5716WAT      O17389   5.490   4.402   8.068
 5716WAT     H117390   5.439   4.415   7.983
 5716WAT     H217391   5.452   4.460   8.140
 5717WAT      O17392   5.481   2.807   2.388
 5717WAT     H117393   5.399   2.770   2.343
 5717WAT     H217394   5.561   2.754   2.361
 5718WAT      O17395   3.673   1.598   5.244
 5718WAT     H117396   3.616   1.536   5.299
 5718WAT     H217397   3.614   1.652   5.183
 5719WAT      O17398   1.456   7.231   7.694
 5719WAT     H117399   1.515   7.166   7.743
 5719WAT     H217400   1.434   7.195   7.604
 5720WAT      O17401   6.990   3.522   0.843
 5720WAT     H117402   7.065   3.459   0.867
 5720WAT     H217403   6.969   3.579   0.922
 5721WAT      O17404   0.512   8.411   2.478
 5721WAT     H117405   0.526   8.510   2.481
 5721WAT     H217406   0.509   8.376   2.572
 5722WAT      O17407   2.126   7.242   0.822
 5722WAT     H117408   2.093   7.257   0.728
 5722WAT     H217409   2.155   7.329   0.861
 5723WAT      O17410   3.551   6.437   7.001
 5723WAT     H117411   3.546   6.436   7.101
 5723WAT     H217412   3.599   6.356   6.970
 5724WAT      O17413   8.277   5.995   0.103
 5724WAT     H117414   8.276   5.931   0.026
 5724WAT     H217415   8.347   5.967   0.168
 5725WAT      O17416   8.101   9.360   7.720
 5725WAT     H117417   8.165   9.415   7.666
 5725WAT     H217418   8.045   9.420   7.777
 5726WAT      O17419   9.682   3.914   4.862
 5726WAT     H117420   9.658   3.898   4.957
 5726WAT     H217421   9.650   3.839   4.805
 5727WAT      O17422   8.849   0.299   4.423
 5727WAT     H117423   8.846   0.395   4.451
 5727WAT     H217424   8.814   0.290   4.330
 5728WAT      O17425   0.192   7.580   4.352
 5728WAT     H117426   0.211   7.483   4.362
 5728WAT     H217427   0.117   7.606   4.413
 5729WAT      O17428   5.272   0.594   7.505
 5729WAT     H117429   5.319   0.644   7.577
 5729WAT     H217430   5.200   0.538   7.546
 5730WAT      O17431   5.048   8.857   5.114
 5730WAT     H117432   5.145   8.846   5.134
 5730WAT     H217433   4.997   8.779   5.150
 5731WAT      O17434   4.074   2.403   1.176
 5731WAT     H117435   4.162   2.358   1.192
 5731WAT     H217436   4.000   2.345   1.209
 5732WAT      O17437   8.742   5.360   5.491
 5732WAT     H117438   8.726   5.264   5.467
 5732WAT     H217439   8.824   5.393   5.444
 5733WAT      O17440   9.649   5.966   9.577
 5733WAT     H117441   9.653   6.038   9.508
 5733WAT     H217442   9.643   5.877   9.532
 5734WAT      O17443   2.493   1.495   5.528
 5734WAT     H117444   2.438   1.435   5.586
 5734WAT     H217445   2.478   1.472   5.432
 5735WAT      O17446   5.604   9.348   1.650
 5735WAT     H117447   5.589   9.439   1.612
 5735WAT     H217448   5.698   9.342   1.686
 5736WAT      O17449   3.467   0.210   8.889
 5736WAT     H117450   3.472   0.113   8.912
 5736WAT     H217451   3.552   0.238   8.846
 5737WAT      O17452   5.900   7.557   1.620
 5737WAT     H117453   5.938   7.561   1.712
 5737WAT     H217454   5.853   7.469   1.608
 5738WAT      O17455   3.159   0.203   7.900
 5738WAT     H117456   3.154   0.115   7.852
 5738WAT     H217457   3.215   0.193   7.982
 5739WAT      O17458   8.215   3.831   2.426
 5739WAT     H117459   8.200   3.850   2.523
 5739WAT     H217460   8.294   3.771   2.416
 5740WAT      O17461   2.891   7.874   0.435
 5740WAT     H117462   2.932   7.965   0.442
 5740WAT     H217463   2.931   7.825   0.357
 5741WAT      O17464   3.962   2.233   2.109
 5741WAT     H117465   3.893   2.303   2.131
 5741WAT     H217466   4.044   2.249   2.163
 5742WAT      O17467   6.732   0.095   1.795
 5742WAT     H117468   6.830   0.098   1.776
 5742WAT     H217469   6.699   0.000   1.786
 5743WAT      O17470   7.330   8.186   9.067
 5743WAT     H117471   7.390   8.157   9.142
 5743WAT     H217472   7.385   8.206   8.986
 5744WAT      O17473   0.272   1.145   8.571
 5744WAT     H117474   0.281   1.239   8.538
 5744WAT     H217475   0.175   1.126   8.590
 5745WAT      O17476   6.370   8.741   4.584
 5745WAT     H117477   6.300   8.801   4.621
 5745WAT     H217478   6.329   8.679   4.517
 5746WAT      O17479   0.327   8.049   3.483
 5746WAT     H117480   0.284   8.078   3.397
 5746WAT     H217481   0.427   8.055   3.473
 5747WAT      O17482   5.565   6.263   3.406
 5747WAT     H117483   5.601   6.283   3.315
 5747WAT     H217484   5.636   6.277   3.475
 5748WAT      O17485   9.480   6.772   4.253
 5748WAT     H117486   9.491   6.867   4.281
 5748WAT     H217487   9.526   6.756   4.166
 5749WAT      O17488   6.615   4.998   8.906
 5749WAT     H117489   6.710   4.971   8.890
 5749WAT     H217490   6.610   5.053   8.989
 5750WAT      O17491   6.707   3.616   2.160
 5750WAT     H117492   6.708   3.631   2.061
 5750WAT     H217493   6.622   3.570   2.186
 5751WAT      O17494   0.258   6.028   1.011
 5751WAT     H117495   0.354   6.046   1.028
 5751WAT     H217496   0.202   6.074   1.080
 5752WAT      O17497   5.144   2.948   0.614
 5752WAT     H117498   5.201   3.028   0.595
 5752WAT     H217499   5.200   2.876   0.655
 5753WAT      O17500   5.526   4.811   9.394
 5753WAT     H117501   5.491   4.827   9.486
 5753WAT     H217502   5.449   4.797   9.331
 5754WAT      O17503   0.321   7.454   3.841
 5754WAT     H117504   0.395   7.463   3.775
 5754WAT     H217505   0.327   7.364   3.885
 5755WAT      O17506   5.539   7.201   7.933
 5755WAT     H117507   5.626   7.245   7.911
 5755WAT     H217508   5.543   7.105   7.907
 5756WAT      O17509   9.106   2.803   4.619
 5756WAT     H117510   9.134   2.800   4.523
 5756WAT     H217511   9.119   2.896   4.654
 5757WAT      O17512   7.105   4.950   4.242
 5757WAT     H117513   7.063   5.040   4.257
 5757WAT     H217514   7.130   4.909   4.329
 5758WAT      O17515   2.307   7.449   3.430
 5758WAT     H117516   2.314   7.435   3.529
 5758WAT     H217517   2.375   7.392   3.384
 5759WAT      O17518   9.173   2.121   2.920
 5759WAT     H117519   9.075   2.111   2.938
 5759WAT     H217520   9.224   2.095   3.001
 5760WAT      O17521   9.439   5.818   0.066
 5760WAT     H117522   9.418   5.892   0.002
 5760WAT     H217523   9.538   5.809   0.075
 5761WAT      O17524   7.992   2.070   9.405
 5761WAT     H117525   8.087   2.055   9.377
 5761WAT     H217526   7.940   1.985   9.395
 5762WAT      O17527   7.541   3.970   4.845
 5762WAT     H117528   7.483   4.050   4.857
 5762WAT     H217529   7.529   3.933   4.753
 5763WAT      O17530   3.275   3.096   7.917
 5763WAT     H117531   3.278   3.028   7.990
 5763WAT     H217532   3.228   3.058   7.837
 5764WAT      O17533   0.960   4.848   0.979
 5764WAT     H117534   0.973   4.817   0.885
 5764WAT     H217535   1.042   4.827   1.032
 5765WAT      O17536   7.567   9.560   4.096
 5765WAT     H117537   7.516   9.610   4.026
 5765WAT     H217538   7.665   9.580   4.087
 5766WAT      O17539   7.155   7.164   5.088
 5766WAT     H117540   7.210   7.149   5.170
 5766WAT     H217541   7.086   7.234   5.106
 5767WAT      O17542   4.777   8.061   4.478
 5767WAT     H117543   4.685   8.044   4.445
 5767WAT     H217544   4.787   8.158   4.502
 5768WAT      O17545   0.851   8.343   4.452
 5768WAT     H117546   0.932   8.399   4.466
 5768WAT     H217547   0.770   8.402   4.444
 5769WAT      O17548   1.989   0.592   9.352
 5769WAT     H117549   2.033   0.528   9.414
 5769WAT     H217550   2.046   0.675   9.344
 5770WAT      O17551   1.577   9.778   7.024
 5770WAT     H117552   1.604   9.822   7.109
 5770WAT     H217553   1.611   9.831   6.946
 5771WAT      O17554   6.649   2.555   7.545
 5771WAT     H117555   6.708   2.477   7.523
 5771WAT     H217556   6.706   2.633   7.572
 5772WAT      O17557   0.541   9.416   7.701
 5772WAT     H117558   0.626   9.435   7.652
 5772WAT     H217559   0.539   9.470   7.785
 5773WAT      O17560   2.407   7.695   6.847
 5773WAT     H117561   2.341   7.669   6.918
 5773WAT     H217562   2.500   7.688   6.883
 5774WAT      O17563   6.582   4.654   5.479
 5774WAT     H117564   6.525   4.673   5.559
 5774WAT     H217565   6.589   4.555   5.466
 5775WAT      O17566   3.489   6.756   3.066
 5775WAT     H117567   3.455   6.692   3.135
 5775WAT     H217568   3.581   6.785   3.091
 5776WAT      O17569   3.358   8.604   2.965
 5776WAT     H117570   3.377   8.612   3.063
 5776WAT     H217571   3.261   8.582   2.952
 5777WAT      O17572   9.603   6.449   6.847
 5777WAT     H117573   9.679   6.511   6.870
 5777WAT     H217574   9.541   6.442   6.925
 5778WAT      O17575   0.190   1.064   3.130
 5778WAT     H117576   0.269   1.118   3.160
 5778WAT     H217577   0.140   1.115   3.060
 5779WAT      O17578   3.276   1.714   8.532
 5779WAT     H117579   3.252   1.810   8.522
 5779WAT     H217580   3.193   1.659   8.537
 5780WAT      O17581   7.829   2.031   1.302
 5780WAT     H117582   7.767   2.100   1.339
 5780WAT     H217583   7.840   2.045   1.203
 5781WAT      O17584   6.974   3.152   5.319
 5781WAT     H117585   7.015   3.157   5.228
 5781WAT     H217586   7.035   3.193   5.386
 5782WAT      O17587   3.403   2.353   6.295
 5782WAT     H117588   3.500   2.343   6.278
 5782WAT     H217589   3.383   2.448   6.319
 5783WAT      O17590   9.721   7.413   0.986
 5783WAT     H117591   9.812   7.451   0.973
 5783WAT     H217592   9.663   7.481   1.032
 5784WAT      O17593   7.398   0.807   6.435
 5784WAT     H117594   7.327   0.752   6.479
 5784WAT     H217595   7.372   0.903   6.436
 5785WAT      O17596   4.530   1.589   5.773
 5785WAT     H117597   4.513   1.685   5.755
 5785WAT     H217598   4.522   1.536   5.688
 5786WAT      O17599   2.069   0.464   8.890
 5786WAT     H117600   2.167   0.441   8.889
 5786WAT     H217601   2.058   0.563   8.887
 5787WAT      O17602   7.972   2.613   4.268
 5787WAT     H117603   7.917   2.531   4.251
 5787WAT     H217604   7.917   2.694   4.253
 5788WAT      O17605   5.567   6.936   7.865
 5788WAT     H117606   5.626   6.902   7.938
 5788WAT     H217607   5.560   6.867   7.792
 5789WAT      O17608   3.443   9.622   4.443
 5789WAT     H117609   3.347   9.651   4.447
 5789WAT     H217610   3.469   9.603   4.349
 5790WAT      O17611   2.844   4.712   0.730
 5790WAT     H117612   2.940   4.690   0.746
 5790WAT     H217613   2.787   4.633   0.752
 5791WAT      O17614   5.531   3.821   2.944
 5791WAT     H117615   5.582   3.751   2.993
 5791WAT     H217616   5.434   3.798   2.945
 5792WAT      O17617   1.284   3.070   4.257
 5792WAT     H117618   1.271   3.168   4.268
 5792WAT     H217619   1.376   3.052   4.221
 5793WAT      O17620   7.067   8.513   3.186
 5793WAT     H117621   7.032   8.502   3.093
 5793WAT     H217622   7.028   8.596   3.226
 5794WAT      O17623   4.820   9.344   0.158
 5794WAT     H117624   4.894   9.395   0.113
 5794WAT     H217625   4.834   9.343   0.257
 5795WAT      O17626   2.255   6.754   3.714
 5795WAT     H117627   2.293   6.843   3.738
 5795WAT     H217628   2.179   6.733   3.776
 5796WAT      O17629   7.420   3.869   8.256
 5796WAT     H117630   7.403   3.922   8.339
 5796WAT     H217631   7.480   3.792   8.276
 5797WAT      O17632   5.586   7.481   9.646
 5797WAT     H117633   5.675   7.526   9.656
 5797WAT     H217634   5.593   7.410   9.576
 5798WAT      O17635   4.021   0.084   7.989
 5798WAT     H117636   4.111   0.055   7.955
 5798WAT     H217637   4.004   0.043   8.078
 5799WAT      O17638   5.507   4.227   7.526
 5799WAT     H117639   5.501   4.166   7.448
 5799WAT     H217640   5.550   4.179   7.603
 5800WAT      O17641   9.628   4.007   7.749
 5800WAT     H117642   9.548   4.017   7.807
 5800WAT     H217643   9.691   4.084   7.765
 5801WAT      O17644   0.186   8.439   5.338
 5801WAT     H117645   0.197   8.374   5.263
 5801WAT     H217646   0.143   8.522   5.303
 5802WAT      O17647   4.559   7.294   9.059
 5802WAT     H117648   4.590   7.305   9.153
 5802WAT     H217649   4.521   7.380   9.025
 5803WAT      O17650   7.307   9.661   8.093
 5803WAT     H117651   7.367   9.637   8.170
 5803WAT     H217652   7.288   9.578   8.040
 5804WAT      O17653   5.997   3.648   7.609
 5804WAT     H117654   6.058   3.704   7.666
 5804WAT     H217655   5.913   3.629   7.660
 5805WAT      O17656   7.282   1.959   5.304
 5805WAT     H117657   7.203   1.909   5.269
 5805WAT     H217658   7.292   1.942   5.402
 5806WAT      O17659   3.110   3.965   2.555
 5806WAT     H117660   3.063   4.009   2.478
 5806WAT     H217661   3.199   3.931   2.524
 5807WAT      O17662   9.463   6.983   1.258
 5807WAT     H117663   9.513   7.046   1.199
 5807WAT     H217664   9.520   6.903   1.277
 5808WAT      O17665   9.857   1.955   6.784
 5808WAT     H117666   9.914   2.032   6.755
 5808WAT     H217667   9.795   1.930   6.710
 5809WAT      O17668   5.288   1.104   7.959
 5809WAT     H117669   5.244   1.056   7.883
 5809WAT     H217670   5.235   1.088   8.043
 5810WAT      O17671   6.949   0.683   4.294
 5810WAT     H117672   6.864   0.632   4.302
 5810WAT     H217673   6.941   0.768   4.347
 5811WAT      O17674   0.086   4.431   0.419
 5811WAT     H117675   0.170   4.428   0.364
 5811WAT     H217676   0.019   4.490   0.374
 5812WAT      O17677   6.557   6.274   0.651
 5812WAT     H117678   6.502   6.306   0.728
 5812WAT     H217679   6.624   6.207   0.682
 5813WAT      O17680   9.147   1.575   9.144
 5813WAT     H117681   9.095   1.603   9.225
 5813WAT     H217682   9.084   1.564   9.067
 5814WAT      O17683   8.984   1.692   3.005
 5814WAT     H117684   8.927   1.610   2.999
 5814WAT     H217685   9.029   1.708   2.917
 5815WAT      O17686   0.757   7.911   6.408
 5815WAT     H117687   0.750   7.854   6.327
 5815WAT     H217688   0.834   7.879   6.465
 5816WAT      O17689   8.135   7.898   0.782
 5816WAT     H117690   8.233   7.918   0.793
 5816WAT     H217691   8.124   7.808   0.741
 5817WAT      O17692   0.914   3.333   5.341
 5817WAT     H117693   0.923   3.234   5.334
 5817WAT     H217694   0.932   3.375   5.252
 5818WAT      O17695   8.719   1.048   1.039
 5818WAT     H117696   8.707   1.119   0.969
 5818WAT     H217697   8.656   0.973   1.022
 5819WAT      O17698   6.762   1.141   5.454
 5819WAT     H117699   6.848   1.094   5.435
 5819WAT     H217700   6.706   1.084   5.515
 5820WAT      O17701   8.559   4.850   2.478
 5820WAT     H117702   8.506   4.920   2.431
 5820WAT     H217703   8.605   4.890   2.557
 5821WAT      O17704   1.416   7.930   6.201
 5821WAT     H117705   1.362   8.010   6.224
 5821WAT     H217706   1.355   7.856   6.170
 5822WAT      O17707   7.996   5.591   7.601
 5822WAT     H117708   7.937   5.606   7.522
 5822WAT     H217709   8.047   5.675   7.622
 5823WAT      O17710   0.344   6.439   1.049
 5823WAT     H117711   0.324   6.344   1.074
 5823WAT     H217712   0.425   6.469   1.098
 5824WAT      O17713   6.223   8.013   0.800
 5824WAT     H117714   6.293   8.080   0.775
 5824WAT     H217715   6.231   7.992   0.898
 5825WAT      O17716   0.588   2.719   5.396
 5825WAT     H117717   0.642   2.715   5.480
 5825WAT     H217718   0.522   2.793   5.402
 5826WAT      O17719   2.550   4.462   3.364
 5826WAT     H117720   2.451   4.453   3.373
 5826WAT     H217721   2.588   4.376   3.330
 5827WAT      O17722   8.602   4.682   6.267
 5827WAT     H117723   8.528   4.615   6.259
 5827WAT     H217724   8.690   4.634   6.266
 5828WAT      O17725   6.876   7.276   5.424
 5828WAT     H117726   6.951   7.249   5.485
 5828WAT     H217727   6.854   7.372   5.439
 5829WAT      O17728   7.685   6.059   0.467
 5829WAT     H117729   7.710   5.965   0.490
 5829WAT     H217730   7.586   6.063   0.451
 5830WAT      O17731   9.184   9.225   0.475
 5830WAT     H117732   9.170   9.222   0.574
 5830WAT     H217733   9.255   9.159   0.450
 5831WAT      O17734   4.561   0.112   7.221
 5831WAT     H117735   4.639   0.066   7.264
 5831WAT     H217736   4.492   0.132   7.290
 5832WAT      O17737   2.841   6.279   9.526
 5832WAT     H117738   2.936   6.286   9.555
 5832WAT     H217739   2.832   6.208   9.457
 5833WAT      O17740   5.814   6.703   4.701
 5833WAT     H117741   5.851   6.636   4.636
 5833WAT     H217742   5.857   6.690   4.790
 5834WAT      O17743   8.473   0.244   2.259
 5834WAT     H117744   8.459   0.290   2.346
 5834WAT     H217745   8.471   0.144   2.272
 5835WAT      O17746   0.479   9.780   0.090
 5835WAT     H117747   0.395   9.817   0.129
 5835WAT     H217748   0.549   9.772   0.162
 5836WAT      O17749   1.801   9.387   2.205
 5836WAT     H117750   1.827   9.294   2.231
 5836WAT     H217751   1.740   9.426   2.274
 5837WAT      O17752   0.524   6.066   1.013
 5837WAT     H117753   0.587   6.143   1.010
 5837WAT     H217754   0.558   5.993   0.953
 5838WAT      O17755   1.786   6.109   7.437
 5838WAT     H117756   1.810   6.110   7.340
 5838WAT     H217757   1.865   6.080   7.491
 5839WAT      O17758   9.279   9.229   9.693
 5839WAT     H117759   9.296   9.273   9.605
 5839WAT     H217760   9.366   9.217   9.742
 5840WAT      O17761   8.319   7.210   2.524
 5840WAT     H117762   8.245   7.213   2.457
 5840WAT     H217763   8.403   7.182   2.479
 5841WAT      O17764   3.887   2.362   1.808
 5841WAT     H117765   3.907   2.266   1.826
 5841WAT     H217766   3.856   2.407   1.892
 5842WAT      O17767   4.053   7.981   5.829
 5842WAT     H117768   4.114   8.060   5.836
 5842WAT     H217769   4.075   7.929   5.746
 5843WAT      O17770   1.639   5.884   2.818
 5843WAT     H117771   1.724   5.835   2.797
 5843WAT     H217772   1.561   5.826   2.799
 5844WAT      O17773   2.979   0.024   0.338
 5844WAT     H117774   2.882   0.005   0.353
 5844WAT     H217775   3.006  -0.007   0.246
 5845WAT      O17776   0.028   8.650   5.247
 5845WAT     H117777   0.027   8.742   5.286
 5845WAT     H217778  -0.065   8.613   5.243
 5846WAT      O17779   2.165   1.531   2.305
 5846WAT     H117780   2.090   1.596   2.302
 5846WAT     H217781   2.133   1.441   2.276
 5847WAT      O17782   6.090   4.070   7.741
 5847WAT     H117783   6.149   4.086   7.820
 5847WAT     H217784   6.117   4.130   7.666
 5848WAT      O17785   0.442   7.218   8.055
 5848WAT     H117786   0.392   7.196   8.138
 5848WAT     H217787   0.430   7.315   8.033
 5849WAT      O17788   8.655   7.687   3.895
 5849WAT     H117789   8.699   7.696   3.806
 5849WAT     H217790   8.582   7.755   3.903
 5850WAT      O17791   0.180   6.840   8.092
 5850WAT     H117792   0.268   6.883   8.075
 5850WAT     H217793   0.131   6.828   8.006
 5851WAT      O17794   1.994   1.936   6.862
 5851WAT     H117795   2.037   1.848   6.884
 5851WAT     H217796   1.934   1.963   6.937
 5852WAT      O17797   9.216   4.834   7.345
 5852WAT     H117798   9.203   4.928   7.314
 5852WAT     H217799   9.202   4.830   7.444
 5853WAT      O17800   9.732   3.991   6.761
 5853WAT     H117801   9.759   3.960   6.670
 5853WAT     H217802   9.741   3.915   6.826
 5854WAT      O17803   6.355   9.546   0.505
 5854WAT     H117804   6.310   9.519   0.420
 5854WAT     H217805   6.454   9.537   0.495
 5855WAT      O17806   4.472   8.685   2.982
 5855WAT     H117807   4.415   8.628   2.923
 5855WAT     H217808   4.432   8.777   2.989
 5856WAT      O17809   7.448   2.889   1.054
 5856WAT     H117810   7.435   2.950   1.132
 5856WAT     H217811   7.544   2.891   1.026
 5857WAT      O17812   2.924   7.699   6.179
 5857WAT     H117813   2.969   7.612   6.199
 5857WAT     H217814   2.846   7.712   6.241
 5858WAT      O17815   5.889   9.062   6.079
 5858WAT     H117816   5.842   9.120   6.012
 5858WAT     H217817   5.988   9.068   6.065
 5859WAT      O17818   6.898   4.592   5.211
 5859WAT     H117819   6.909   4.584   5.310
 5859WAT     H217820   6.819   4.650   5.191
 5860WAT      O17821   8.873   2.196   9.294
 5860WAT     H117822   8.971   2.176   9.288
 5860WAT     H217823   8.823   2.111   9.313
 5861WAT      O17824   5.556   1.052   1.065
 5861WAT     H117825   5.591   0.969   1.023
 5861WAT     H217826   5.631   1.108   1.098
 5862WAT      O17827   4.024   0.958   8.224
 5862WAT     H117828   3.988   0.891   8.159
 5862WAT     H217829   3.976   0.949   8.311
 5863WAT      O17830   4.870   8.311   1.011
 5863WAT     H117831   4.926   8.346   0.936
 5863WAT     H217832   4.775   8.339   0.997
 5864WAT      O17833   8.201   1.091   3.896
 5864WAT     H117834   8.235   1.158   3.830
 5864WAT     H217835   8.155   1.138   3.971
 5865WAT      O17836   3.123   9.816   3.408
 5865WAT     H117837   3.099   9.721   3.389
 5865WAT     H217838   3.207   9.818   3.462
 5866WAT      O17839   0.399   1.307   6.943
 5866WAT     H117840   0.452   1.222   6.936
 5866WAT     H217841   0.444   1.378   6.890
 5867WAT      O17842   8.593   0.057   4.768
 5867WAT     H117843   8.495   0.060   4.746
 5867WAT     H217844   8.608   0.090   4.860
 5868WAT      O17845   9.290   9.699   5.718
 5868WAT     H117846   9.199   9.735   5.698
 5868WAT     H217847   9.294   9.666   5.812
 5869WAT      O17848   1.946   8.743   7.750
 5869WAT     H117849   2.034   8.771   7.787
 5869WAT     H217850   1.960   8.667   7.686
 5870WAT      O17851   7.312   0.407   0.990
 5870WAT     H117852   7.370   0.409   1.071
 5870WAT     H217853   7.328   0.323   0.939
 5871WAT      O17854   0.208   9.748   8.456
 5871WAT     H117855   0.139   9.790   8.515
 5871WAT     H217856   0.216   9.800   8.372
 5872WAT      O17857   1.773   9.175   5.152
 5872WAT     H117858   1.820   9.139   5.071
 5872WAT     H217859   1.743   9.269   5.135
 5873WAT      O17860   5.596   2.437   2.055
 5873WAT     H117861   5.683   2.485   2.043
 5873WAT     H217862   5.521   2.493   2.019
 5874WAT      O17863   5.140   5.846   0.630
 5874WAT     H117864   5.122   5.762   0.580
 5874WAT     H217865   5.187   5.825   0.716
 5875WAT      O17866   9.443   7.205   6.902
 5875WAT     H117867   9.399   7.176   6.987
 5875WAT     H217868   9.376   7.254   6.845
 5876WAT      O17869   2.805   7.917   1.559
 5876WAT     H117870   2.722   7.902   1.613
 5876WAT     H217871   2.803   8.008   1.518
 5877WAT      O17872   8.499   1.039   4.345
 5877WAT     H117873   8.520   0.995   4.258
 5877WAT     H217874   8.428   0.986   4.393
 5878WAT      O17875   9.235   2.669   0.655
 5878WAT     H117876   9.165   2.721   0.606
 5878WAT     H217877   9.291   2.618   0.589
 5879WAT      O17878   1.149   9.110   4.421
 5879WAT     H117879   1.174   9.021   4.383
 5879WAT     H217880   1.219   9.141   4.484
 5880WAT      O17881   8.076   9.075   1.389
 5880WAT     H117882   8.165   9.049   1.350
 5880WAT     H217883   8.003   9.026   1.341
 5881WAT      O17884   0.813   4.064   9.359
 5881WAT     H117885   0.762   4.146   9.382
 5881WAT     H217886   0.872   4.039   9.436
 5882WAT      O17887   8.122   0.847   7.918
 5882WAT     H117888   8.194   0.819   7.854
 5882WAT     H217889   8.049   0.893   7.868
 5883WAT      O17890   8.070   2.071   1.436
 5883WAT     H117891   8.059   2.083   1.534
 5883WAT     H217892   7.981   2.082   1.391
 5884WAT      O17893   6.600   0.265   3.098
 5884WAT     H117894   6.645   0.354   3.104
 5884WAT     H217895   6.605   0.232   3.003
 5885WAT      O17896   2.690   6.783   9.029
 5885WAT     H117897   2.692   6.783   9.129
 5885WAT     H217898   2.623   6.717   8.996
 5886WAT      O17899   3.778   9.314   6.525
 5886WAT     H117900   3.729   9.396   6.553
 5886WAT     H217901   3.720   9.234   6.540
 5887WAT      O17902   9.762   4.655   4.268
 5887WAT     H117903   9.759   4.715   4.348
 5887WAT     H217904   9.759   4.559   4.298
 5888WAT      O17905   7.613   0.925   6.763
 5888WAT     H117906   7.675   0.952   6.837
 5888WAT     H217907   7.549   0.856   6.797
 5889WAT      O17908   3.052   2.351   7.429
 5889WAT     H117909   3.005   2.439   7.414
 5889WAT     H217910   3.105   2.329   7.347
 5890WAT      O17911   1.906   3.946   1.833
 5890WAT     H117912   1.957   3.954   1.747
 5890WAT     H217913   1.815   3.909   1.815
 5891WAT      O17914   3.441   1.952   6.061
 5891WAT     H117915   3.437   1.909   5.971
 5891WAT     H217916   3.533   1.941   6.099
 5892WAT      O17917   9.740   2.129   3.436
 5892WAT     H117918   9.834   2.143   3.467
 5892WAT     H217919   9.703   2.046   3.477
 5893WAT      O17920   9.835   9.176   8.681
 5893WAT     H117921   9.809   9.180   8.585
 5893WAT     H217922   9.816   9.085   8.717
 5894WAT      O17923   1.249   3.363   7.701
 5894WAT     H117924   1.151   3.381   7.688
 5894WAT     H217925   1.285   3.313   7.622
 5895WAT      O17926   1.322   9.342   7.069
 5895WAT     H117927   1.390   9.385   7.127
 5895WAT     H217928   1.249   9.303   7.125
 5896WAT      O17929   2.563   0.262   2.944
 5896WAT     H117930   2.555   0.178   2.998
 5896WAT     H217931   2.636   0.252   2.877
 5897WAT      O17932   1.676   5.805   5.877
 5897WAT     H117933   1.728   5.731   5.920
 5897WAT     H217934   1.740   5.872   5.838
 5898WAT      O17935   8.329   3.494   3.203
 5898WAT     H117936   8.283   3.544   3.130
 5898WAT     H217937   8.333   3.397   3.179
 5899WAT      O17938   2.163   8.652   1.366
 5899WAT     H117939   2.237   8.584   1.371
 5899WAT     H217940   2.181   8.726   1.431
 5900WAT      O17941   9.230   3.560   2.458
 5900WAT     H117942   9.294   3.632   2.486
 5900WAT     H217943   9.142   3.574   2.505
 5901WAT      O17944   3.245   7.419   3.193
 5901WAT     H117945   3.208   7.330   3.166
 5901WAT     H217946   3.345   7.412   3.203
 5902WAT      O17947   3.908   0.929   2.676
 5902WAT     H117948   3.961   0.879   2.608
 5902WAT     H217949   3.862   0.865   2.736
 5903WAT      O17950   5.973   4.444   5.322
 5903WAT     H117951   6.042   4.375   5.345
 5903WAT     H217952   5.899   4.402   5.270
 5904WAT      O17953   8.961   2.346   7.077
 5904WAT     H117954   8.973   2.259   7.030
 5904WAT     H217955   8.878   2.343   7.133
 5905WAT      O17956   0.543   1.587   2.897
 5905WAT     H117957   0.637   1.570   2.926
 5905WAT     H217958   0.481   1.525   2.946
 5906WAT      O17959   0.219   0.489   2.390
 5906WAT     H117960   0.216   0.410   2.451
 5906WAT     H217961   0.260   0.462   2.303
 5907WAT      O17962   4.640   7.950   5.898
 5907WAT     H117963   4.729   7.979   5.864
 5907WAT     H217964   4.652   7.880   5.968
 5908WAT      O17965   0.991   2.912   0.881
 5908WAT     H117966   0.934   2.885   0.804
 5908WAT     H217967   1.082   2.938   0.849
 5909WAT      O17968   6.234   1.055   5.318
 5909WAT     H117969   6.226   0.974   5.375
 5909WAT     H217970   6.150   1.068   5.265
 5910WAT      O17971   7.157   9.714   3.145
 5910WAT     H117972   7.254   9.711   3.169
 5910WAT     H217973   7.104   9.740   3.225
 5911WAT      O17974   4.225   6.038   9.839
 5911WAT     H117975   4.233   6.041   9.939
 5911WAT     H217976   4.131   6.017   9.814
 5912WAT      O17977   7.224   5.331   8.223
 5912WAT     H117978   7.132   5.324   8.186
 5912WAT     H217979   7.247   5.247   8.273
 5913WAT      O17980   0.769   3.965   0.692
 5913WAT     H117981   0.734   3.872   0.695
 5913WAT     H217982   0.779   3.994   0.597
 5914WAT      O17983   6.706   8.278   0.501
 5914WAT     H117984   6.733   8.185   0.526
 5914WAT     H217985   6.674   8.326   0.583
 5915WAT      O17986   7.522   9.308   7.172
 5915WAT     H117987   7.553   9.372   7.242
 5915WAT     H217988   7.489   9.358   7.093
 5916WAT      O17989   1.056   3.757   8.653
 5916WAT     H117990   1.009   3.818   8.717
 5916WAT     H217991   1.020   3.771   8.561
 5917WAT      O17992   0.214   9.142   5.019
 5917WAT     H117993   0.219   9.177   4.926
 5917WAT     H217994   0.182   9.047   5.018
 5918WAT      O17995   7.901   1.872   2.090
 5918WAT     H117996   7.842   1.878   2.010
 5918WAT     H217997   7.890   1.782   2.132
 5919WAT      O17998   5.613   6.926   9.200
 5919WAT     H117999   5.548   6.925   9.276
 5919WAT     H218000   5.564   6.937   9.114
 5920WAT      O18001   3.337   9.730   3.867
 5920WAT     H118002   3.351   9.743   3.965
 5920WAT     H218003   3.319   9.818   3.823
 5921WAT      O18004   6.482   9.259   5.813
 5921WAT     H118005   6.454   9.226   5.903
 5921WAT     H218006   6.525   9.185   5.762
 5922WAT      O18007   2.040   4.615   3.192
 5922WAT     H118008   2.048   4.604   3.093
 5922WAT     H218009   1.952   4.580   3.223
 5923WAT      O18010   8.334   1.637   4.684
 5923WAT     H118011   8.264   1.604   4.621
 5923WAT     H218012   8.293   1.698   4.752
 5924WAT      O18013   9.873   8.889   3.387
 5924WAT     H118014   9.897   8.834   3.308
 5924WAT     H218015   9.778   8.920   3.378
 5925WAT      O18016   4.454   5.953   8.373
 5925WAT     H118017   4.486   6.012   8.447
 5925WAT     H218018   4.368   5.911   8.399
 5926WAT      O18019   0.079   4.153   0.504
 5926WAT     H118020   0.069   4.251   0.489
 5926WAT     H218021  -0.010   4.114   0.530
 5927WAT      O18022   2.934   6.164   3.260
 5927WAT     H118023   2.885   6.084   3.293
 5927WAT     H218024   2.993   6.138   3.184
 5928WAT      O18025   3.843   9.789   3.506
 5928WAT     H118026   3.831   9.689   3.506
 5928WAT     H218027   3.938   9.811   3.483
 5929WAT      O18028   0.574   1.388   0.978
 5929WAT     H118029   0.521   1.310   1.011
 5929WAT     H218030   0.658   1.396   1.032
 5930WAT      O18031   7.561   9.733   8.834
 5930WAT     H118032   7.608   9.818   8.855
 5930WAT     H218033   7.526   9.693   8.919
 5931WAT      O18034   2.853   2.820   1.893
 5931WAT     H118035   2.848   2.891   1.962
 5931WAT     H218036   2.807   2.737   1.926
 5932WAT      O18037   4.767   6.786   8.349
 5932WAT     H118038   4.733   6.879   8.339
 5932WAT     H218039   4.825   6.763   8.271
 5933WAT      O18040   6.236   6.630   4.588
 5933WAT     H118041   6.323   6.591   4.559
 5933WAT     H218042   6.162   6.565   4.568
 5934WAT      O18043   2.823   2.340   9.564
 5934WAT     H118044   2.846   2.432   9.598
 5934WAT     H218045   2.822   2.276   9.641
 5935WAT      O18046   7.753   8.253   1.246
 5935WAT     H118047   7.680   8.312   1.278
 5935WAT     H218048   7.799   8.296   1.168
 5936WAT      O18049   1.117   3.447   1.340
 5936WAT     H118050   1.210   3.482   1.349
 5936WAT     H218051   1.074   3.486   1.259
 5937WAT      O18052   7.713   9.347   1.598
 5937WAT     H118053   7.804   9.318   1.569
 5937WAT     H218054   7.690   9.302   1.684
 5938WAT      O18055   4.036   1.852   2.729
 5938WAT     H118056   3.973   1.775   2.719
 5938WAT     H218057   4.024   1.916   2.653
 5939WAT      O18058   2.307   6.203   5.958
 5939WAT     H118059   2.269   6.218   5.867
 5939WAT     H218060   2.232   6.197   6.025
 5940WAT      O18061   8.264   1.997   8.574
 5940WAT     H118062   8.296   2.092   8.576
 5940WAT     H218063   8.190   1.988   8.507
 5941WAT      O18064   5.331   0.152   8.434
 5941WAT     H118065   5.379   0.138   8.348
 5941WAT     H218066   5.389   0.122   8.510
 5942WAT      O18067   6.229   9.746   9.216
 5942WAT     H118068   6.262   9.656   9.246
 5942WAT     H218069   6.305   9.810   9.212
 5943WAT      O18070   4.086   5.017   5.911
 5943WAT     H118071   4.100   5.041   6.007
 5943WAT     H218072   4.167   4.969   5.876
 5944WAT      O18073   7.706   3.902   5.799
 5944WAT     H118074   7.767   3.833   5.839
 5944WAT     H218075   7.633   3.856   5.748
 5945WAT      O18076   2.768   5.526   1.227
 5945WAT     H118077   2.668   5.525   1.232
 5945WAT     H218078   2.799   5.448   1.172
 5946WAT      O18079   2.557   9.283   1.586
 5946WAT     H118080   2.573   9.234   1.671
 5946WAT     H218081   2.519   9.374   1.607
 5947WAT      O18082   8.563   6.947   3.675
 5947WAT     H118083   8.628   6.944   3.751
 5947WAT     H218084   8.511   7.032   3.678
 5948WAT      O18085   2.789   3.293   5.717
 5948WAT     H118086   2.863   3.237   5.678
 5948WAT     H218087   2.702   3.245   5.705
 5949WAT      O18088   7.398   8.054   8.157
 5949WAT     H118089   7.430   7.972   8.204
 5949WAT     H218090   7.475   8.116   8.141
 5950WAT      O18091   3.565   7.509   2.510
 5950WAT     H118092   3.618   7.530   2.428
 5950WAT     H218093   3.614   7.443   2.565
 5951WAT      O18094   1.323   0.289   7.121
 5951WAT     H118095   1.320   0.190   7.105
 5951WAT     H218096   1.259   0.334   7.059
 5952WAT      O18097   2.800   3.595   2.661
 5952WAT     H118098   2.858   3.675   2.671
 5952WAT     H218099   2.726   3.615   2.597
 5953WAT      O18100   3.950   2.742   6.074
 5953WAT     H118101   3.972   2.792   6.158
 5953WAT     H218102   3.906   2.803   6.009
 5954WAT      O18103   2.596   0.309   2.211
 5954WAT     H118104   2.524   0.244   2.186
 5954WAT     H218105   2.591   0.388   2.149
 5955WAT      O18106   3.202   2.211   6.751
 5955WAT     H118107   3.185   2.281   6.681
 5955WAT     H218108   3.298   2.215   6.778
 5956WAT      O18109   1.539   4.662   3.605
 5956WAT     H118110   1.601   4.700   3.674
 5956WAT     H218111   1.445   4.672   3.635
 5957WAT      O18112   9.850   6.549   6.245
 5957WAT     H118113   9.796   6.554   6.329
 5957WAT     H218114   9.888   6.457   6.235
 5958WAT      O18115   0.068   7.500   3.726
 5958WAT     H118116   0.163   7.492   3.757
 5958WAT     H218117   0.063   7.568   3.653
 5959WAT      O18118   8.410   5.032   4.495
 5959WAT     H118119   8.334   5.095   4.511
 5959WAT     H218120   8.496   5.078   4.518
 5960WAT      O18121   2.019   4.660   8.816
 5960WAT     H118122   2.118   4.651   8.815
 5960WAT     H218123   1.977   4.570   8.806
 5961WAT      O18124   4.545   1.576   2.123
 5961WAT     H118125   4.616   1.620   2.068
 5961WAT     H218126   4.507   1.499   2.072
 5962WAT      O18127   3.246   0.311   7.355
 5962WAT     H118128   3.283   0.394   7.314
 5962WAT     H218129   3.213   0.331   7.448
 5963WAT      O18130   3.540   6.306   6.371
 5963WAT     H118131   3.622   6.283   6.318
 5963WAT     H218132   3.567   6.360   6.451
 5964WAT      O18133   1.224   3.868   6.533
 5964WAT     H118134   1.218   3.931   6.456
 5964WAT     H218135   1.287   3.794   6.511
 5965WAT      O18136   7.033   7.149   2.058
 5965WAT     H118137   7.012   7.209   1.981
 5965WAT     H218138   6.976   7.175   2.136
 5966WAT      O18139   6.282   5.820   8.372
 5966WAT     H118140   6.250   5.848   8.282
 5966WAT     H218141   6.365   5.764   8.362
 5967WAT      O18142   0.519   4.670   8.118
 5967WAT     H118143   0.577   4.710   8.047
 5967WAT     H218144   0.574   4.650   8.199
 5968WAT      O18145   2.683   7.337   7.534
 5968WAT     H118146   2.601   7.280   7.529
 5968WAT     H218147   2.743   7.316   7.457
 5969WAT      O18148   3.791   3.816   7.857
 5969WAT     H118149   3.744   3.805   7.770
 5969WAT     H218150   3.859   3.743   7.868
 5970WAT      O18151   7.838   8.439   2.918
 5970WAT     H118152   7.752   8.396   2.888
 5970WAT     H218153   7.909   8.369   2.925
 5971WAT      O18154   1.749   5.266   4.967
 5971WAT     H118155   1.729   5.286   4.871
 5971WAT     H218156   1.668   5.283   5.023
 5972WAT      O18157   2.356   3.634   4.658
 5972WAT     H118158   2.432   3.570   4.650
 5972WAT     H218159   2.270   3.583   4.656
 5973WAT      O18160   2.646   7.626   9.131
 5973WAT     H118161   2.702   7.543   9.134
 5973WAT     H218162   2.562   7.607   9.080
 5974WAT      O18163   7.726   3.983   6.928
 5974WAT     H118164   7.734   4.067   6.983
 5974WAT     H218165   7.648   3.929   6.962
 5975WAT      O18166   4.636   5.394   0.649
 5975WAT     H118167   4.625   5.479   0.597
 5975WAT     H218168   4.716   5.344   0.615
 5976WAT      O18169   9.502   5.560   0.521
 5976WAT     H118170   9.427   5.600   0.468
 5976WAT     H218171   9.558   5.632   0.561
 5977WAT      O18172   1.437   9.400   1.283
 5977WAT     H118173   1.373   9.472   1.308
 5977WAT     H218174   1.406   9.354   1.200
 5978WAT      O18175   6.938   0.039   2.713
 5978WAT     H118176   6.895   0.129   2.709
 5978WAT     H218177   7.003   0.036   2.789
 5979WAT      O18178   5.649   4.280   1.699
 5979WAT     H118179   5.551   4.295   1.693
 5979WAT     H218180   5.668   4.189   1.734
 5980WAT      O18181   2.445   9.761   7.107
 5980WAT     H118182   2.444   9.666   7.140
 5980WAT     H218183   2.539   9.789   7.088
 5981WAT      O18184   6.709   5.828   9.379
 5981WAT     H118185   6.657   5.771   9.316
 5981WAT     H218186   6.745   5.771   9.453
 5982WAT      O18187   9.036   3.295   5.497
 5982WAT     H118188   9.080   3.206   5.503
 5982WAT     H218189   9.042   3.342   5.585
 5983WAT      O18190   4.796   1.304   8.576
 5983WAT     H118191   4.893   1.323   8.593
 5983WAT     H218192   4.744   1.389   8.581
 5984WAT      O18193   8.449   3.845   8.743
 5984WAT     H118194   8.537   3.888   8.764
 5984WAT     H218195   8.399   3.828   8.828
 5985WAT      O18196   0.030   5.734   1.331
 5985WAT     H118197   0.026   5.657   1.394
 5985WAT     H218198   0.121   5.776   1.334
 5986WAT      O18199   5.955   8.059   0.808
 5986WAT     H118200   5.923   8.071   0.902
 5986WAT     H218201   6.053   8.037   0.809
 5987WAT      O18202   7.554   3.333   6.351
 5987WAT     H118203   7.561   3.388   6.268
 5987WAT     H218204   7.473   3.362   6.403
 5988WAT      O18205   0.712   8.689   3.519
 5988WAT     H118206   0.790   8.736   3.560
 5988WAT     H218207   0.738   8.653   3.429
 5989WAT      O18208   7.659   6.473   4.232
 5989WAT     H118209   7.695   6.467   4.325
 5989WAT     H218210   7.664   6.569   4.202
 5990WAT      O18211   1.384   8.003   3.736
 5990WAT     H118212   1.435   7.977   3.654
 5990WAT     H218213   1.298   8.046   3.709
 5991WAT      O18214   0.285   1.517   9.629
 5991WAT     H118215   0.365   1.475   9.586
 5991WAT     H218216   0.312   1.561   9.714
 5992WAT      O18217   7.027   1.853   3.835
 5992WAT     H118218   7.073   1.863   3.924
 5992WAT     H218219   7.027   1.757   3.809
 5993WAT      O18220   1.086   8.608   7.056
 5993WAT     H118221   1.167   8.561   7.021
 5993WAT     H218222   1.107   8.651   7.144
 5994WAT      O18223   4.722   2.384   9.108
 5994WAT     H118224   4.766   2.427   9.187
 5994WAT     H218225   4.648   2.443   9.074
 5995WAT      O18226   8.208   8.128   6.922
 5995WAT     H118227   8.122   8.163   6.886
 5995WAT     H218228   8.278   8.129   6.850
 5996WAT      O18229   3.284   5.799   9.644
 5996WAT     H118230   3.300   5.702   9.625
 5996WAT     H218231   3.191   5.811   9.678
 5997WAT      O18232   3.052   0.453   4.282
 5997WAT     H118233   3.004   0.483   4.199
 5997WAT     H218234   3.062   0.354   4.281
 5998WAT      O18235   9.835   7.107   9.184
 5998WAT     H118236   9.840   7.167   9.104
 5998WAT     H218237   9.901   7.139   9.253
 5999WAT      O18238   0.208   1.941   8.077
 5999WAT     H118239   0.136   1.883   8.040
 5999WAT     H218240   0.221   2.020   8.018
 6000WAT      O18241   5.327   5.078   1.786
 6000WAT     H118242   5.385   5.000   1.762
 6000WAT     H218243   5.231   5.051   1.781
 6001WAT      O18244   2.884   5.202   1.535
 6001WAT     H118245   2.791   5.199   1.499
 6001WAT     H218246   2.882   5.217   1.634
 6002WAT      O18247   7.066   2.474   1.431
 6002WAT     H118248   7.013   2.504   1.352
 6002WAT     H218249   7.010   2.478   1.514
 6003WAT      O18250   0.405   0.303   8.942
 6003WAT     H118251   0.383   0.213   8.904
 6003WAT     H218252   0.503   0.311   8.956
 6004WAT      O18253   5.245   3.326   7.387
 6004WAT     H118254   5.211   3.236   7.415
 6004WAT     H218255   5.205   3.396   7.445
 6005WAT      O18256   1.860   4.815   2.243
 6005WAT     H118257   1.952   4.850   2.231
 6005WAT     H218258   1.834   4.761   2.162
 6006WAT      O18259   9.106   5.584   5.328
 6006WAT     H118260   9.109   5.684   5.322
 6006WAT     H218261   9.198   5.547   5.324
 6007WAT      O18262   6.098   0.231   1.050
 6007WAT     H118263   6.097   0.157   0.983
 6007WAT     H218264   6.004   0.249   1.082
 6008WAT      O18265   2.262   0.259   1.838
 6008WAT     H118266   2.353   0.289   1.809
 6008WAT     H218267   2.239   0.302   1.925
 6009WAT      O18268   7.903   9.118   6.384
 6009WAT     H118269   7.970   9.181   6.344
 6009WAT     H218270   7.813   9.161   6.384
 6010WAT      O18271   5.970   0.054   4.148
 6010WAT     H118272   5.912   0.023   4.073
 6010WAT     H218273   5.955  -0.005   4.228
 6011WAT      O18274   7.847   2.447   7.518
 6011WAT     H118275   7.780   2.451   7.592
 6011WAT     H218276   7.883   2.354   7.512
 6012WAT      O18277   2.620   0.986   9.197
 6012WAT     H118278   2.539   1.044   9.194
 6012WAT     H218279   2.673   1.006   9.279
 6013WAT      O18280   3.975   2.631   1.100
 6013WAT     H118281   3.923   2.614   1.016
 6013WAT     H218282   4.005   2.543   1.138
 6014WAT      O18283   0.700   0.141   5.404
 6014WAT     H118284   0.684   0.239   5.417
 6014WAT     H218285   0.669   0.114   5.312
 6015WAT      O18286   7.660   4.393   2.386
 6015WAT     H118287   7.576   4.392   2.332
 6015WAT     H218288   7.639   4.367   2.481
 6016WAT      O18289   6.035   1.902   8.075
 6016WAT     H118290   5.962   1.838   8.097
 6016WAT     H218291   6.119   1.873   8.122
 6017WAT      O18292   3.351   1.325   1.897
 6017WAT     H118293   3.284   1.287   1.834
 6017WAT     H218294   3.441   1.326   1.853
 6018WAT      O18295   5.216   9.303   6.253
 6018WAT     H118296   5.221   9.387   6.197
 6018WAT     H218297   5.132   9.254   6.232
 6019WAT      O18298   1.757   8.175   5.569
 6019WAT     H118299   1.803   8.130   5.493
 6019WAT     H218300   1.680   8.229   5.534
 6020WAT      O18301   6.373   1.815   0.534
 6020WAT     H118302   6.316   1.894   0.511
 6020WAT     H218303   6.427   1.788   0.455
 6021WAT      O18304   0.683   1.949   2.991
 6021WAT     H118305   0.703   2.042   3.021
 6021WAT     H218306   0.590   1.925   3.019
 6022WAT      O18307   7.295   4.478   6.498
 6022WAT     H118308   7.280   4.476   6.400
 6022WAT     H218309   7.269   4.390   6.538
 6023WAT      O18310   8.834   9.540   0.837
 6023WAT     H118311   8.795   9.632   0.844
 6023WAT     H218312   8.836   9.512   0.742
 6024WAT      O18313   5.979   0.079   1.637
 6024WAT     H118314   5.971   0.179   1.640
 6024WAT     H218315   6.058   0.050   1.691
 6025WAT      O18316   0.190   7.513   2.768
 6025WAT     H118317   0.272   7.559   2.803
 6025WAT     H218318   0.110   7.549   2.816
 6026WAT      O18319   6.273   8.154   2.710
 6026WAT     H118320   6.340   8.146   2.636
 6026WAT     H218321   6.220   8.069   2.716
 6027WAT      O18322   4.742   9.404   4.372
 6027WAT     H118323   4.685   9.400   4.454
 6027WAT     H218324   4.734   9.495   4.330
 6028WAT      O18325   6.093   1.263   5.564
 6028WAT     H118326   6.103   1.346   5.509
 6028WAT     H218327   6.183   1.233   5.597
 6029WAT      O18328   3.192   2.496   6.923
 6029WAT     H118329   3.111   2.544   6.889
 6029WAT     H218330   3.169   2.441   7.003
 6030WAT      O18331   5.234   6.516   6.381
 6030WAT     H118332   5.218   6.418   6.392
 6030WAT     H218333   5.331   6.534   6.370
 6031WAT      O18334   7.183   0.604   4.457
 6031WAT     H118335   7.092   0.604   4.414
 6031WAT     H218336   7.214   0.510   4.469
 6032WAT      O18337   8.058   2.625   7.579
 6032WAT     H118338   7.980   2.562   7.576
 6032WAT     H218339   8.143   2.573   7.569
 6033WAT      O18340   2.614   6.665   4.850
 6033WAT     H118341   2.673   6.604   4.903
 6033WAT     H218342   2.554   6.716   4.912
 6034WAT      O18343   8.405   1.869   7.168
 6034WAT     H118344   8.305   1.859   7.162
 6034WAT     H218345   8.441   1.802   7.233
 6035WAT      O18346   1.010   9.269   3.915
 6035WAT     H118347   0.911   9.275   3.900
 6035WAT     H218348   1.032   9.182   3.958
 6036WAT      O18349   0.007   1.447   1.541
 6036WAT     H118350   0.095   1.483   1.571
 6036WAT     H218351  -0.052   1.523   1.512
 6037WAT      O18352   5.543   8.523   0.305
 6037WAT     H118353   5.468   8.551   0.366
 6037WAT     H218354   5.617   8.485   0.360
 6038WAT      O18355   4.934   0.694   8.240
 6038WAT     H118356   4.868   0.657   8.175
 6038WAT     H218357   4.886   0.728   8.321
 6039WAT      O18358   2.538   4.375   8.219
 6039WAT     H118359   2.476   4.310   8.263
 6039WAT     H218360   2.632   4.343   8.229
 6040WAT      O18361   6.823   8.929   8.656
 6040WAT     H118362   6.739   8.911   8.605
 6040WAT     H218363   6.825   8.871   8.737
 6041WAT      O18364   6.467   8.826   7.853
 6041WAT     H118365   6.447   8.761   7.780
 6041WAT     H218366   6.459   8.781   7.942
 6042WAT      O18367   0.622   5.417   2.810
 6042WAT     H118368   0.696   5.464   2.858
 6042WAT     H218369   0.653   5.327   2.780
 6043WAT      O18370   7.596   9.270   1.360
 6043WAT     H118371   7.563   9.306   1.273
 6043WAT     H218372   7.640   9.344   1.413
 6044WAT      O18373   7.395   0.193   5.654
 6044WAT     H118374   7.482   0.230   5.685
 6044WAT     H218375   7.360   0.128   5.721
 6045WAT      O18376   7.415   0.418   2.986
 6045WAT     H118377   7.369   0.501   3.018
 6045WAT     H218378   7.349   0.342   2.984
 6046WAT      O18379   9.707   6.960   8.223
 6046WAT     H118380   9.656   6.947   8.308
 6046WAT     H218381   9.709   6.874   8.173
 6047WAT      O18382   6.250   6.371   7.539
 6047WAT     H118383   6.307   6.420   7.472
 6047WAT     H218384   6.189   6.437   7.584
 6048WAT      O18385   6.665   3.763   9.304
 6048WAT     H118386   6.612   3.691   9.260
 6048WAT     H218387   6.607   3.843   9.317
 6049WAT      O18388   9.179   7.907   4.747
 6049WAT     H118389   9.146   7.934   4.656
 6049WAT     H218390   9.206   7.988   4.798
 6050WAT      O18391   0.525   5.763   1.821
 6050WAT     H118392   0.514   5.688   1.886
 6050WAT     H218393   0.569   5.841   1.867
 6051WAT      O18394   4.291   4.317   7.271
 6051WAT     H118395   4.193   4.305   7.256
 6051WAT     H218396   4.312   4.313   7.368
 6052WAT      O18397   6.659   1.542   8.837
 6052WAT     H118398   6.757   1.560   8.851
 6052WAT     H218399   6.644   1.444   8.825
 6053WAT      O18400   0.509   4.646   0.365
 6053WAT     H118401   0.435   4.579   0.362
 6053WAT     H218402   0.596   4.600   0.385
 6054WAT      O18403   1.928   7.728   0.389
 6054WAT     H118404   1.890   7.781   0.464
 6054WAT     H218405   2.011   7.771   0.355
 6055WAT      O18406   7.267   2.344   5.548
 6055WAT     H118407   7.211   2.385   5.476
 6055WAT     H218408   7.272   2.406   5.626
 6056WAT      O18409   7.712   7.878   8.042
 6056WAT     H118410   7.721   7.973   8.071
 6056WAT     H218411   7.664   7.826   8.113
 6057WAT      O18412   8.513   6.932   4.675
 6057WAT     H118413   8.588   6.887   4.722
 6057WAT     H218414   8.475   6.870   4.606
 6058WAT      O18415   2.118   9.604   8.646
 6058WAT     H118416   2.061   9.685   8.666
 6058WAT     H218417   2.061   9.534   8.603
 6059WAT      O18418   2.191   0.341   9.214
 6059WAT     H118419   2.160   0.379   9.126
 6059WAT     H218420   2.240   0.256   9.197
 6060WAT      O18421   3.922   2.212   0.330
 6060WAT     H118422   3.957   2.234   0.239
 6060WAT     H218423   3.836   2.162   0.322
 6061WAT      O18424   4.419   0.141   9.756
 6061WAT     H118425   4.406   0.135   9.657
 6061WAT     H218426   4.514   0.122   9.778
 6062WAT      O18427   7.811   2.090   7.626
 6062WAT     H118428   7.729   2.147   7.637
 6062WAT     H218429   7.865   2.091   7.710
 6063WAT      O18430   1.928   0.390   6.541
 6063WAT     H118431   1.943   0.394   6.442
 6063WAT     H218432   1.846   0.442   6.564
 6064WAT      O18433   0.792   8.443   9.133
 6064WAT     H118434   0.703   8.412   9.099
 6064WAT     H218435   0.835   8.370   9.185
 6065WAT      O18436   3.574   2.884   7.833
 6065WAT     H118437   3.485   2.858   7.794
 6065WAT     H218438   3.629   2.928   7.763
 6066WAT      O18439   6.920   1.519   4.463
 6066WAT     H118440   6.976   1.524   4.546
 6066WAT     H218441   6.947   1.592   4.400
 6067WAT      O18442   1.193   4.551   4.270
 6067WAT     H118443   1.094   4.554   4.288
 6067WAT     H218444   1.239   4.617   4.329
 6068WAT      O18445   9.729   5.800   0.054
 6068WAT     H118446   9.771   5.712   0.034
 6068WAT     H218447   9.777   5.872   0.003
 6069WAT      O18448   4.989   6.285   5.350
 6069WAT     H118449   5.077   6.238   5.340
 6069WAT     H218450   4.990   6.369   5.297
 6070WAT      O18451   0.792   0.981   1.258
 6070WAT     H118452   0.831   1.072   1.276
 6070WAT     H218453   0.776   0.933   1.344
 6071WAT      O18454   1.465   3.541   2.292
 6071WAT     H118455   1.532   3.605   2.255
 6071WAT     H218456   1.395   3.592   2.343
 6072WAT      O18457   0.499   2.779   7.306
 6072WAT     H118458   0.458   2.867   7.280
 6072WAT     H218459   0.476   2.710   7.237
 6073WAT      O18460   8.267   1.958   0.446
 6073WAT     H118461   8.286   1.941   0.349
 6073WAT     H218462   8.316   1.891   0.501
 6074WAT      O18463   3.267   9.125   3.203
 6074WAT     H118464   3.210   9.183   3.144
 6074WAT     H218465   3.263   9.030   3.171
 6075WAT      O18466   9.437   4.674   6.424
 6075WAT     H118467   9.448   4.757   6.369
 6075WAT     H218468   9.364   4.688   6.491
 6076WAT      O18469   6.490   7.576   0.430
 6076WAT     H118470   6.568   7.581   0.368
 6076WAT     H218471   6.424   7.508   0.396
 6077WAT      O18472   5.430   5.710   9.671
 6077WAT     H118473   5.502   5.780   9.670
 6077WAT     H218474   5.414   5.680   9.765
 6078WAT      O18475   1.573   2.580   2.702
 6078WAT     H118476   1.593   2.664   2.651
 6078WAT     H218477   1.531   2.603   2.789
 6079WAT      O18478   2.517   3.021   4.565
 6079WAT     H118479   2.487   2.980   4.479
 6079WAT     H218480   2.532   2.949   4.633
 6080WAT      O18481   4.275   3.734   8.142
 6080WAT     H118482   4.248   3.793   8.066
 6080WAT     H218483   4.349   3.674   8.114
 6081WAT      O18484   9.114   8.425   8.349
 6081WAT     H118485   9.186   8.356   8.346
 6081WAT     H218486   9.097   8.459   8.256
 6082WAT      O18487   2.292   4.117   6.327
 6082WAT     H118488   2.232   4.042   6.354
 6082WAT     H218489   2.366   4.080   6.269
 6083WAT      O18490   1.685   8.290   2.802
 6083WAT     H118491   1.608   8.275   2.739
 6083WAT     H218492   1.650   8.303   2.895
 6084WAT      O18493   4.740   8.327   4.288
 6084WAT     H118494   4.701   8.391   4.222
 6084WAT     H218495   4.808   8.269   4.242
 6085WAT      O18496   0.986   5.685   7.626
 6085WAT     H118497   1.073   5.651   7.589
 6085WAT     H218498   0.998   5.779   7.657
 6086WAT      O18499   1.276   5.057   2.503
 6086WAT     H118500   1.230   4.985   2.556
 6086WAT     H218501   1.300   5.021   2.413
 6087WAT      O18502   3.841   0.324   9.097
 6087WAT     H118503   3.819   0.234   9.060
 6087WAT     H218504   3.934   0.324   9.133
 6088WAT      O18505   6.953   4.132   6.158
 6088WAT     H118506   6.880   4.194   6.187
 6088WAT     H218507   6.998   4.095   6.238
 6089WAT      O18508   4.868   9.794   1.494
 6089WAT     H118509   4.864   9.889   1.462
 6089WAT     H218510   4.878   9.793   1.594
 6090WAT      O18511   0.696   9.629   8.521
 6090WAT     H118512   0.600   9.651   8.541
 6090WAT     H218513   0.742   9.711   8.487
 6091WAT      O18514   9.639   2.232   5.131
 6091WAT     H118515   9.543   2.261   5.134
 6091WAT     H218516   9.694   2.305   5.090
 6092WAT      O18517   2.323   9.003   2.999
 6092WAT     H118518   2.388   9.073   3.029
 6092WAT     H218519   2.337   8.919   3.052
 6093WAT      O18520   5.857   1.798   4.398
 6093WAT     H118521   5.807   1.875   4.359
 6093WAT     H218522   5.952   1.825   4.413
 6094WAT      O18523   6.588   3.148   0.361
 6094WAT     H118524   6.581   3.106   0.452
 6094WAT     H218525   6.664   3.108   0.311
 6095WAT      O18526   2.101   3.670   2.958
 6095WAT     H118527   2.130   3.595   3.018
 6095WAT     H218528   2.153   3.752   2.980
 6096WAT      O18529   4.078   8.818   2.309
 6096WAT     H118530   4.157   8.758   2.308
 6096WAT     H218531   4.028   8.807   2.394
 6097WAT      O18532   4.308   3.684   4.324
 6097WAT     H118533   4.346   3.627   4.252
 6097WAT     H218534   4.380   3.738   4.367
 6098WAT      O18535   1.003   0.999   4.268
 6098WAT     H118536   0.911   1.038   4.270
 6098WAT     H218537   1.070   1.072   4.260
 6099WAT      O18538   5.994   4.209   9.072
 6099WAT     H118539   5.931   4.134   9.094
 6099WAT     H218540   6.042   4.237   9.155
 6100WAT      O18541   8.631   3.172   1.106
 6100WAT     H118542   8.663   3.265   1.092
 6100WAT     H218543   8.556   3.172   1.172
 6101WAT      O18544   3.296   9.696   9.100
 6101WAT     H118545   3.228   9.654   9.159
 6101WAT     H218546   3.259   9.779   9.059
 6102WAT      O18547   5.996   6.333   3.147
 6102WAT     H118548   5.938   6.413   3.164
 6102WAT     H218549   6.011   6.323   3.048
 6103WAT      O18550   4.184   0.982   2.366
 6103WAT     H118551   4.230   1.046   2.428
 6103WAT     H218552   4.252   0.937   2.308
 6104WAT      O18553   7.201   4.949   7.453
 6104WAT     H118554   7.247   4.985   7.372
 6104WAT     H218555   7.172   4.855   7.436
 6105WAT      O18556   1.881   7.906   7.129
 6105WAT     H118557   1.864   7.846   7.207
 6105WAT     H218558   1.935   7.857   7.060
 6106WAT      O18559   8.514   7.802   2.325
 6106WAT     H118560   8.520   7.703   2.315
 6106WAT     H218561   8.457   7.825   2.404
 6107WAT      O18562   6.859   0.173   7.281
 6107WAT     H118563   6.808   0.252   7.314
 6107WAT     H218564   6.889   0.190   7.187
 6108WAT      O18565   7.790   0.164   2.888
 6108WAT     H118566   7.718   0.221   2.848
 6108WAT     H218567   7.864   0.222   2.923
 6109WAT      O18568   1.532   2.938   8.146
 6109WAT     H118569   1.529   2.839   8.161
 6109WAT     H218570   1.506   2.984   8.231
 6110WAT      O18571   7.878   9.396   3.874
 6110WAT     H118572   7.871   9.385   3.775
 6110WAT     H218573   7.799   9.355   3.918
 6111WAT      O18574   0.801   7.279   5.807
 6111WAT     H118575   0.854   7.266   5.723
 6111WAT     H218576   0.747   7.197   5.825
 6112WAT      O18577   4.615   0.759   1.111
 6112WAT     H118578   4.653   0.848   1.138
 6112WAT     H218579   4.647   0.736   1.019
 6113WAT      O18580   3.545   4.420   5.749
 6113WAT     H118581   3.450   4.401   5.725
 6113WAT     H218582   3.561   4.518   5.747
 6114WAT      O18583   3.899   1.479   2.937
 6114WAT     H118584   3.816   1.535   2.936
 6114WAT     H218585   3.906   1.429   2.851
 6115WAT      O18586   9.871   7.294   9.529
 6115WAT     H118587   9.939   7.352   9.573
 6115WAT     H218588   9.912   7.244   9.454
 6116WAT      O18589   6.349   8.267   9.763
 6116WAT     H118590   6.272   8.326   9.785
 6116WAT     H218591   6.397   8.303   9.683
 6117WAT      O18592   4.266   5.739   7.564
 6117WAT     H118593   4.245   5.641   7.557
 6117WAT     H218594   4.276   5.778   7.473
 6118WAT      O18595   5.229   2.208   9.153
 6118WAT     H118596   5.271   2.141   9.215
 6118WAT     H218597   5.214   2.165   9.064
 6119WAT      O18598   6.728   4.336   9.080
 6119WAT     H118599   6.725   4.237   9.095
 6119WAT     H218600   6.779   4.355   8.996
 6120WAT      O18601   2.145   3.307   6.129
 6120WAT     H118602   2.190   3.281   6.215
 6120WAT     H218603   2.095   3.392   6.143
 6121WAT      O18604   0.624   1.795   4.443
 6121WAT     H118605   0.540   1.744   4.461
 6121WAT     H218606   0.613   1.848   4.359
 6122WAT      O18607   6.820   8.553   3.438
 6122WAT     H118608   6.776   8.564   3.349
 6122WAT     H218609   6.912   8.515   3.425
 6123WAT      O18610   8.989   6.844   2.809
 6123WAT     H118611   8.995   6.775   2.737
 6123WAT     H218612   9.063   6.829   2.875
 6124WAT      O18613   1.448   6.723   2.153
 6124WAT     H118614   1.502   6.679   2.082
 6124WAT     H218615   1.399   6.801   2.113
 6125WAT      O18616   9.866   0.939   3.569
 6125WAT     H118617   9.809   0.998   3.512
 6125WAT     H218618   9.936   0.896   3.512
 6126WAT      O18619   1.113   7.698   0.878
 6126WAT     H118620   1.015   7.716   0.880
 6126WAT     H218621   1.156   7.737   0.960
 6127WAT      O18622   3.539   2.384   1.284
 6127WAT     H118623   3.531   2.460   1.219
 6127WAT     H218624   3.612   2.404   1.350
 6128WAT      O18625   7.601   1.557   5.189
 6128WAT     H118626   7.541   1.479   5.170
 6128WAT     H218627   7.695   1.524   5.199
 6129WAT      O18628   5.889   2.957   8.620
 6129WAT     H118629   5.979   2.914   8.629
 6129WAT     H218630   5.873   2.982   8.525
 6130WAT      O18631   0.247   8.102   3.219
 6130WAT     H118632   0.209   8.195   3.212
 6130WAT     H218633   0.204   8.044   3.150
 6131WAT      O18634   4.551   3.378   5.365
 6131WAT     H118635   4.513   3.467   5.338
 6131WAT     H218636   4.596   3.387   5.454
 6132WAT      O18637   1.215   4.711   2.597
 6132WAT     H118638   1.310   4.738   2.612
 6132WAT     H218639   1.206   4.665   2.509
 6133WAT      O18640   1.724   5.812   1.914
 6133WAT     H118641   1.712   5.889   1.851
 6133WAT     H218642   1.817   5.776   1.906
 6134WAT      O18643   1.039   8.596   6.635
 6134WAT     H118644   1.082   8.658   6.700
 6134WAT     H218645   0.941   8.591   6.654
 6135WAT      O18646   8.304   8.186   6.516
 6135WAT     H118647   8.324   8.150   6.608
 6135WAT     H218648   8.205   8.196   6.505
 6136WAT      O18649   3.426   9.012   0.305
 6136WAT     H118650   3.332   9.033   0.332
 6136WAT     H218651   3.452   8.923   0.341
 6137WAT      O18652   3.717   0.006   7.963
 6137WAT     H118653   3.808   0.034   7.932
 6137WAT     H218654   3.648   0.064   7.919
 6138WAT      O18655   2.475   9.098   4.638
 6138WAT     H118656   2.518   9.176   4.593
 6138WAT     H218657   2.494   9.014   4.586
 6139WAT      O18658   1.654   0.871   2.549
 6139WAT     H118659   1.600   0.831   2.475
 6139WAT     H218660   1.653   0.810   2.628
 6140WAT      O18661   2.304   6.958   1.066
 6140WAT     H118662   2.352   7.023   1.007
 6140WAT     H218663   2.337   6.967   1.160
 6141WAT      O18664   4.790   8.884   6.742
 6141WAT     H118665   4.848   8.907   6.665
 6141WAT     H218666   4.847   8.855   6.819
 6142WAT      O18667   8.262   3.790   2.843
 6142WAT     H118668   8.333   3.755   2.782
 6142WAT     H218669   8.293   3.875   2.886
 6143WAT      O18670   8.908   2.030   0.688
 6143WAT     H118671   8.888   2.079   0.603
 6143WAT     H218672   8.824   1.993   0.726
 6144WAT      O18673   7.045   0.216   2.225
 6144WAT     H118674   7.020   0.135   2.278
 6144WAT     H218675   7.052   0.295   2.285
 6145WAT      O18676   4.846   2.280   5.519
 6145WAT     H118677   4.865   2.220   5.597
 6145WAT     H218678   4.762   2.251   5.474
 6146WAT      O18679   3.886   7.532   4.175
 6146WAT     H118680   3.893   7.577   4.264
 6146WAT     H218681   3.816   7.461   4.180
 6147WAT      O18682   6.570   6.096   9.434
 6147WAT     H118683   6.633   6.024   9.465
 6147WAT     H218684   6.500   6.055   9.376
 6148WAT      O18685   5.990   2.906   4.093
 6148WAT     H118686   6.045   2.941   4.169
 6148WAT     H218687   6.027   2.819   4.062
 6149WAT      O18688   3.744   5.060   6.083
 6149WAT     H118689   3.728   5.158   6.088
 6149WAT     H218690   3.817   5.041   6.018
 6150WAT      O18691   6.837   5.491   6.832
 6150WAT     H118692   6.805   5.574   6.786
 6150WAT     H218693   6.808   5.492   6.927
 6151WAT      O18694   8.997   0.954   7.149
 6151WAT     H118695   9.088   0.988   7.127
 6151WAT     H218696   8.950   0.928   7.065
 6152WAT      O18697   7.443   1.254   7.188
 6152WAT     H118698   7.466   1.349   7.209
 6152WAT     H218699   7.345   1.240   7.204
 6153WAT      O18700   1.080   2.575   9.298
 6153WAT     H118701   1.158   2.531   9.343
 6153WAT     H218702   1.064   2.664   9.341
 6154WAT      O18703   4.183   6.527   8.834
 6154WAT     H118704   4.172   6.496   8.929
 6154WAT     H218705   4.247   6.604   8.831
 6155WAT      O18706   1.229   4.477   3.093
 6155WAT     H118707   1.234   4.577   3.091
 6155WAT     H218708   1.150   4.449   3.148
 6156WAT      O18709   0.555   8.437   4.825
 6156WAT     H118710   0.640   8.472   4.862
 6156WAT     H218711   0.543   8.471   4.731
 6157WAT      O18712   1.416   0.685   8.828
 6157WAT     H118713   1.401   0.692   8.927
 6157WAT     H218714   1.341   0.730   8.780
 6158WAT      O18715   0.344   9.335   5.487
 6158WAT     H118716   0.424   9.309   5.433
 6158WAT     H218717   0.348   9.432   5.510
 6159WAT      O18718   3.758   7.968   7.520
 6159WAT     H118719   3.743   8.041   7.453
 6159WAT     H218720   3.736   8.003   7.611
 6160WAT      O18721   1.796   2.299   4.441
 6160WAT     H118722   1.824   2.388   4.406
 6160WAT     H218723   1.803   2.299   4.541
 6161WAT      O18724   4.704   1.272   1.920
 6161WAT     H118725   4.774   1.343   1.928
 6161WAT     H218726   4.730   1.209   1.846
 6162WAT      O18727   4.500   4.739   0.846
 6162WAT     H118728   4.440   4.761   0.923
 6162WAT     H218729   4.465   4.783   0.763
 6163WAT      O18730   2.922   8.551   4.508
 6163WAT     H118731   2.902   8.475   4.570
 6163WAT     H218732   2.894   8.526   4.416
 6164WAT      O18733   8.416   9.090   6.012
 6164WAT     H118734   8.340   9.033   6.041
 6164WAT     H218735   8.443   9.151   6.086
 6165WAT      O18736   1.958   2.195   2.959
 6165WAT     H118737   2.033   2.252   2.925
 6165WAT     H218738   1.990   2.101   2.971
 6166WAT      O18739   0.775   5.344   6.214
 6166WAT     H118740   0.790   5.251   6.178
 6166WAT     H218741   0.859   5.376   6.257
 6167WAT      O18742   6.572   2.230   6.863
 6167WAT     H118743   6.500   2.280   6.912
 6167WAT     H218744   6.662   2.261   6.894
 6168WAT      O18745   4.551   6.269   6.844
 6168WAT     H118746   4.571   6.179   6.885
 6168WAT     H218747   4.467   6.305   6.884
 6169WAT      O18748   4.773   3.553   6.131
 6169WAT     H118749   4.703   3.536   6.200
 6169WAT     H218750   4.824   3.468   6.114
 6170WAT      O18751   0.108   8.720   0.935
 6170WAT     H118752   0.067   8.812   0.939
 6170WAT     H218753   0.065   8.668   0.862
 6171WAT      O18754   4.830   3.329   9.045
 6171WAT     H118755   4.886   3.274   9.107
 6171WAT     H218756   4.741   3.286   9.033
 6172WAT      O18757   8.339   1.208   3.218
 6172WAT     H118758   8.289   1.129   3.255
 6172WAT     H218759   8.380   1.183   3.130
 6173WAT      O18760   6.576   3.651   6.113
 6173WAT     H118761   6.543   3.724   6.172
 6173WAT     H218762   6.530   3.657   6.024
 6174WAT      O18763   5.525   3.504   6.225
 6174WAT     H118764   5.595   3.575   6.232
 6174WAT     H218765   5.564   3.423   6.183
 6175WAT      O18766   3.385   9.767   4.142
 6175WAT     H118767   3.470   9.810   4.173
 6175WAT     H218768   3.392   9.668   4.151
 6176WAT      O18769   8.629   1.653   4.333
 6176WAT     H118770   8.562   1.705   4.280
 6176WAT     H218771   8.664   1.710   4.407
 6177WAT      O18772   1.528   1.243   9.644
 6177WAT     H118773   1.455   1.287   9.697
 6177WAT     H218774   1.489   1.169   9.589
 6178WAT      O18775   3.397   9.803   7.209
 6178WAT     H118776   3.447   9.881   7.247
 6178WAT     H218777   3.312   9.835   7.167
 6179WAT      O18778   2.226   4.401   6.399
 6179WAT     H118779   2.134   4.412   6.361
 6179WAT     H218780   2.268   4.319   6.361
 6180WAT      O18781   3.627   3.864   4.348
 6180WAT     H118782   3.569   3.927   4.401
 6180WAT     H218783   3.718   3.903   4.338
 6181WAT      O18784   4.286   8.978   7.693
 6181WAT     H118785   4.351   8.971   7.769
 6181WAT     H218786   4.317   9.049   7.630
 6182WAT      O18787   9.683   0.806   0.157
 6182WAT     H118788   9.686   0.864   0.075
 6182WAT     H218789   9.745   0.729   0.145
 6183WAT      O18790   7.564   6.154   6.944
 6183WAT     H118791   7.475   6.119   6.973
 6183WAT     H218792   7.592   6.107   6.860
 6184WAT      O18793   7.108   0.489   8.820
 6184WAT     H118794   7.166   0.493   8.739
 6184WAT     H218795   7.147   0.548   8.891
 6185WAT      O18796   8.305   6.639   1.976
 6185WAT     H118797   8.275   6.714   1.918
 6185WAT     H218798   8.266   6.649   2.068
 6186WAT      O18799   1.813   6.549   7.413
 6186WAT     H118800   1.872   6.570   7.491
 6186WAT     H218801   1.868   6.517   7.336
 6187WAT      O18802   1.890   3.467   5.960
 6187WAT     H118803   1.838   3.548   5.988
 6187WAT     H218804   1.925   3.481   5.868
 6188WAT      O18805   4.572   8.792   2.210
 6188WAT     H118806   4.657   8.784   2.158
 6188WAT     H218807   4.535   8.701   2.228
 6189WAT      O18808   3.487   3.235   3.895
 6189WAT     H118809   3.516   3.313   3.838
 6189WAT     H218810   3.568   3.187   3.929
 6190WAT      O18811   4.316   6.378   5.162
 6190WAT     H118812   4.247   6.342   5.099
 6190WAT     H218813   4.277   6.386   5.254
 6191WAT      O18814   7.592   0.609   3.467
 6191WAT     H118815   7.597   0.653   3.377
 6191WAT     H218816   7.496   0.590   3.489
 6192WAT      O18817   9.480   2.490   7.279
 6192WAT     H118818   9.411   2.477   7.350
 6192WAT     H218819   9.563   2.529   7.320
 6193WAT      O18820   9.772   1.533   7.124
 6193WAT     H118821   9.851   1.559   7.179
 6193WAT     H218822   9.802   1.514   7.030
 6194WAT      O18823   5.237   3.718   8.020
 6194WAT     H118824   5.315   3.664   8.049
 6194WAT     H218825   5.213   3.784   8.091
 6195WAT      O18826   0.826   4.008   1.759
 6195WAT     H118827   0.923   4.007   1.783
 6195WAT     H218828   0.794   4.102   1.754
 6196WAT      O18829   5.420   2.020   1.721
 6196WAT     H118830   5.366   1.955   1.668
 6196WAT     H218831   5.364   2.099   1.745
 6197WAT      O18832   3.995   0.190   9.712
 6197WAT     H118833   3.912   0.140   9.737
 6197WAT     H218834   4.060   0.128   9.668
 6198WAT      O18835   3.666   8.307   1.980
 6198WAT     H118836   3.745   8.247   1.977
 6198WAT     H218837   3.631   8.311   2.074
 6199WAT      O18838   7.633   8.449   5.003
 6199WAT     H118839   7.556   8.476   4.946
 6199WAT     H218840   7.630   8.350   5.018
 6200WAT      O18841   4.766   5.893   5.516
 6200WAT     H118842   4.762   5.991   5.501
 6200WAT     H218843   4.858   5.859   5.494
 6201WAT      O18844   0.379   1.191   5.080
 6201WAT     H118845   0.464   1.243   5.089
 6201WAT     H218846   0.310   1.230   5.140
 6202WAT      O18847   1.020   3.724   5.996
 6202WAT     H118848   1.117   3.726   6.020
 6202WAT     H218849   0.987   3.817   5.982
 6203WAT      O18850   1.396   0.769   8.490
 6203WAT     H118851   1.317   0.825   8.513
 6203WAT     H218852   1.439   0.736   8.574
 6204WAT      O18853   6.616   0.723   3.182
 6204WAT     H118854   6.577   0.755   3.096
 6204WAT     H218855   6.652   0.802   3.233
 6205WAT      O18856   2.187   2.430   0.766
 6205WAT     H118857   2.169   2.408   0.670
 6205WAT     H218858   2.286   2.429   0.782
 6206WAT      O18859   5.046   6.057   8.756
 6206WAT     H118860   5.071   5.962   8.777
 6206WAT     H218861   4.988   6.092   8.829
 6207WAT      O18862   9.390   8.258   0.660
 6207WAT     H118863   9.427   8.201   0.587
 6207WAT     H218864   9.464   8.310   0.702
 6208WAT      O18865   5.785   8.527   3.166
 6208WAT     H118866   5.772   8.469   3.247
 6208WAT     H218867   5.717   8.504   3.097
 6209WAT      O18868   3.585   3.210   7.544
 6209WAT     H118869   3.505   3.227   7.601
 6209WAT     H218870   3.613   3.295   7.499
 6210WAT      O18871   0.072   3.479   6.236
 6210WAT     H118872   0.105   3.573   6.226
 6210WAT     H218873  -0.025   3.480   6.260
 6211WAT      O18874   3.332   4.532   1.513
 6211WAT     H118875   3.421   4.487   1.515
 6211WAT     H218876   3.321   4.581   1.426
 6212WAT      O18877   8.861   7.631   2.526
 6212WAT     H118878   8.901   7.710   2.479
 6212WAT     H218879   8.762   7.630   2.511
 6213WAT      O18880   3.910   3.669   6.890
 6213WAT     H118881   3.991   3.729   6.886
 6213WAT     H218882   3.919   3.596   6.822
 6214WAT      O18883   5.917   9.290   6.870
 6214WAT     H118884   5.911   9.199   6.912
 6214WAT     H218885   5.971   9.349   6.929
 6215WAT      O18886   8.813   6.914   4.544
 6215WAT     H118887   8.757   6.853   4.489
 6215WAT     H218888   8.792   6.900   4.641
 6216WAT      O18889   1.276   6.309   0.199
 6216WAT     H118890   1.327   6.332   0.282
 6216WAT     H218891   1.328   6.339   0.119
 6217WAT      O18892   4.224   9.732   8.802
 6217WAT     H118893   4.288   9.657   8.816
 6217WAT     H218894   4.204   9.742   8.705
 6218WAT      O18895   3.842   5.093   1.872
 6218WAT     H118896   3.885   5.174   1.910
 6218WAT     H218897   3.754   5.117   1.830
 6219WAT      O18898   1.204   7.051   6.930
 6219WAT     H118899   1.234   7.092   6.844
 6219WAT     H218900   1.182   6.955   6.915
 6220WAT      O18901   3.788   1.572   8.245
 6220WAT     H118902   3.720   1.643   8.229
 6220WAT     H218903   3.805   1.522   8.160
 6221WAT      O18904   4.124   8.129   0.573
 6221WAT     H118905   4.077   8.056   0.622
 6221WAT     H218906   4.213   8.095   0.541
 6222WAT      O18907   4.223   5.734   2.840
 6222WAT     H118908   4.204   5.829   2.866
 6222WAT     H218909   4.187   5.673   2.910
 6223WAT      O18910   8.970   8.848   1.929
 6223WAT     H118911   8.957   8.922   1.996
 6223WAT     H218912   8.950   8.761   1.973
 6224WAT      O18913   2.725   6.261   7.127
 6224WAT     H118914   2.712   6.180   7.069
 6224WAT     H218915   2.719   6.235   7.223
 6225WAT      O18916   0.582   2.960   2.134
 6225WAT     H118917   0.657   2.914   2.180
 6225WAT     H218918   0.536   2.896   2.072
 6226WAT      O18919   3.675   4.771   7.377
 6226WAT     H118920   3.628   4.689   7.347
 6226WAT     H218921   3.671   4.777   7.477
 6227WAT      O18922   9.359   0.040   1.940
 6227WAT     H118923   9.301   0.114   1.974
 6227WAT     H218924   9.384   0.059   1.845
 6228WAT      O18925   7.870   8.107   2.469
 6228WAT     H118926   7.822   8.194   2.465
 6228WAT     H218927   7.921   8.093   2.384
 6229WAT      O18928   6.866   4.363   4.064
 6229WAT     H118929   6.785   4.333   4.013
 6229WAT     H218930   6.944   4.370   4.002
 6230WAT      O18931   3.419   1.804   3.083
 6230WAT     H118932   3.447   1.738   3.152
 6230WAT     H218933   3.319   1.808   3.080
 6231WAT      O18934   0.604   6.017   3.166
 6231WAT     H118935   0.600   5.917   3.167
 6231WAT     H218936   0.669   6.049   3.235
 6232WAT      O18937   9.860   8.367   4.467
 6232WAT     H118938   9.833   8.287   4.521
 6232WAT     H218939   9.960   8.373   4.464
 6233WAT      O18940   0.652   0.262   7.087
 6233WAT     H118941   0.692   0.319   7.159
 6233WAT     H218942   0.608   0.182   7.128
 6234WAT      O18943   0.424   5.148   1.256
 6234WAT     H118944   0.521   5.172   1.269
 6234WAT     H218945   0.378   5.146   1.345
 6235WAT      O18946   0.606   2.412   6.442
 6235WAT     H118947   0.554   2.364   6.371
 6235WAT     H218948   0.673   2.472   6.399
 6236WAT      O18949   3.564   5.540   3.076
 6236WAT     H118950   3.625   5.478   3.027
 6236WAT     H218951   3.554   5.508   3.171
 6237WAT      O18952   3.765   6.641   1.783
 6237WAT     H118953   3.782   6.544   1.802
 6237WAT     H218954   3.674   6.666   1.818
 6238WAT      O18955   2.335   1.708   0.073
 6238WAT     H118956   2.319   1.716   0.171
 6238WAT     H218957   2.263   1.758   0.024
 6239WAT      O18958   5.582   2.989   0.932
 6239WAT     H118959   5.660   2.990   0.870
 6239WAT     H218960   5.549   2.895   0.942
 6240WAT      O18961   2.557   2.982   4.066
 6240WAT     H118962   2.564   2.885   4.040
 6240WAT     H218963   2.648   3.021   4.074
 6241WAT      O18964   1.769   9.502   1.599
 6241WAT     H118965   1.785   9.600   1.594
 6241WAT     H218966   1.672   9.484   1.615
 6242WAT      O18967   6.292   8.297   1.478
 6242WAT     H118968   6.369   8.331   1.424
 6242WAT     H218969   6.258   8.371   1.536
 6243WAT      O18970   9.025   0.677   0.791
 6243WAT     H118971   9.045   0.698   0.886
 6243WAT     H218972   8.968   0.595   0.786
 6244WAT      O18973   3.466   9.502   0.494
 6244WAT     H118974   3.370   9.526   0.510
 6244WAT     H218975   3.482   9.491   0.396
 6245WAT      O18976   2.687   7.614   3.933
 6245WAT     H118977   2.751   7.671   3.985
 6245WAT     H218978   2.686   7.643   3.837
 6246WAT      O18979   0.290   5.964   1.882
 6246WAT     H118980   0.363   5.912   1.839
 6246WAT     H218981   0.258   6.036   1.819
 6247WAT      O18982   0.539   4.218   2.411
 6247WAT     H118983   0.494   4.214   2.322
 6247WAT     H218984   0.587   4.132   2.429
 6248WAT      O18985   5.479   7.715   2.182
 6248WAT     H118986   5.500   7.618   2.171
 6248WAT     H218987   5.381   7.727   2.195
 6249WAT      O18988   0.612   2.461   4.232
 6249WAT     H118989   0.601   2.487   4.327
 6249WAT     H218990   0.551   2.516   4.174
 6250WAT      O18991   6.867   3.033   6.715
 6250WAT     H118992   6.866   3.062   6.620
 6250WAT     H218993   6.942   3.078   6.763
 6251WAT      O18994   9.511   6.038   6.734
 6251WAT     H118995   9.536   5.954   6.686
 6251WAT     H218996   9.591   6.098   6.740
 6252WAT      O18997   3.940   4.519   7.378
 6252WAT     H118998   3.901   4.578   7.307
 6252WAT     H218999   3.953   4.427   7.340
 6253WAT      O19000   2.872   2.502   9.172
 6253WAT     H119001   2.864   2.591   9.216
 6253WAT     H219002   2.800   2.441   9.206
 6254WAT      O19003   3.699   9.022   5.128
 6254WAT     H119004   3.601   9.020   5.142
 6254WAT     H219005   3.719   9.031   5.031
 6255WAT      O19006   9.426   3.692   4.408
 6255WAT     H119007   9.455   3.786   4.423
 6255WAT     H219008   9.507   3.634   4.394
 6256WAT      O19009   6.387   3.923   1.683
 6256WAT     H119010   6.401   3.872   1.768
 6256WAT     H219011   6.305   3.979   1.691
 6257WAT      O19012   0.733   7.130   4.592
 6257WAT     H119013   0.721   7.201   4.662
 6257WAT     H219014   0.764   7.171   4.507
 6258WAT      O19015   7.016   2.290   9.365
 6258WAT     H119016   7.050   2.255   9.277
 6258WAT     H219017   7.092   2.302   9.428
 6259WAT      O19018   6.643   6.163   8.796
 6259WAT     H119019   6.685   6.246   8.832
 6259WAT     H219020   6.581   6.125   8.864
 6260WAT      O19021   1.077   2.287   6.096
 6260WAT     H119022   1.084   2.386   6.082
 6260WAT     H219023   1.080   2.241   6.007
 6261WAT      O19024   2.835   3.802   8.390
 6261WAT     H119025   2.794   3.874   8.334
 6261WAT     H219026   2.930   3.825   8.409
 6262WAT      O19027   5.162   6.221   7.440
 6262WAT     H119028   5.088   6.180   7.493
 6262WAT     H219029   5.247   6.219   7.494
 6263WAT      O19030   0.746   5.374   9.269
 6263WAT     H119031   0.761   5.348   9.174
 6263WAT     H219032   0.755   5.294   9.328
 6264WAT      O19033   7.788   1.631   9.073
 6264WAT     H119034   7.786   1.603   8.977
 6264WAT     H219035   7.825   1.557   9.129
 6265WAT      O19036   8.212   1.729   5.434
 6265WAT     H119037   8.220   1.630   5.442
 6265WAT     H219038   8.208   1.755   5.338
 6266WAT      O19039   6.201   8.323   5.675
 6266WAT     H119040   6.179   8.247   5.613
 6266WAT     H219041   6.172   8.409   5.633
 6267WAT      O19042   2.428   3.538   5.872
 6267WAT     H119043   2.373   3.457   5.891
 6267WAT     H219044   2.520   3.525   5.908
 6268WAT      O19045   8.486   9.085   4.116
 6268WAT     H119046   8.565   9.064   4.058
 6268WAT     H219047   8.445   9.000   4.148
 6269WAT      O19048   9.347   4.087   0.913
 6269WAT     H119049   9.363   3.992   0.885
 6269WAT     H219050   9.302   4.088   1.003
 6270WAT      O19051   3.056   6.100   2.642
 6270WAT     H119052   3.108   6.123   2.560
 6270WAT     H219053   3.105   6.029   2.693
 6271WAT      O19054   5.507   2.507   0.638
 6271WAT     H119055   5.522   2.409   0.632
 6271WAT     H219056   5.460   2.540   0.557
 6272WAT      O19057   1.129   8.733   8.703
 6272WAT     H119058   1.103   8.777   8.789
 6272WAT     H219059   1.047   8.701   8.656
 6273WAT      O19060   6.824   1.008   7.190
 6273WAT     H119061   6.878   0.994   7.107
 6273WAT     H219062   6.839   1.101   7.224
 6274WAT      O19063   3.573   2.421   7.834
 6274WAT     H119064   3.671   2.416   7.818
 6274WAT     H219065   3.529   2.337   7.803
 6275WAT      O19066   8.736   0.050   5.992
 6275WAT     H119067   8.815   0.094   6.037
 6275WAT     H219068   8.758  -0.045   5.971
 6276WAT      O19069   8.529   5.062   9.558
 6276WAT     H119070   8.558   5.010   9.639
 6276WAT     H219071   8.485   4.999   9.493
 6277WAT      O19072   3.652   2.296   8.732
 6277WAT     H119073   3.609   2.210   8.703
 6277WAT     H219074   3.676   2.290   8.829
 6278WAT      O19075   1.188   0.152   4.710
 6278WAT     H119076   1.215   0.231   4.656
 6278WAT     H219077   1.092   0.160   4.737
 6279WAT      O19078   9.804   0.147   6.946
 6279WAT     H119079   9.832   0.196   6.864
 6279WAT     H219080   9.814   0.207   7.026
 6280WAT      O19081   4.515   6.191   2.028
 6280WAT     H119082   4.573   6.273   2.023
 6280WAT     H219083   4.564   6.114   1.988
 6281WAT      O19084   1.918   7.298   2.142
 6281WAT     H119085   1.827   7.312   2.103
 6281WAT     H219086   1.988   7.317   2.073
 6282WAT      O19087   8.259   4.097   0.734
 6282WAT     H119088   8.212   4.153   0.666
 6282WAT     H219089   8.344   4.142   0.761
 6283WAT      O19090   7.502   6.384   9.894
 6283WAT     H119091   7.425   6.320   9.902
 6283WAT     H219092   7.474   6.463   9.840
 6284WAT      O19093   6.452   0.339   5.676
 6284WAT     H119094   6.454   0.323   5.774
 6284WAT     H219095   6.428   0.253   5.629
 6285WAT      O19096   0.142   6.532   1.413
 6285WAT     H119097   0.094   6.468   1.354
 6285WAT     H219098   0.092   6.542   1.499
 6286WAT      O19099   5.854   3.993   9.404
 6286WAT     H119100   5.883   3.988   9.308
 6286WAT     H219101   5.809   4.081   9.420
 6287WAT      O19102   0.317   7.843   2.004
 6287WAT     H119103   0.237   7.796   2.042
 6287WAT     H219104   0.387   7.851   2.074
 6288WAT      O19105   6.386   4.298   6.758
 6288WAT     H119106   6.294   4.317   6.722
 6288WAT     H219107   6.408   4.365   6.829
 6289WAT      O19108   9.456   6.319   9.184
 6289WAT     H119109   9.540   6.365   9.155
 6289WAT     H219110   9.475   6.262   9.263
 6290WAT      O19111   5.385   7.465   6.778
 6290WAT     H119112   5.385   7.545   6.718
 6290WAT     H219113   5.403   7.383   6.725
 6291WAT      O19114   4.867   9.767   6.598
 6291WAT     H119115   4.939   9.716   6.552
 6291WAT     H219116   4.779   9.719   6.587
 6292WAT      O19117   0.297   6.136   2.586
 6292WAT     H119118   0.351   6.141   2.670
 6292WAT     H219119   0.295   6.041   2.554
 6293WAT      O19120   7.847   1.037   4.439
 6293WAT     H119121   7.822   1.057   4.534
 6293WAT     H219122   7.924   1.095   4.412
 6294WAT      O19123   1.248   9.442   8.682
 6294WAT     H119124   1.178   9.448   8.610
 6294WAT     H219125   1.337   9.462   8.643
 6295WAT      O19126   3.148   5.029   7.452
 6295WAT     H119127   3.088   4.965   7.404
 6295WAT     H219128   3.216   5.066   7.389
 6296WAT      O19129   4.652   8.723   8.777
 6296WAT     H119130   4.653   8.643   8.838
 6296WAT     H219131   4.607   8.698   8.691
 6297WAT      O19132   6.977   9.089   1.494
 6297WAT     H119133   6.963   9.118   1.399
 6297WAT     H219134   6.978   9.169   1.554
 6298WAT      O19135   3.126   4.244   3.740
 6298WAT     H119136   3.171   4.217   3.655
 6298WAT     H219137   3.034   4.279   3.719
 6299WAT      O19138   1.675   1.350   5.071
 6299WAT     H119139   1.768   1.341   5.106
 6299WAT     H219140   1.672   1.421   5.001
 6300WAT      O19141   3.482   5.982   0.450
 6300WAT     H119142   3.466   5.982   0.549
 6300WAT     H219143   3.539   5.903   0.426
 6301WAT      O19144   5.953   7.575   3.616
 6301WAT     H119145   5.872   7.516   3.615
 6301WAT     H219146   5.977   7.599   3.522
 6302WAT      O19147   2.863   5.551   2.644
 6302WAT     H119148   2.817   5.485   2.585
 6302WAT     H219149   2.815   5.557   2.731
 6303WAT      O19150   2.902   0.433   3.230
 6303WAT     H119151   2.987   0.473   3.195
 6303WAT     H219152   2.826   0.497   3.213
 6304WAT      O19153   0.471   5.155   9.665
 6304WAT     H119154   0.441   5.121   9.576
 6304WAT     H219155   0.516   5.244   9.654
 6305WAT      O19156   5.587   5.173   6.701
 6305WAT     H119157   5.509   5.187   6.639
 6305WAT     H219158   5.671   5.196   6.653
 6306WAT      O19159   0.185   6.915   0.697
 6306WAT     H119160   0.269   6.945   0.743
 6306WAT     H219161   0.199   6.824   0.659
 6307WAT      O19162   7.349   2.552   5.263
 6307WAT     H119163   7.260   2.514   5.288
 6307WAT     H219164   7.395   2.490   5.200
 6308WAT      O19165   2.706   9.359   7.430
 6308WAT     H119166   2.669   9.369   7.338
 6308WAT     H219167   2.633   9.371   7.497
 6309WAT      O19168   4.085   0.599   6.287
 6309WAT     H119169   4.113   0.628   6.196
 6309WAT     H219170   4.002   0.648   6.313
 6310WAT      O19171   6.262   3.889   4.542
 6310WAT     H119172   6.243   3.966   4.603
 6310WAT     H219173   6.325   3.825   4.586
 6311WAT      O19174   1.959   6.761   0.628
 6311WAT     H119175   2.028   6.711   0.574
 6311WAT     H219176   1.871   6.757   0.581
 6312WAT      O19177   5.031   0.312   2.013
 6312WAT     H119178   5.116   0.303   2.065
 6312WAT     H219179   4.982   0.224   2.014
 6313WAT      O19180   4.435   9.029   9.887
 6313WAT     H119181   4.508   9.034   9.956
 6313WAT     H219182   4.436   8.938   9.845
 6314WAT      O19183   3.133   8.700   6.310
 6314WAT     H119184   3.079   8.784   6.301
 6314WAT     H219185   3.114   8.658   6.399
 6315WAT      O19186   6.916   1.527   9.453
 6315WAT     H119187   6.937   1.604   9.513
 6315WAT     H219188   6.945   1.442   9.496
 6316WAT      O19189   4.150   0.646   4.976
 6316WAT     H119190   4.061   0.687   4.959
 6316WAT     H219191   4.187   0.680   5.062
 6317WAT      O19192   0.304   1.665   1.486
 6317WAT     H119193   0.349   1.610   1.415
 6317WAT     H219194   0.365   1.674   1.565
 6318WAT      O19195   6.799   9.747   8.491
 6318WAT     H119196   6.884   9.753   8.438
 6318WAT     H219197   6.794   9.824   8.554
 6319WAT      O19198   1.482   0.716   2.423
 6319WAT     H119199   1.473   0.625   2.462
 6319WAT     H219200   1.490   0.709   2.323
 6320WAT      O19201   6.023   0.576   7.118
 6320WAT     H119202   6.004   0.479   7.107
 6320WAT     H219203   5.958   0.629   7.064
 6321WAT      O19204   6.534   3.153   4.383
 6321WAT     H119205   6.629   3.124   4.365
 6321WAT     H219206   6.512   3.139   4.479
 6322WAT      O19207   2.441   7.275   3.236
 6322WAT     H119208   2.462   7.195   3.293
 6322WAT     H219209   2.453   7.251   3.140
 6323WAT      O19210   8.866   1.437   1.026
 6323WAT     H119211   8.875   1.536   1.014
 6323WAT     H219212   8.793   1.418   1.093
 6324WAT      O19213   3.040   4.787   6.339
 6324WAT     H119214   3.021   4.807   6.243
 6324WAT     H219215   2.962   4.741   6.380
 6325WAT      O19216   4.484   1.819   7.735
 6325WAT     H119217   4.543   1.844   7.813
 6325WAT     H219218   4.389   1.819   7.764
 6326WAT      O19219   9.440   4.354   8.199
 6326WAT     H119220   9.398   4.426   8.255
 6326WAT     H219221   9.391   4.347   8.112
 6327WAT      O19222   3.589   2.317   4.494
 6327WAT     H119223   3.551   2.394   4.546
 6327WAT     H219224   3.672   2.284   4.539
 6328WAT      O19225   2.620   0.284   5.070
 6328WAT     H119226   2.637   0.364   5.128
 6328WAT     H219227   2.700   0.266   5.013
 6329WAT      O19228   2.500   1.912   3.590
 6329WAT     H119229   2.407   1.943   3.610
 6329WAT     H219230   2.504   1.812   3.595
 6330WAT      O19231   9.831   6.298   9.517
 6330WAT     H119232   9.854   6.389   9.482
 6330WAT     H219233   9.794   6.242   9.442
 6331WAT      O19234   2.232   0.737   4.500
 6331WAT     H119235   2.267   0.662   4.556
 6331WAT     H219236   2.243   0.715   4.403
 6332WAT      O19237   7.565   4.255   3.861
 6332WAT     H119238   7.598   4.174   3.908
 6332WAT     H219239   7.615   4.335   3.894
 6333WAT      O19240   4.650   2.985   0.954
 6333WAT     H119241   4.642   3.039   1.038
 6333WAT     H219242   4.728   3.017   0.901
 6334WAT      O19243   8.880   4.803   7.230
 6334WAT     H119244   8.801   4.798   7.291
 6334WAT     H219245   8.958   4.841   7.280
 6335WAT      O19246   2.490   3.532   0.100
 6335WAT     H119247   2.576   3.504   0.058
 6335WAT     H219248   2.506   3.558   0.195
 6336WAT      O19249   7.291   5.296   3.834
 6336WAT     H119250   7.338   5.379   3.866
 6336WAT     H219251   7.324   5.271   3.744
 6337WAT      O19252   7.415   7.398   8.195
 6337WAT     H119253   7.434   7.407   8.098
 6337WAT     H219254   7.394   7.302   8.217
 6338WAT      O19255   4.373   8.607   7.590
 6338WAT     H119256   4.372   8.627   7.687
 6338WAT     H219257   4.299   8.657   7.544
 6339WAT      O19258   9.441   5.127   4.900
 6339WAT     H119259   9.526   5.094   4.941
 6339WAT     H219260   9.429   5.084   4.810
 6340WAT      O19261   9.459   7.176   0.672
 6340WAT     H119262   9.453   7.276   0.667
 6340WAT     H219263   9.396   7.136   0.606
 6341WAT      O19264   8.621   0.714   7.941
 6341WAT     H119265   8.718   0.721   7.967
 6341WAT     H219266   8.571   0.792   7.977
 6342WAT      O19267   6.854   4.355   5.072
 6342WAT     H119268   6.861   4.403   4.985
 6342WAT     H219269   6.865   4.419   5.148
 6343WAT      O19270   9.422   0.999   3.049
 6343WAT     H119271   9.517   1.030   3.045
 6343WAT     H219272   9.410   0.921   2.988
 6344WAT      O19273   4.751   9.512   1.826
 6344WAT     H119274   4.695   9.445   1.875
 6344WAT     H219275   4.833   9.467   1.790
 6345WAT      O19276   3.517   9.196   8.105
 6345WAT     H119277   3.579   9.132   8.150
 6345WAT     H219278   3.446   9.226   8.170
 6346WAT      O19279   9.555   4.889   6.664
 6346WAT     H119280   9.536   4.874   6.567
 6346WAT     H219281   9.642   4.938   6.674
 6347WAT      O19282   2.661   6.610   5.540
 6347WAT     H119283   2.659   6.578   5.445
 6347WAT     H219284   2.636   6.707   5.543
 6348WAT      O19285   8.037   9.118   2.032
 6348WAT     H119286   7.965   9.073   1.979
 6348WAT     H219287   8.034   9.216   2.016
 6349WAT      O19288   5.481   8.672   6.155
 6349WAT     H119289   5.532   8.753   6.127
 6349WAT     H219290   5.417   8.697   6.228
 6350WAT      O19291   7.085   4.289   6.515
 6350WAT     H119292   7.065   4.371   6.462
 6350WAT     H219293   7.112   4.215   6.454
 6351WAT      O19294   3.450   4.152   2.361
 6351WAT     H119295   3.508   4.094   2.419
 6351WAT     H219296   3.508   4.211   2.305
 6352WAT      O19297   0.440   9.429   4.225
 6352WAT     H119298   0.506   9.499   4.198
 6352WAT     H219299   0.399   9.454   4.313
 6353WAT      O19300   5.305   4.799   1.388
 6353WAT     H119301   5.375   4.823   1.320
 6353WAT     H219302   5.344   4.737   1.456
 6354WAT      O19303   5.804   3.226   4.865
 6354WAT     H119304   5.819   3.261   4.957
 6354WAT     H219305   5.892   3.212   4.820
 6355WAT      O19306   7.505   1.335   6.067
 6355WAT     H119307   7.444   1.412   6.086
 6355WAT     H219308   7.451   1.255   6.043
 6356WAT      O19309   8.866   3.789   4.882
 6356WAT     H119310   8.956   3.746   4.875
 6356WAT     H219311   8.874   3.876   4.931
 6357WAT      O19312   6.814   3.094   6.448
 6357WAT     H119313   6.814   3.050   6.358
 6357WAT     H219314   6.733   3.151   6.458
 6358WAT      O19315   1.705   4.775   9.089
 6358WAT     H119316   1.714   4.714   9.010
 6358WAT     H219317   1.791   4.824   9.104
 6359WAT      O19318   1.336   5.922   0.414
 6359WAT     H119319   1.382   5.987   0.475
 6359WAT     H219320   1.250   5.892   0.457
 6360WAT      O19321   6.697   8.413   6.916
 6360WAT     H119322   6.763   8.488   6.905
 6360WAT     H219323   6.739   8.340   6.970
 6361WAT      O19324   7.233   3.770   4.933
 6361WAT     H119325   7.246   3.781   5.032
 6361WAT     H219326   7.308   3.716   4.895
 6362WAT      O19327   3.417   9.491   2.176
 6362WAT     H119328   3.360   9.540   2.241
 6362WAT     H219329   3.446   9.404   2.216
 6363WAT      O19330   9.183   3.035   9.566
 6363WAT     H119331   9.213   2.955   9.618
 6363WAT     H219332   9.247   3.111   9.582
 6364WAT      O19333   6.996   2.743   4.879
 6364WAT     H119334   7.075   2.690   4.845
 6364WAT     H219335   6.933   2.682   4.927
 6365WAT      O19336   2.871   8.495   8.444
 6365WAT     H119337   2.781   8.458   8.420
 6365WAT     H219338   2.864   8.594   8.455
 6366WAT      O19339   5.675   4.025   3.082
 6366WAT     H119340   5.642   3.938   3.047
 6366WAT     H219341   5.598   4.088   3.091
 6367WAT      O19342   7.011   0.086   2.976
 6367WAT     H119343   6.945   0.136   3.032
 6367WAT     H219344   7.059   0.019   3.033
 6368WAT      O19345   0.668   2.237   3.117
 6368WAT     H119346   0.579   2.193   3.116
 6368WAT     H219347   0.661   2.330   3.081
 6369WAT      O19348   9.844   0.618   9.537
 6369WAT     H119349   9.767   0.673   9.505
 6369WAT     H219350   9.923   0.634   9.478
 6370WAT      O19351   9.665   0.138   4.706
 6370WAT     H119352   9.587   0.101   4.757
 6370WAT     H219353   9.639   0.152   4.611
 6371WAT      O19354   9.511   7.040   6.072
 6371WAT     H119355   9.457   6.957   6.088
 6371WAT     H219356   9.512   7.061   5.974
 6372WAT      O19357   5.045   2.052   0.315
 6372WAT     H119358   5.020   2.144   0.344
 6372WAT     H219359   5.145   2.044   0.314
 6373WAT      O19360   6.556   3.336   1.908
 6373WAT     H119361   6.619   3.264   1.939
 6373WAT     H219362   6.600   3.390   1.836
 6374WAT      O19363   6.948   5.702   1.394
 6374WAT     H119364   6.978   5.755   1.473
 6374WAT     H219365   6.952   5.759   1.311
 6375WAT      O19366   9.808   7.413   4.383
 6375WAT     H119367   9.894   7.369   4.356
 6375WAT     H219368   9.788   7.391   4.479
 6376WAT      O19369   9.045   4.915   9.835
 6376WAT     H119370   9.129   4.960   9.865
 6376WAT     H219371   9.012   4.959   9.751
 6377WAT      O19372   9.765   7.011   1.690
 6377WAT     H119373   9.692   7.017   1.759
 6377WAT     H219374   9.826   7.089   1.700
 6378WAT      O19375   3.359   9.773   0.332
 6378WAT     H119376   3.321   9.865   0.327
 6378WAT     H219377   3.457   9.776   0.314
 6379WAT      O19378   9.240   6.352   4.850
 6379WAT     H119379   9.141   6.365   4.851
 6379WAT     H219380   9.275   6.370   4.758
 6380WAT      O19381   4.128   7.562   4.500
 6380WAT     H119382   4.142   7.517   4.588
 6380WAT     H219383   4.188   7.521   4.431
 6381WAT      O19384   6.046   5.342   8.587
 6381WAT     H119385   6.041   5.286   8.505
 6381WAT     H219386   6.014   5.434   8.567
 6382WAT      O19387   6.201   1.028   8.727
 6382WAT     H119388   6.297   1.004   8.740
 6382WAT     H219389   6.183   1.041   8.629
 6383WAT      O19390   2.543   9.186   9.537
 6383WAT     H119391   2.587   9.276   9.537
 6383WAT     H219392   2.610   9.116   9.564
 6384WAT      O19393   5.793   1.520   7.129
 6384WAT     H119394   5.705   1.523   7.082
 6384WAT     H219395   5.823   1.614   7.148
 6385WAT      O19396   0.411   7.729   4.405
 6385WAT     H119397   0.334   7.674   4.374
 6385WAT     H219398   0.448   7.781   4.328
 6386WAT      O19399   8.121   8.552   6.668
 6386WAT     H119400   8.191   8.501   6.617
 6386WAT     H219401   8.049   8.489   6.698
 6387WAT      O19402   0.409   6.330   6.356
 6387WAT     H119403   0.389   6.414   6.306
 6387WAT     H219404   0.342   6.260   6.331
 6388WAT      O19405   0.902   4.875   7.116
 6388WAT     H119406   0.857   4.942   7.174
 6388WAT     H219407   0.999   4.898   7.106
 6389WAT      O19408   2.956   3.111   5.261
 6389WAT     H119409   2.927   3.074   5.349
 6389WAT     H219410   3.000   3.039   5.208
 6390WAT      O19411   2.703   1.586   9.541
 6390WAT     H119412   2.611   1.623   9.555
 6390WAT     H219413   2.703   1.528   9.459
 6391WAT      O19414   5.697   9.411   9.155
 6391WAT     H119415   5.764   9.383   9.223
 6391WAT     H219416   5.739   9.474   9.089
 6392WAT      O19417   7.461   7.280   2.523
 6392WAT     H119418   7.544   7.241   2.563
 6392WAT     H219419   7.381   7.228   2.554
 6393WAT      O19420   6.679   3.372   6.066
 6393WAT     H119421   6.778   3.360   6.078
 6393WAT     H219422   6.645   3.439   6.132
 6394WAT      O19423   2.295   1.185   9.670
 6394WAT     H119424   2.247   1.271   9.653
 6394WAT     H219425   2.348   1.193   9.755
 6395WAT      O19426   3.979   2.106   1.850
 6395WAT     H119427   3.992   2.140   1.943
 6395WAT     H219428   3.983   2.006   1.849
 6396WAT      O19429   8.412   2.166   6.422
 6396WAT     H119430   8.353   2.126   6.353
 6396WAT     H219431   8.358   2.228   6.480
 6397WAT      O19432   4.512   4.275   9.523
 6397WAT     H119433   4.437   4.239   9.579
 6397WAT     H219434   4.484   4.362   9.482
 6398WAT      O19435   6.578   5.196   2.557
 6398WAT     H119436   6.628   5.254   2.493
 6398WAT     H219437   6.487   5.233   2.572
 6399WAT      O19438   9.729   3.610   8.983
 6399WAT     H119439   9.755   3.655   8.898
 6399WAT     H219440   9.636   3.639   9.009
 6400WAT      O19441   5.063   6.844   5.508
 6400WAT     H119442   5.137   6.878   5.565
 6400WAT     H219443   5.082   6.863   5.412
 6401WAT      O19444   5.613   3.739   7.501
 6401WAT     H119445   5.600   3.687   7.417
 6401WAT     H219446   5.524   3.759   7.541
 6402WAT      O19447   0.641   2.201   3.894
 6402WAT     H119448   0.700   2.275   3.927
 6402WAT     H219449   0.617   2.218   3.798
 6403WAT      O19450   4.542   5.013   1.557
 6403WAT     H119451   4.603   4.934   1.564
 6403WAT     H219452   4.448   4.985   1.579
 6404WAT      O19453   8.357   3.656   4.993
 6404WAT     H119454   8.454   3.673   4.974
 6404WAT     H219455   8.329   3.570   4.950
 6405WAT      O19456   1.729   1.735   9.236
 6405WAT     H119457   1.671   1.810   9.269
 6405WAT     H219458   1.726   1.659   9.302
 6406WAT      O19459   1.995   9.185   5.344
 6406WAT     H119460   1.907   9.148   5.373
 6406WAT     H219461   2.052   9.111   5.307
 6407WAT      O19462   7.367   6.635   6.800
 6407WAT     H119463   7.351   6.540   6.824
 6407WAT     H219464   7.457   6.645   6.758
 6408WAT      O19465   9.695   0.487   1.047
 6408WAT     H119466   9.760   0.418   1.014
 6408WAT     H219467   9.653   0.533   0.968
 6409WAT      O19468   1.224   5.374   0.758
 6409WAT     H119469   1.228   5.275   0.750
 6409WAT     H219470   1.315   5.410   0.779
 6410WAT      O19471   7.242   8.408   5.452
 6410WAT     H119472   7.171   8.474   5.476
 6410WAT     H219473   7.241   8.393   5.353
 6411WAT      O19474   5.881   8.647   2.208
 6411WAT     H119475   5.901   8.731   2.157
 6411WAT     H219476   5.967   8.609   2.242
 6412WAT      O19477   1.667   6.869   2.240
 6412WAT     H119478   1.650   6.962   2.208
 6412WAT     H219479   1.596   6.808   2.203
 6413WAT      O19480   3.952   4.849   4.683
 6413WAT     H119481   3.963   4.750   4.689
 6413WAT     H219482   3.867   4.876   4.727
 6414WAT      O19483   0.212   1.466   1.769
 6414WAT     H119484   0.293   1.489   1.821
 6414WAT     H219485   0.205   1.367   1.759
 6415WAT      O19486   2.729   3.549   6.071
 6415WAT     H119487   2.732   3.637   6.118
 6415WAT     H219488   2.771   3.558   5.981
 6416WAT      O19489   2.408   0.179   5.217
 6416WAT     H119490   2.479   0.238   5.179
 6416WAT     H219491   2.379   0.113   5.147
 6417WAT      O19492   6.019   3.512   9.706
 6417WAT     H119493   6.005   3.433   9.765
 6417WAT     H219494   6.112   3.547   9.720
 6418WAT      O19495   9.490   3.275   0.419
 6418WAT     H119496   9.586   3.253   0.398
 6418WAT     H219497   9.431   3.235   0.349
 6419WAT      O19498   0.321   5.719   6.490
 6419WAT     H119499   0.270   5.773   6.422
 6419WAT     H219500   0.414   5.757   6.499
 6420WAT      O19501   2.268   9.033   1.362
 6420WAT     H119502   2.261   9.096   1.284
 6420WAT     H219503   2.177   9.000   1.386
 6421WAT      O19504   1.626   5.321   1.877
 6421WAT     H119505   1.633   5.246   1.944
 6421WAT     H219506   1.576   5.289   1.797
 6422WAT      O19507   6.100   2.258   3.999
 6422WAT     H119508   6.148   2.343   3.976
 6422WAT     H219509   6.085   2.205   3.916
 6423WAT      O19510   5.267   9.620   6.381
 6423WAT     H119511   5.305   9.712   6.383
 6423WAT     H219512   5.297   9.569   6.462
 6424WAT      O19513   2.253   5.137   2.282
 6424WAT     H119514   2.255   5.234   2.255
 6424WAT     H219515   2.343   5.111   2.318
 6425WAT      O19516   1.639   3.591   8.379
 6425WAT     H119517   1.682   3.530   8.445
 6425WAT     H219518   1.540   3.576   8.381
 6426WAT      O19519   1.933   8.648   3.507
 6426WAT     H119520   1.988   8.668   3.588
 6426WAT     H219521   1.886   8.561   3.519
 6427WAT      O19522   3.585   9.195   4.701
 6427WAT     H119523   3.578   9.162   4.607
 6427WAT     H219524   3.512   9.261   4.718
 6428WAT      O19525   3.222   4.691   6.909
 6428WAT     H119526   3.131   4.731   6.917
 6428WAT     H219527   3.279   4.751   6.853
 6429WAT      O19528   4.532   1.451   2.775
 6429WAT     H119529   4.437   1.478   2.791
 6429WAT     H219530   4.566   1.497   2.692
 6430WAT      O19531   6.345   7.209   5.696
 6430WAT     H119532   6.247   7.229   5.702
 6430WAT     H219533   6.395   7.293   5.676
 6431WAT      O19534   4.932   3.131   2.929
 6431WAT     H119535   4.848   3.122   2.875
 6431WAT     H219536   5.009   3.094   2.877
 6432WAT      O19537   9.837   5.965   9.768
 6432WAT     H119538   9.752   5.962   9.715
 6432WAT     H219539   9.890   5.882   9.750
 6433WAT      O19540   1.334   3.014   0.619
 6433WAT     H119541   1.306   3.054   0.532
 6433WAT     H219542   1.272   2.939   0.643
 6434WAT      O19543   8.601   8.337   2.162
 6434WAT     H119544   8.606   8.435   2.144
 6434WAT     H219545   8.506   8.311   2.179
 6435WAT      O19546   6.584   1.835   3.951
 6435WAT     H119547   6.560   1.835   4.048
 6435WAT     H219548   6.561   1.747   3.910
 6436WAT      O19549   0.659   4.858   5.455
 6436WAT     H119550   0.581   4.913   5.486
 6436WAT     H219551   0.648   4.764   5.487
 6437WAT      O19552   5.274   5.735   4.459
 6437WAT     H119553   5.177   5.751   4.440
 6437WAT     H219554   5.290   5.637   4.471
 6438WAT      O19555   2.773   2.160   0.340
 6438WAT     H119556   2.798   2.140   0.435
 6438WAT     H219557   2.852   2.147   0.281
 6439WAT      O19558   4.918   3.805   8.814
 6439WAT     H119559   4.992   3.867   8.841
 6439WAT     H219560   4.951   3.711   8.816
 6440WAT      O19561   7.365   8.843   9.695
 6440WAT     H119562   7.414   8.878   9.775
 6440WAT     H219563   7.387   8.898   9.615
 6441WAT      O19564   9.369   5.678   0.302
 6441WAT     H119565   9.306   5.601   0.293
 6441WAT     H219566   9.379   5.723   0.213
 6442WAT      O19567   8.385   5.419   3.175
 6442WAT     H119568   8.429   5.404   3.087
 6442WAT     H219569   8.407   5.509   3.210
 6443WAT      O19570   2.207   5.523   0.885
 6443WAT     H119571   2.303   5.505   0.909
 6443WAT     H219572   2.148   5.477   0.952
 6444WAT      O19573   8.954   6.172   1.209
 6444WAT     H119574   8.930   6.094   1.266
 6444WAT     H219575   9.045   6.206   1.236
 6445WAT      O19576   3.805   8.350   1.704
 6445WAT     H119577   3.721   8.371   1.654
 6445WAT     H219578   3.805   8.253   1.730
 6446WAT      O19579   7.702   8.515   2.233
 6446WAT     H119580   7.770   8.466   2.288
 6446WAT     H219581   7.745   8.593   2.188
 6447WAT      O19582   0.424   1.322   7.889
 6447WAT     H119583   0.377   1.234   7.896
 6447WAT     H219584   0.517   1.308   7.857
 6448WAT      O19585   5.190   1.690   2.954
 6448WAT     H119586   5.099   1.648   2.956
 6448WAT     H219587   5.258   1.626   2.988
 6449WAT      O19588   1.367   7.182   8.838
 6449WAT     H119589   1.460   7.160   8.867
 6449WAT     H219590   1.313   7.098   8.832
 6450WAT      O19591   1.457   5.972   8.419
 6450WAT     H119592   1.373   5.994   8.369
 6450WAT     H219593   1.481   6.050   8.478
 6451WAT      O19594   8.413   5.624   9.711
 6451WAT     H119595   8.376   5.586   9.626
 6451WAT     H219596   8.349   5.690   9.748
 6452WAT      O19597   3.966   4.984   1.158
 6452WAT     H119598   3.897   4.952   1.223
 6452WAT     H219599   3.982   4.914   1.088
 6453WAT      O19600   5.763   2.610   1.045
 6453WAT     H119601   5.763   2.510   1.039
 6453WAT     H219602   5.821   2.638   1.121
 6454WAT      O19603   0.959   0.192   3.196
 6454WAT     H119604   0.911   0.111   3.164
 6454WAT     H219605   0.924   0.219   3.285
 6455WAT      O19606   0.588   2.322   4.664
 6455WAT     H119607   0.622   2.380   4.739
 6455WAT     H219608   0.503   2.277   4.693
 6456WAT      O19609   4.058   4.988   2.392
 6456WAT     H119610   4.001   5.010   2.471
 6456WAT     H219611   4.080   4.891   2.393
 6457WAT      O19612   9.494   2.897   1.838
 6457WAT     H119613   9.442   2.832   1.783
 6457WAT     H219614   9.546   2.848   1.908
 6458WAT      O19615   3.369   0.584   5.519
 6458WAT     H119616   3.333   0.609   5.609
 6458WAT     H219617   3.315   0.629   5.448
 6459WAT      O19618   7.425   5.503   0.866
 6459WAT     H119619   7.446   5.534   0.958
 6459WAT     H219620   7.369   5.420   0.871
 6460WAT      O19621   1.543   7.414   8.541
 6460WAT     H119622   1.505   7.498   8.579
 6460WAT     H219623   1.608   7.375   8.606
 6461WAT      O19624   7.189   8.619   7.240
 6461WAT     H119625   7.240   8.705   7.229
 6461WAT     H219626   7.136   8.623   7.325
 6462WAT      O19627   5.837   9.473   4.633
 6462WAT     H119628   5.924   9.517   4.653
 6462WAT     H219629   5.763   9.538   4.646
 6463WAT      O19630   8.563   4.254   6.635
 6463WAT     H119631   8.660   4.233   6.620
 6463WAT     H219632   8.555   4.331   6.697
 6464WAT      O19633   0.010   7.768   8.169
 6464WAT     H119634  -0.012   7.783   8.265
 6464WAT     H219635   0.100   7.726   8.162
 6465WAT      O19636   0.234   6.358   8.129
 6465WAT     H119637   0.327   6.356   8.166
 6465WAT     H219638   0.191   6.445   8.151
 6466WAT      O19639   6.478   2.829   7.195
 6466WAT     H119640   6.422   2.907   7.225
 6466WAT     H219641   6.476   2.758   7.265
 6467WAT      O19642   2.323   3.000   8.420
 6467WAT     H119643   2.257   3.053   8.367
 6467WAT     H219644   2.399   3.059   8.447
 6468WAT      O19645   6.214   5.843   7.618
 6468WAT     H119646   6.176   5.935   7.616
 6468WAT     H219647   6.175   5.789   7.543
 6469WAT      O19648   8.231   2.918   0.700
 6469WAT     H119649   8.273   2.909   0.790
 6469WAT     H219650   8.222   2.827   0.658
 6470WAT      O19651   5.317   1.848   7.819
 6470WAT     H119652   5.227   1.809   7.799
 6470WAT     H219653   5.363   1.871   7.733
 6471WAT      O19654   4.925   5.510   8.133
 6471WAT     H119655   4.936   5.451   8.054
 6471WAT     H219656   5.015   5.543   8.163
 6472WAT      O19657   1.104   4.372   3.367
 6472WAT     H119658   1.016   4.362   3.320
 6472WAT     H219659   1.139   4.282   3.393
 6473WAT      O19660   1.678   1.946   9.701
 6473WAT     H119661   1.720   1.863   9.664
 6473WAT     H219662   1.611   1.982   9.635
 6474WAT      O19663   1.547   3.056   9.814
 6474WAT     H119664   1.455   3.050   9.776
 6474WAT     H219665   1.593   2.968   9.804
 6475WAT      O19666   8.038   5.139   3.697
 6475WAT     H119667   8.053   5.161   3.794
 6475WAT     H219668   8.036   5.040   3.685
 6476WAT      O19669   5.210   4.965   6.360
 6476WAT     H119670   5.131   4.906   6.374
 6476WAT     H219671   5.190   5.057   6.393
 6477WAT      O19672   7.832   1.258   9.076
 6477WAT     H119673   7.862   1.239   8.982
 6477WAT     H219674   7.887   1.333   9.114
 6478WAT      O19675   0.338   3.138   4.539
 6478WAT     H119676   0.403   3.070   4.572
 6478WAT     H219677   0.315   3.202   4.613
 6479WAT      O19678   4.786   3.107   7.306
 6479WAT     H119679   4.879   3.072   7.306
 6479WAT     H219680   4.758   3.130   7.400
 6480WAT      O19681   8.848   8.654   8.824
 6480WAT     H119682   8.895   8.682   8.740
 6480WAT     H219683   8.833   8.734   8.882
 6481WAT      O19684   8.810   8.940   1.239
 6481WAT     H119685   8.793   8.922   1.142
 6481WAT     H219686   8.762   9.024   1.266
 6482WAT      O19687   0.672   2.630   8.008
 6482WAT     H119688   0.608   2.606   8.081
 6482WAT     H219689   0.671   2.559   7.938
 6483WAT      O19690   6.827   2.271   4.475
 6483WAT     H119691   6.916   2.306   4.444
 6483WAT     H219692   6.754   2.328   4.439
 6484WAT      O19693   0.614   6.009   6.530
 6484WAT     H119694   0.591   6.013   6.627
 6484WAT     H219695   0.661   5.923   6.509
 6485WAT      O19696   4.774   9.591   5.660
 6485WAT     H119697   4.795   9.518   5.725
 6485WAT     H219698   4.779   9.554   5.567
 6486WAT      O19699   8.177   8.537   5.265
 6486WAT     H119700   8.267   8.496   5.254
 6486WAT     H219701   8.144   8.523   5.358
 6487WAT      O19702   5.077   3.715   6.768
 6487WAT     H119703   5.000   3.716   6.832
 6487WAT     H219704   5.094   3.808   6.735
 6488WAT      O19705   3.528   3.817   2.238
 6488WAT     H119706   3.540   3.902   2.185
 6488WAT     H219707   3.597   3.812   2.309
 6489WAT      O19708   2.319   5.729   9.165
 6489WAT     H119709   2.237   5.785   9.161
 6489WAT     H219710   2.350   5.723   9.260
 6490WAT      O19711   3.401   9.821   7.858
 6490WAT     H119712   3.412   9.920   7.852
 6490WAT     H219713   3.333   9.799   7.928
 6491WAT      O19714   9.296   3.416   4.623
 6491WAT     H119715   9.295   3.515   4.633
 6491WAT     H219716   9.219   3.387   4.567
 6492WAT      O19717   2.376   3.641   8.034
 6492WAT     H119718   2.313   3.569   8.005
 6492WAT     H219719   2.468   3.621   7.999
 6493WAT      O19720   5.234   1.147   8.261
 6493WAT     H119721   5.334   1.155   8.261
 6493WAT     H219722   5.208   1.051   8.249
 6494WAT      O19723   1.900   9.838   0.496
 6494WAT     H119724   1.892   9.761   0.559
 6494WAT     H219725   1.910   9.923   0.549
 6495WAT      O19726   2.498   0.882   8.980
 6495WAT     H119727   2.546   0.925   9.056
 6495WAT     H219728   2.428   0.819   9.015
 6496WAT      O19729   4.389   4.020   6.899
 6496WAT     H119730   4.356   4.023   6.805
 6496WAT     H219731   4.471   4.077   6.908
 6497WAT      O19732   0.753   7.084   8.987
 6497WAT     H119733   0.785   7.057   8.896
 6497WAT     H219734   0.739   7.002   9.043
 6498WAT      O19735   0.026   0.216   3.012
 6498WAT     H119736  -0.032   0.209   3.094
 6498WAT     H219737   0.089   0.139   3.010
 6499WAT      O19738   9.728   1.542   8.629
 6499WAT     H119739   9.678   1.455   8.639
 6499WAT     H219740   9.794   1.534   8.555
 6500WAT      O19741   3.641   2.938   4.273
 6500WAT     H119742   3.617   2.881   4.194
 6500WAT     H219743   3.680   3.024   4.241
 6501WAT      O19744   6.219   4.056   8.906
 6501WAT     H119745   6.133   4.049   8.956
 6501WAT     H219746   6.208   4.121   8.830
 6502WAT      O19747   7.595   1.252   3.941
 6502WAT     H119748   7.602   1.174   3.879
 6502WAT     H219749   7.546   1.225   4.024
 6503WAT      O19750   7.959   8.846   2.343
 6503WAT     H119751   7.939   8.787   2.265
 6503WAT     H219752   7.874   8.879   2.384
 6504WAT      O19753   5.686   5.231   9.402
 6504WAT     H119754   5.673   5.234   9.303
 6504WAT     H219755   5.745   5.307   9.430
 6505WAT      O19756   8.727   7.759   6.647
 6505WAT     H119757   8.758   7.674   6.604
 6505WAT     H219758   8.806   7.815   6.672
 6506WAT      O19759   9.119   8.027   2.309
 6506WAT     H119760   9.076   8.117   2.306
 6506WAT     H219761   9.216   8.038   2.335
 6507WAT      O19762   1.441   7.459   8.843
 6507WAT     H119763   1.366   7.517   8.811
 6507WAT     H219764   1.420   7.364   8.822
 6508WAT      O19765   1.418   1.142   0.517
 6508WAT     H119766   1.439   1.091   0.433
 6508WAT     H219767   1.335   1.104   0.559
 6509WAT      O19768   8.526   8.177   5.246
 6509WAT     H119769   8.615   8.169   5.290
 6509WAT     H219770   8.512   8.099   5.185
 6510WAT      O19771   0.684   2.768   3.509
 6510WAT     H119772   0.643   2.857   3.490
 6510WAT     H219773   0.669   2.707   3.431
 6511WAT      O19774   1.501   4.509   8.190
 6511WAT     H119775   1.516   4.567   8.110
 6511WAT     H219776   1.404   4.508   8.213
 6512WAT      O19777   2.712   3.960   8.187
 6512WAT     H119778   2.612   3.961   8.189
 6512WAT     H219779   2.743   3.930   8.097
 6513WAT      O19780   0.537   7.960   5.053
 6513WAT     H119781   0.484   7.958   5.138
 6513WAT     H219782   0.487   7.912   4.981
 6514WAT      O19783   7.680   0.227   0.630
 6514WAT     H119784   7.722   0.151   0.580
 6514WAT     H219785   7.635   0.288   0.565
 6515WAT      O19786   7.671   9.603   5.245
 6515WAT     H119787   7.629   9.667   5.309
 6515WAT     H219788   7.681   9.513   5.289
 6516WAT      O19789   8.759   2.891   5.431
 6516WAT     H119790   8.848   2.847   5.443
 6516WAT     H219791   8.762   2.984   5.468
 6517WAT      O19792   6.614   4.396   4.669
 6517WAT     H119793   6.596   4.481   4.619
 6517WAT     H219794   6.598   4.318   4.608
 6518WAT      O19795   5.028   7.259   3.383
 6518WAT     H119796   4.998   7.202   3.307
 6518WAT     H219797   5.111   7.220   3.424
 6519WAT      O19798   2.461   5.503   2.426
 6519WAT     H119799   2.446   5.466   2.518
 6519WAT     H219800   2.534   5.570   2.428
 6520WAT      O19801   1.223   9.791   3.124
 6520WAT     H119802   1.283   9.870   3.115
 6520WAT     H219803   1.164   9.802   3.204
 6521WAT      O19804   7.234   1.297   2.467
 6521WAT     H119805   7.180   1.339   2.395
 6521WAT     H219806   7.192   1.210   2.493
 6522WAT      O19807   8.596   6.387   5.468
 6522WAT     H119808   8.582   6.342   5.379
 6522WAT     H219809   8.596   6.318   5.540
 6523WAT      O19810   0.109   0.205   7.598
 6523WAT     H119811   0.195   0.159   7.614
 6523WAT     H219812   0.086   0.262   7.677
 6524WAT      O19813   0.465   2.950   1.815
 6524WAT     H119814   0.467   2.884   1.891
 6524WAT     H219815   0.545   2.936   1.757
 6525WAT      O19816   8.042   3.889   2.750
 6525WAT     H119817   8.100   3.817   2.789
 6525WAT     H219818   8.099   3.962   2.713
 6526WAT      O19819   2.770   6.575   0.482
 6526WAT     H119820   2.769   6.537   0.389
 6526WAT     H219821   2.753   6.674   0.478
 6527WAT      O19822   9.547   3.741   4.694
 6527WAT     H119823   9.548   3.801   4.614
 6527WAT     H219824   9.481   3.776   4.760
 6528WAT      O19825   0.277   4.434   6.546
 6528WAT     H119826   0.289   4.513   6.486
 6528WAT     H219827   0.233   4.464   6.631
 6529WAT      O19828   6.629   6.977   5.845
 6529WAT     H119829   6.575   6.895   5.864
 6529WAT     H219830   6.601   7.015   5.757
 6530WAT      O19831   3.108   3.300   3.761
 6530WAT     H119832   3.178   3.260   3.702
 6530WAT     H219833   3.129   3.277   3.857
 6531WAT      O19834   1.487   9.073   9.553
 6531WAT     H119835   1.565   9.128   9.522
 6531WAT     H219836   1.420   9.066   9.480
 6532WAT      O19837   7.532   5.672   7.510
 6532WAT     H119838   7.433   5.679   7.515
 6532WAT     H219839   7.561   5.581   7.541
 6533WAT      O19840   7.872   9.262   8.248
 6533WAT     H119841   7.934   9.235   8.174
 6533WAT     H219842   7.835   9.353   8.228
 6534WAT      O19843   7.063   9.813   4.097
 6534WAT     H119844   6.970   9.847   4.114
 6534WAT     H219845   7.062   9.713   4.098
 6535WAT      O19846   0.907   6.637   5.960
 6535WAT     H119847   0.951   6.576   5.894
 6535WAT     H219848   0.927   6.605   6.053
 6536WAT      O19849   2.899   2.285   1.511
 6536WAT     H119850   2.899   2.191   1.547
 6536WAT     H219851   2.976   2.335   1.550
 6537WAT      O19852   9.211   7.640   2.287
 6537WAT     H119853   9.192   7.554   2.333
 6537WAT     H219854   9.310   7.654   2.281
 6538WAT      O19855   7.787   7.792   0.282
 6538WAT     H119856   7.848   7.869   0.266
 6538WAT     H219857   7.826   7.732   0.351
 6539WAT      O19858   4.728   9.409   2.366
 6539WAT     H119859   4.807   9.406   2.304
 6539WAT     H219860   4.671   9.488   2.342
 6540WAT      O19861   6.258   1.002   3.326
 6540WAT     H119862   6.186   1.005   3.395
 6540WAT     H219863   6.323   1.076   3.341
 6541WAT      O19864   6.700   6.824   1.750
 6541WAT     H119865   6.735   6.913   1.779
 6541WAT     H219866   6.776   6.764   1.726
 6542WAT      O19867   9.717   0.838   8.625
 6542WAT     H119868   9.626   0.800   8.635
 6542WAT     H219869   9.774   0.810   8.702
 6543WAT      O19870   4.922   5.060   7.038
 6543WAT     H119871   4.956   4.977   6.995
 6543WAT     H219872   4.840   5.092   6.990
 6544WAT      O19873   1.238   7.321   5.294
 6544WAT     H119874   1.299   7.298   5.218
 6544WAT     H219875   1.289   7.369   5.365
 6545WAT      O19876   3.781   7.253   2.200
 6545WAT     H119877   3.759   7.267   2.104
 6545WAT     H219878   3.839   7.172   2.211
 6546WAT      O19879   9.189   3.044   0.498
 6546WAT     H119880   9.267   2.981   0.500
 6546WAT     H219881   9.122   3.012   0.431
 6547WAT      O19882   6.498   2.034   5.286
 6547WAT     H119883   6.588   2.003   5.256
 6547WAT     H219884   6.431   1.961   5.271
 6548WAT      O19885   8.993   6.480   8.661
 6548WAT     H119886   8.971   6.440   8.750
 6548WAT     H219887   8.909   6.509   8.615
 6549WAT      O19888   1.943   0.028   2.947
 6549WAT     H119889   1.895  -0.002   3.029
 6549WAT     H219890   1.947  -0.047   2.881
 6550WAT      O19891   7.667   6.342   2.712
 6550WAT     H119892   7.753   6.385   2.684
 6550WAT     H219893   7.668   6.327   2.811
 6551WAT      O19894   5.825   4.221   6.772
 6551WAT     H119895   5.768   4.147   6.737
 6551WAT     H219896   5.816   4.225   6.872
 6552WAT      O19897   5.132   6.610   3.465
 6552WAT     H119898   5.217   6.557   3.468
 6552WAT     H219899   5.083   6.600   3.552
 6553WAT      O19900   9.194   7.074   2.101
 6553WAT     H119901   9.259   7.071   2.025
 6553WAT     H219902   9.237   7.039   2.184
 6554WAT      O19903   5.186   2.453   4.490
 6554WAT     H119904   5.213   2.365   4.531
 6554WAT     H219905   5.149   2.437   4.398
 6555WAT      O19906   2.569   3.420   8.736
 6555WAT     H119907   2.566   3.392   8.640
 6555WAT     H219908   2.594   3.342   8.792
 6556WAT      O19909   4.977   8.943   0.676
 6556WAT     H119910   4.900   8.917   0.618
 6556WAT     H219911   4.948   9.013   0.742
 6557WAT      O19912   8.306   9.501   7.612
 6557WAT     H119913   8.374   9.514   7.684
 6557WAT     H219914   8.344   9.530   7.524
 6558WAT      O19915   5.228   7.870   9.830
 6558WAT     H119916   5.220   7.948   9.768
 6558WAT     H219917   5.322   7.838   9.831
 6559WAT      O19918   9.712   7.517   9.469
 6559WAT     H119919   9.629   7.505   9.414
 6559WAT     H219920   9.755   7.427   9.482
 6560WAT      O19921   7.948   2.252   5.569
 6560WAT     H119922   7.860   2.281   5.530
 6560WAT     H219923   8.009   2.331   5.575
 6561WAT      O19924   0.659   8.050   1.765
 6561WAT     H119925   0.564   8.080   1.759
 6561WAT     H219926   0.717   8.112   1.712
 6562WAT      O19927   0.132   1.934   7.433
 6562WAT     H119928   0.224   1.935   7.393
 6562WAT     H219929   0.135   1.974   7.524
 6563WAT      O19930   0.875   9.504   8.058
 6563WAT     H119931   0.882   9.407   8.035
 6563WAT     H219932   0.858   9.513   8.156
 6564WAT      O19933   9.538   7.514   7.907
 6564WAT     H119934   9.609   7.541   7.973
 6564WAT     H219935   9.556   7.558   7.819
 6565WAT      O19936   9.409   9.733   1.522
 6565WAT     H119937   9.397   9.814   1.579
 6565WAT     H219938   9.359   9.657   1.562
 6566WAT      O19939   7.571   9.234   8.520
 6566WAT     H119940   7.546   9.148   8.565
 6566WAT     H219941   7.524   9.310   8.566
 6567WAT      O19942   8.456   7.834   7.200
 6567WAT     H119943   8.533   7.881   7.157
 6567WAT     H219944   8.439   7.747   7.153
 6568WAT      O19945   9.862   1.771   0.360
 6568WAT     H119946   9.941   1.774   0.300
 6568WAT     H219947   9.790   1.831   0.325
 6569WAT      O19948   3.211   2.188   7.599
 6569WAT     H119949   3.169   2.253   7.536
 6569WAT     H219950   3.155   2.180   7.681
 6570WAT      O19951   3.687   3.500   7.543
 6570WAT     H119952   3.700   3.597   7.563
 6570WAT     H219953   3.769   3.449   7.571
 6571WAT      O19954   1.593   5.571   3.761
 6571WAT     H119955   1.536   5.637   3.710
 6571WAT     H219956   1.538   5.490   3.782
 6572WAT      O19957   2.236   8.453   6.577
 6572WAT     H119958   2.248   8.508   6.660
 6572WAT     H219959   2.151   8.400   6.584
 6573WAT      O19960   6.978   5.296   3.435
 6573WAT     H119961   6.982   5.285   3.534
 6573WAT     H219962   7.062   5.339   3.402
 6574WAT      O19963   4.571   1.517   5.034
 6574WAT     H119964   4.630   1.453   5.083
 6574WAT     H219965   4.621   1.602   5.018
 6575WAT      O19966   5.449   4.492   0.323
 6575WAT     H119967   5.436   4.584   0.287
 6575WAT     H219968   5.450   4.426   0.248
 6576WAT      O19969   0.149   6.666   9.237
 6576WAT     H119970   0.101   6.724   9.171
 6576WAT     H219971   0.086   6.638   9.309
 6577WAT      O19972   0.264   3.386   0.959
 6577WAT     H119973   0.229   3.467   0.911
 6577WAT     H219974   0.210   3.306   0.931
 6578WAT      O19975   3.451   7.106   3.600
 6578WAT     H119976   3.422   7.175   3.665
 6578WAT     H219977   3.378   7.039   3.587
 6579WAT      O19978   3.380   2.284   2.581
 6579WAT     H119979   3.300   2.273   2.522
 6579WAT     H219980   3.373   2.220   2.658
 6580WAT      O19981   4.251   5.863   2.230
 6580WAT     H119982   4.312   5.930   2.273
 6580WAT     H219983   4.156   5.891   2.244
 6581WAT      O19984   1.768   2.516   9.791
 6581WAT     H119985   1.780   2.417   9.800
 6581WAT     H219986   1.749   2.556   9.880
 6582WAT      O19987   3.514   3.832   1.844
 6582WAT     H119988   3.538   3.876   1.930
 6582WAT     H219989   3.489   3.901   1.777
 6583WAT      O19990   3.980   8.724   1.458
 6583WAT     H119991   4.068   8.676   1.452
 6583WAT     H219992   3.952   8.752   1.367
 6584WAT      O19993   2.122   5.090   9.128
 6584WAT     H119994   2.073   5.162   9.079
 6584WAT     H219995   2.188   5.130   9.191
 6585WAT      O19996   8.483   0.810   5.363
 6585WAT     H119997   8.440   0.861   5.288
 6585WAT     H219998   8.524   0.874   5.428
 6586WAT      O19999   6.893   2.689   0.178
 6586WAT     H120000   6.856   2.729   0.262
 6586WAT     H220001   6.886   2.755   0.104
 6587WAT      O20002   2.110   3.293   7.752
 6587WAT     H120003   2.112   3.235   7.670
 6587WAT     H220004   2.203   3.317   7.778
 6588WAT      O20005   1.175   1.316   5.609
 6588WAT     H120006   1.271   1.304   5.584
 6588WAT     H220007   1.129   1.227   5.607
 6589WAT      O20008   7.736   3.603   9.833
 6589WAT     H120009   7.818   3.661   9.831
 6589WAT     H220010   7.667   3.642   9.772
 6590WAT      O20011   3.633   0.866   7.270
 6590WAT     H120012   3.730   0.844   7.261
 6590WAT     H220013   3.621   0.964   7.282
 6591WAT      O20014   9.684   4.135   9.048
 6591WAT     H120015   9.742   4.197   9.101
 6591WAT     H220016   9.591   4.138   9.085
 6592WAT      O20017   6.569   0.992   5.993
 6592WAT     H120018   6.629   1.007   6.072
 6592WAT     H220019   6.600   0.912   5.943
 6593WAT      O20020   7.412   3.486   0.062
 6593WAT     H120021   7.315   3.482   0.087
 6593WAT     H220022   7.421   3.492  -0.037
 6594WAT      O20023   8.035   8.914   6.815
 6594WAT     H120024   8.090   8.833   6.834
 6594WAT     H220025   8.049   8.942   6.720
 6595WAT      O20026   0.648   2.030   9.675
 6595WAT     H120027   0.576   2.080   9.725
 6595WAT     H220028   0.666   2.077   9.589
 6596WAT      O20029   9.658   8.897   2.172
 6596WAT     H120030   9.686   8.802   2.182
 6596WAT     H220031   9.734   8.957   2.198
 6597WAT      O20032   5.602   0.654   0.501
 6597WAT     H120033   5.627   0.736   0.552
 6597WAT     H220034   5.630   0.573   0.553
 6598WAT      O20035   1.165   6.002   8.418
 6598WAT     H120036   1.135   6.090   8.455
 6598WAT     H220037   1.173   5.936   8.492
 6599WAT      O20038   2.734   1.260   1.305
 6599WAT     H120039   2.646   1.307   1.313
 6599WAT     H220040   2.785   1.299   1.228
 6600WAT      O20041   1.101   4.977   4.331
 6600WAT     H120042   1.006   4.992   4.358
 6600WAT     H220043   1.104   4.925   4.246
 6601WAT      O20044   2.071   2.088   5.095
 6601WAT     H120045   2.103   2.046   5.010
 6601WAT     H220046   2.020   2.171   5.075
 6602WAT      O20047   8.606   6.312   0.899
 6602WAT     H120048   8.601   6.339   0.803
 6602WAT     H220049   8.695   6.272   0.918
 6603WAT      O20050   4.894   3.469   1.595
 6603WAT     H120051   4.992   3.466   1.613
 6603WAT     H220052   4.847   3.406   1.657
 6604WAT      O20053   5.457   8.648   6.944
 6604WAT     H120054   5.400   8.730   6.942
 6604WAT     H220055   5.403   8.571   6.980
 6605WAT      O20056   0.504   2.922   4.603
 6605WAT     H120057   0.463   2.836   4.633
 6605WAT     H220058   0.547   2.967   4.681
 6606WAT      O20059   3.077   9.805   2.940
 6606WAT     H120060   3.060   9.876   3.009
 6606WAT     H220061   3.039   9.835   2.852
 6607WAT      O20062   0.214   3.457   0.032
 6607WAT     H120063   0.126   3.487  -0.006
 6607WAT     H220064   0.200   3.378   0.091
 6608WAT      O20065   4.399   7.321   4.078
 6608WAT     H120066   4.359   7.377   4.006
 6608WAT     H220067   4.380   7.224   4.060
 6609WAT      O20068   6.774   4.842   2.877
 6609WAT     H120069   6.738   4.754   2.846
 6609WAT     H220070   6.768   4.847   2.977
 6610WAT      O20071   5.720   8.367   4.733
 6610WAT     H120072   5.750   8.414   4.649
 6610WAT     H220073   5.626   8.336   4.721
 6611WAT      O20074   0.051   3.466   9.155
 6611WAT     H120075   0.049   3.562   9.128
 6611WAT     H220076  -0.038   3.424   9.137
 6612WAT      O20077   1.752   1.151   9.650
 6612WAT     H120078   1.657   1.182   9.652
 6612WAT     H220079   1.797   1.187   9.568
 6613WAT      O20080   1.788   2.188   1.858
 6613WAT     H120081   1.805   2.138   1.773
 6613WAT     H220082   1.701   2.157   1.898
 6614WAT      O20083   1.291   4.571   6.065
 6614WAT     H120084   1.368   4.534   6.116
 6614WAT     H220085   1.207   4.526   6.095
 6615WAT      O20086   0.928   9.792   3.997
 6615WAT     H120087   0.901   9.806   3.902
 6615WAT     H220088   0.889   9.864   4.054
 6616WAT      O20089   0.566   4.569   2.878
 6616WAT     H120090   0.550   4.635   2.952
 6616WAT     H220091   0.546   4.612   2.790
 6617WAT      O20092   8.950   0.433   2.458
 6617WAT     H120093   9.049   0.445   2.449
 6617WAT     H220094   8.929   0.335   2.465
 6618WAT      O20095   7.149   2.002   0.045
 6618WAT     H120096   7.234   2.020  -0.005
 6618WAT     H220097   7.071   2.025  -0.013
 6619WAT      O20098   9.645   6.595   1.607
 6619WAT     H120099   9.706   6.643   1.670
 6619WAT     H220100   9.610   6.660   1.538
 6620WAT      O20101   2.679   7.021   1.334
 6620WAT     H120102   2.709   7.072   1.253
 6620WAT     H220103   2.582   6.999   1.326
 6621WAT      O20104   0.556   6.770   2.579
 6621WAT     H120105   0.477   6.738   2.632
 6621WAT     H220106   0.563   6.869   2.586
 6622WAT      O20107   2.203   7.964   9.757
 6622WAT     H120108   2.267   8.040   9.768
 6622WAT     H220109   2.132   7.970   9.827
 6623WAT      O20110   3.670   8.378   3.462
 6623WAT     H120111   3.639   8.318   3.388
 6623WAT     H220112   3.752   8.427   3.432
 6624WAT      O20113   7.915   9.315   2.780
 6624WAT     H120114   7.983   9.293   2.851
 6624WAT     H220115   7.824   9.298   2.816
 6625WAT      O20116   7.170   6.220   7.873
 6625WAT     H120117   7.091   6.177   7.828
 6625WAT     H220118   7.148   6.239   7.968
 6626WAT      O20119   9.074   5.579   3.630
 6626WAT     H120120   9.104   5.558   3.537
 6626WAT     H220121   9.080   5.678   3.644
 6627WAT      O20122   4.361   9.719   5.774
 6627WAT     H120123   4.396   9.685   5.861
 6627WAT     H220124   4.265   9.744   5.784
 6628WAT      O20125   5.687   7.174   2.797
 6628WAT     H120126   5.713   7.270   2.804
 6628WAT     H220127   5.741   7.130   2.724
 6629WAT      O20128   8.186   5.697   5.173
 6629WAT     H120129   8.125   5.694   5.093
 6629WAT     H220130   8.131   5.714   5.255
 6630WAT      O20131   1.501   4.033   7.709
 6630WAT     H120132   1.404   4.046   7.690
 6630WAT     H220133   1.540   3.970   7.641
 6631WAT      O20134   3.621   8.795   7.306
 6631WAT     H120135   3.590   8.702   7.328
 6631WAT     H220136   3.674   8.792   7.221
 6632WAT      O20137   7.096   4.336   1.555
 6632WAT     H120138   7.055   4.305   1.641
 6632WAT     H220139   7.182   4.288   1.540
 6633WAT      O20140   1.413   1.732   9.848
 6633WAT     H120141   1.340   1.792   9.882
 6633WAT     H220142   1.491   1.736   9.912
 6634WAT      O20143   7.333   3.194   2.423
 6634WAT     H120144   7.431   3.202   2.402
 6634WAT     H220145   7.320   3.130   2.498
 6635WAT      O20146   0.710   7.024   2.124
 6635WAT     H120147   0.802   7.047   2.091
 6635WAT     H220148   0.703   7.048   2.221
 6636WAT      O20149   2.498   1.397   3.439
 6636WAT     H120150   2.498   1.452   3.523
 6636WAT     H220151   2.517   1.302   3.463
 6637WAT      O20152   2.197   6.090   5.029
 6637WAT     H120153   2.271   6.156   5.031
 6637WAT     H220154   2.135   6.112   4.954
 6638WAT      O20155   9.582   8.072   4.748
 6638WAT     H120156   9.560   7.987   4.701
 6638WAT     H220157   9.505   8.135   4.741
 6639WAT      O20158   4.512   8.269   6.381
 6639WAT     H120159   4.536   8.172   6.378
 6639WAT     H220160   4.578   8.322   6.327
 6640WAT      O20161   2.266   8.983   4.777
 6640WAT     H120162   2.241   9.031   4.861
 6640WAT     H220163   2.335   9.036   4.727
 6641WAT      O20164   5.833   3.293   0.167
 6641WAT     H120165   5.871   3.240   0.243
 6641WAT     H220166   5.840   3.391   0.188
 6642WAT      O20167   3.905   9.085   2.731
 6642WAT     H120168   3.908   9.164   2.670
 6642WAT     H220169   3.923   9.002   2.678
 6643WAT      O20170   1.943   8.686   5.544
 6643WAT     H120171   1.918   8.778   5.574
 6643WAT     H220172   1.875   8.621   5.578
 6644WAT      O20173   7.720   4.447   6.921
 6644WAT     H120174   7.766   4.497   6.847
 6644WAT     H220175   7.642   4.397   6.883
 6645WAT      O20176   6.062   1.645   5.894
 6645WAT     H120177   6.004   1.724   5.872
 6645WAT     H220178   6.158   1.671   5.887
 6646WAT      O20179   4.662   4.312   7.865
 6646WAT     H120180   4.744   4.261   7.890
 6646WAT     H220181   4.685   4.380   7.795
 6647WAT      O20182   0.680   1.247   2.875
 6647WAT     H120183   0.581   1.259   2.878
 6647WAT     H220184   0.704   1.174   2.811
 6648WAT      O20185   6.083   0.901   0.148
 6648WAT     H120186   6.152   0.922   0.217
 6648WAT     H220187   5.994   0.889   0.192
 6649WAT      O20188   7.630   3.321   1.383
 6649WAT     H120189   7.628   3.335   1.482
 6649WAT     H220190   7.707   3.372   1.343
 6650WAT      O20191   9.458   1.509   6.304
 6650WAT     H120192   9.499   1.569   6.235
 6650WAT     H220193   9.528   1.482   6.370
 6651WAT      O20194   6.683   8.605   8.560
 6651WAT     H120195   6.628   8.584   8.641
 6651WAT     H220196   6.657   8.695   8.524
 6652WAT      O20197   8.006   1.830   6.858
 6652WAT     H120198   8.036   1.807   6.951
 6652WAT     H220199   7.911   1.861   6.861
 6653WAT      O20200   2.929   7.383   3.719
 6653WAT     H120201   2.882   7.395   3.632
 6653WAT     H220202   3.018   7.429   3.715
 6654WAT      O20203   6.236   4.096   7.956
 6654WAT     H120204   6.296   4.164   7.997
 6654WAT     H220205   6.262   4.005   7.989
 6655WAT      O20206   0.332   4.991   3.375
 6655WAT     H120207   0.254   4.996   3.437
 6655WAT     H220208   0.308   5.033   3.287
 6656WAT      O20209   5.878   2.949   5.803
 6656WAT     H120210   5.917   2.971   5.714
 6656WAT     H220211   5.923   2.867   5.840
 6657WAT      O20212   0.755   8.215   3.658
 6657WAT     H120213   0.852   8.188   3.659
 6657WAT     H220214   0.748   8.313   3.639
 6658WAT      O20215   3.104   5.777   7.511
 6658WAT     H120216   3.016   5.737   7.538
 6658WAT     H220217   3.134   5.840   7.583
 6659WAT      O20218   4.134   1.993   9.125
 6659WAT     H120219   4.199   1.961   9.056
 6659WAT     H220220   4.067   1.921   9.144
 6660WAT      O20221   5.162   2.136   6.116
 6660WAT     H120222   5.135   2.046   6.081
 6660WAT     H220223   5.237   2.172   6.060
 6661WAT      O20224   0.972   6.656   2.252
 6661WAT     H120225   0.872   6.655   2.245
 6661WAT     H220226   1.000   6.605   2.333
 6662WAT      O20227   3.048   7.707   7.575
 6662WAT     H120228   3.038   7.793   7.524
 6662WAT     H220229   2.991   7.637   7.533
 6663WAT      O20230   6.715   8.364   2.811
 6663WAT     H120231   6.647   8.297   2.840
 6663WAT     H220232   6.793   8.317   2.769
 6664WAT      O20233   8.439   5.780   5.128
 6664WAT     H120234   8.340   5.772   5.124
 6664WAT     H220235   8.474   5.805   5.037
 6665WAT      O20236   8.416   4.298   8.016
 6665WAT     H120237   8.332   4.295   7.962
 6665WAT     H220238   8.484   4.237   7.976
 6666WAT      O20239   9.207   4.832   9.513
 6666WAT     H120240   9.142   4.759   9.490
 6666WAT     H220241   9.237   4.877   9.429
 6667WAT      O20242   1.320   6.422   1.910
 6667WAT     H120243   1.298   6.441   1.815
 6667WAT     H220244   1.419   6.414   1.921
 6668WAT      O20245   5.607   3.307   4.680
 6668WAT     H120246   5.695   3.286   4.722
 6668WAT     H220247   5.621   3.370   4.603
 6669WAT      O20248   3.111   8.604   1.868
 6669WAT     H120249   3.044   8.594   1.941
 6669WAT     H220250   3.090   8.686   1.814
 6670WAT      O20251   2.363   5.463   9.013
 6670WAT     H120252   2.342   5.538   9.076
 6670WAT     H220253   2.393   5.383   9.066
 6671WAT      O20254   2.187   6.125   6.188
 6671WAT     H120255   2.088   6.139   6.179
 6671WAT     H220256   2.213   6.039   6.145
 6672WAT      O20257   9.320   8.049   8.116
 6672WAT     H120258   9.242   7.998   8.152
 6672WAT     H220259   9.292   8.097   8.032
 6673WAT      O20260   7.968   3.499   6.468
 6673WAT     H120261   7.980   3.555   6.386
 6673WAT     H220262   7.973   3.557   6.550
 6674WAT      O20263   4.083   5.904   0.381
 6674WAT     H120264   4.002   5.938   0.427
 6674WAT     H220265   4.056   5.838   0.311
 6675WAT      O20266   3.232   4.925   0.921
 6675WAT     H120267   3.144   4.956   0.956
 6675WAT     H220268   3.255   4.837   0.964
 6676WAT      O20269   7.286   1.090   0.872
 6676WAT     H120270   7.332   1.135   0.949
 6676WAT     H220271   7.243   1.005   0.904
 6677WAT      O20272   5.716   9.445   3.987
 6677WAT     H120273   5.795   9.494   3.949
 6677WAT     H220274   5.639   9.454   3.924
 6678WAT      O20275   3.816   3.736   7.184
 6678WAT     H120276   3.872   3.718   7.104
 6678WAT     H220277   3.862   3.701   7.266
 6679WAT      O20278   7.059   1.805   9.171
 6679WAT     H120279   7.066   1.825   9.269
 6679WAT     H220280   6.998   1.872   9.129
 6680WAT      O20281   4.060   1.021   9.776
 6680WAT     H120282   3.982   1.049   9.720
 6680WAT     H220283   4.118   1.101   9.793
 6681WAT      O20284   7.536   6.383   8.925
 6681WAT     H120285   7.463   6.318   8.903
 6681WAT     H220286   7.557   6.377   9.023
 6682WAT      O20287   5.678   8.884   5.177
 6682WAT     H120288   5.597   8.901   5.120
 6682WAT     H220289   5.760   8.888   5.121
 6683WAT      O20290   6.568   8.182   8.141
 6683WAT     H120291   6.494   8.143   8.196
 6683WAT     H220292   6.656   8.152   8.178
 6684WAT      O20293   0.182   1.788   0.179
 6684WAT     H120294   0.211   1.777   0.083
 6684WAT     H220295   0.262   1.776   0.239
 6685WAT      O20296   3.349   6.616   4.951
 6685WAT     H120297   3.292   6.541   4.986
 6685WAT     H220298   3.440   6.582   4.929
 6686WAT      O20299   9.375   8.955   8.974
 6686WAT     H120300   9.316   9.021   9.020
 6686WAT     H220301   9.457   8.940   9.029
 6687WAT      O20302   5.938   4.841   6.487
 6687WAT     H120303   5.861   4.838   6.424
 6687WAT     H220304   5.939   4.928   6.535
 6688WAT      O20305   9.145   0.517   1.256
 6688WAT     H120306   9.118   0.428   1.293
 6688WAT     H220307   9.230   0.507   1.204
 6689WAT      O20308   9.024   8.899   4.766
 6689WAT     H120309   9.014   8.994   4.737
 6689WAT     H220310   9.079   8.895   4.850
 6690WAT      O20311   2.473   0.245   3.917
 6690WAT     H120312   2.489   0.338   3.952
 6690WAT     H220313   2.376   0.224   3.923
 6691WAT      O20314   3.735   3.550   0.881
 6691WAT     H120315   3.833   3.561   0.862
 6691WAT     H220316   3.719   3.561   0.979
 6692WAT      O20317   0.530   0.755   5.147
 6692WAT     H120318   0.478   0.756   5.062
 6692WAT     H220319   0.584   0.838   5.154
 6693WAT      O20320   1.584   2.803   1.574
 6693WAT     H120321   1.526   2.883   1.592
 6693WAT     H220322   1.623   2.770   1.659
 6694WAT      O20323   2.991   5.067   6.823
 6694WAT     H120324   2.957   4.984   6.780
 6694WAT     H220325   2.936   5.145   6.794
 6695WAT      O20326   4.093   0.674   2.139
 6695WAT     H120327   4.017   0.732   2.168
 6695WAT     H220328   4.140   0.638   2.219
 6696WAT      O20329   5.849   0.946   1.115
 6696WAT     H120330   5.804   0.896   1.041
 6696WAT     H220331   5.828   1.043   1.108
 6697WAT      O20332   0.373   1.931   4.139
 6697WAT     H120333   0.339   1.975   4.055
 6697WAT     H220334   0.463   1.969   4.162
 6698WAT      O20335   8.027   0.449   1.340
 6698WAT     H120336   7.959   0.464   1.268
 6698WAT     H220337   8.119   0.453   1.300
 6699WAT      O20338   4.766   2.999   6.921
 6699WAT     H120339   4.828   2.957   6.856
 6699WAT     H220340   4.671   2.978   6.895
 6700WAT      O20341   2.371   7.917   9.339
 6700WAT     H120342   2.333   7.842   9.286
 6700WAT     H220343   2.350   7.903   9.436
 6701WAT      O20344   3.435   5.512   4.367
 6701WAT     H120345   3.367   5.580   4.396
 6701WAT     H220346   3.430   5.432   4.426
 6702WAT      O20347   4.239   5.396   8.871
 6702WAT     H120348   4.262   5.298   8.876
 6702WAT     H220349   4.300   5.447   8.931
 6703WAT      O20350   6.231   6.820   1.761
 6703WAT     H120351   6.315   6.822   1.814
 6703WAT     H220352   6.253   6.828   1.664
 6704WAT      O20353   4.681   7.748   8.985
 6704WAT     H120354   4.650   7.817   9.050
 6704WAT     H220355   4.758   7.698   9.024
 6705WAT      O20356   5.119   6.755   0.748
 6705WAT     H120357   5.148   6.729   0.840
 6705WAT     H220358   5.189   6.726   0.681
 6706WAT      O20359   3.059   9.071   5.563
 6706WAT     H120360   2.995   9.104   5.493
 6706WAT     H220361   3.015   9.001   5.619
 6707WAT      O20362   0.423   4.729   3.315
 6707WAT     H120363   0.369   4.800   3.360
 6707WAT     H220364   0.374   4.642   3.319
 6708WAT      O20365   1.651   8.516   9.683
 6708WAT     H120366   1.647   8.430   9.734
 6708WAT     H220367   1.570   8.524   9.625
 6709WAT      O20368   9.786   3.806   0.452
 6709WAT     H120369   9.749   3.881   0.508
 6709WAT     H220370   9.718   3.734   0.443
 6710WAT      O20371   2.407   0.948   1.168
 6710WAT     H120372   2.420   1.045   1.152
 6710WAT     H220373   2.489   0.898   1.140
 6711WAT      O20374   1.410   4.314   2.993
 6711WAT     H120375   1.368   4.376   3.059
 6711WAT     H220376   1.407   4.220   3.029
 6712WAT      O20377   0.489   8.919   4.104
 6712WAT     H120378   0.587   8.909   4.118
 6712WAT     H220379   0.464   9.016   4.101
 6713WAT      O20380   8.118   2.450   5.555
 6713WAT     H120381   8.218   2.440   5.557
 6713WAT     H220382   8.095   2.548   5.554
 6714WAT      O20383   6.972   3.721   4.941
 6714WAT     H120384   7.065   3.757   4.933
 6714WAT     H220385   6.974   3.621   4.936
 6715WAT      O20386   8.682   5.336   0.301
 6715WAT     H120387   8.628   5.417   0.276
 6715WAT     H220388   8.765   5.334   0.245
 6716WAT      O20389   4.348   3.614   1.253
 6716WAT     H120390   4.288   3.685   1.290
 6716WAT     H220391   4.292   3.539   1.216
 6717WAT      O20392   0.250   0.539   8.925
 6717WAT     H120393   0.316   0.465   8.929
 6717WAT     H220394   0.238   0.578   9.016
 6718WAT      O20395   6.777   5.366   1.269
 6718WAT     H120396   6.783   5.270   1.295
 6718WAT     H220397   6.816   5.378   1.178
 6719WAT      O20398   9.450   6.148   2.786
 6719WAT     H120399   9.443   6.162   2.885
 6719WAT     H220400   9.452   6.050   2.766
 6720WAT      O20401   3.963   5.690   5.208
 6720WAT     H120402   3.886   5.714   5.268
 6720WAT     H220403   4.028   5.766   5.205
 6721WAT      O20404   6.915   3.697   0.206
 6721WAT     H120405   6.943   3.652   0.291
 6721WAT     H220406   6.875   3.629   0.144
 6722WAT      O20407   2.343   3.816   0.910
 6722WAT     H120408   2.294   3.818   0.998
 6722WAT     H220409   2.438   3.842   0.925
 6723WAT      O20410   2.502   7.947   0.914
 6723WAT     H120411   2.551   7.865   0.941
 6723WAT     H220412   2.547   7.989   0.835
 6724WAT      O20413   7.782   2.928   1.768
 6724WAT     H120414   7.735   2.847   1.732
 6724WAT     H220415   7.824   2.905   1.856
 6725WAT      O20416   0.161   1.221   0.021
 6725WAT     H120417   0.149   1.155   0.096
 6725WAT     H220418   0.074   1.268   0.004
 6726WAT      O20419   7.960   7.625   4.323
 6726WAT     H120420   7.889   7.610   4.392
 6726WAT     H220421   8.003   7.538   4.301
 6727WAT      O20422   4.006   6.251   8.065
 6727WAT     H120423   4.028   6.259   7.968
 6727WAT     H220424   3.910   6.225   8.075
 6728WAT      O20425   7.214   8.937   6.437
 6728WAT     H120426   7.271   8.855   6.437
 6728WAT     H220427   7.147   8.932   6.363
 6729WAT      O20428   9.382   1.765   7.887
 6729WAT     H120429   9.376   1.665   7.895
 6729WAT     H220430   9.325   1.807   7.957
 6730WAT      O20431   4.276   0.940   4.797
 6730WAT     H120432   4.320   0.856   4.828
 6730WAT     H220433   4.302   1.016   4.857
 6731WAT      O20434   8.908   2.878   1.522
 6731WAT     H120435   8.941   2.968   1.551
 6731WAT     H220436   8.953   2.851   1.438
 6732WAT      O20437   9.011   9.656   2.459
 6732WAT     H120438   9.086   9.717   2.485
 6732WAT     H220439   8.995   9.663   2.360
 6733WAT      O20440   5.551   8.269   0.694
 6733WAT     H120441   5.533   8.269   0.596
 6733WAT     H220442   5.594   8.182   0.720
 6734WAT      O20443   1.790   7.334   3.399
 6734WAT     H120444   1.754   7.418   3.358
 6734WAT     H220445   1.889   7.333   3.391
 6735WAT      O20446   8.036   4.424   5.353
 6735WAT     H120447   8.110   4.425   5.420
 6735WAT     H220448   8.033   4.334   5.308
 6736WAT      O20449   6.561   8.202   0.010
 6736WAT     H120450   6.551   8.203   0.110
 6736WAT     H220451   6.480   8.241  -0.032
 6737WAT      O20452   0.844   0.768   2.222
 6737WAT     H120453   0.942   0.771   2.201
 6737WAT     H220454   0.797   0.714   2.153
 6738WAT      O20455   8.215   6.997   8.187
 6738WAT     H120456   8.287   6.954   8.132
 6738WAT     H220457   8.256   7.047   8.262
 6739WAT      O20458   8.259   1.632   2.637
 6739WAT     H120459   8.322   1.710   2.644
 6739WAT     H220460   8.300   1.562   2.579
 6740WAT      O20461   1.130   6.494   7.843
 6740WAT     H120462   1.066   6.420   7.821
 6740WAT     H220463   1.222   6.469   7.813
 6741WAT      O20464   5.713   1.010   2.032
 6741WAT     H120465   5.697   1.001   1.933
 6741WAT     H220466   5.705   1.106   2.058
 6742WAT      O20467   2.928   9.333   9.122
 6742WAT     H120468   2.835   9.341   9.086
 6742WAT     H220469   2.981   9.269   9.065
 6743WAT      O20470   4.650   4.551   8.049
 6743WAT     H120471   4.563   4.599   8.037
 6743WAT     H220472   4.658   4.480   7.979
 6744WAT      O20473   3.279   1.580   4.444
 6744WAT     H120474   3.368   1.626   4.449
 6744WAT     H220475   3.292   1.488   4.405
 6745WAT      O20476   4.976   1.761   6.539
 6745WAT     H120477   4.920   1.837   6.505
 6745WAT     H220478   4.918   1.683   6.559
 6746WAT      O20479   7.265   6.000   0.925
 6746WAT     H120480   7.224   5.971   0.838
 6746WAT     H220481   7.200   6.059   0.973
 6747WAT      O20482   6.420   0.036   0.708
 6747WAT     H120483   6.423   0.130   0.742
 6747WAT     H220484   6.357   0.031   0.630
 6748WAT      O20485   2.372   9.034   3.898
 6748WAT     H120486   2.359   8.945   3.942
 6748WAT     H220487   2.386   9.104   3.969
 6749WAT      O20488   5.813   6.518   3.239
 6749WAT     H120489   5.733   6.471   3.202
 6749WAT     H220490   5.802   6.617   3.229
 6750WAT      O20491   4.150   6.994   0.195
 6750WAT     H120492   4.080   7.015   0.127
 6750WAT     H220493   4.175   6.897   0.188
 6751WAT      O20494   7.005   6.392   1.820
 6751WAT     H120495   7.097   6.425   1.800
 6751WAT     H220496   6.991   6.391   1.919
 6752WAT      O20497   1.209   7.387   4.865
 6752WAT     H120498   1.247   7.424   4.780
 6752WAT     H220499   1.250   7.435   4.943
 6753WAT      O20500   9.123   3.880   9.471
 6753WAT     H120501   9.084   3.847   9.557
 6753WAT     H220502   9.184   3.811   9.433
 6754WAT      O20503   0.084   5.828   6.348
 6754WAT     H120504   0.100   5.921   6.317
 6754WAT     H220505   0.046   5.829   6.441
 6755WAT      O20506   4.752   4.346   9.603
 6755WAT     H120507   4.662   4.322   9.565
 6755WAT     H220508   4.819   4.276   9.577
 6756WAT      O20509   6.491   3.201   3.784
 6756WAT     H120510   6.545   3.250   3.717
 6756WAT     H220511   6.447   3.122   3.740
 6757WAT      O20512   9.083   3.512   9.486
 6757WAT     H120513   9.180   3.513   9.462
 6757WAT     H220514   9.070   3.555   9.575
 6758WAT      O20515   9.093   3.304   5.203
 6758WAT     H120516   9.081   3.328   5.299
 6758WAT     H220517   9.003   3.281   5.164
 6759WAT      O20518   7.172   7.525   2.962
 6759WAT     H120519   7.107   7.513   2.887
 6759WAT     H220520   7.264   7.499   2.932
 6760WAT      O20521   8.120   3.466   1.284
 6760WAT     H120522   8.149   3.404   1.356
 6760WAT     H220523   8.124   3.560   1.316
 6761WAT      O20524   6.878   2.696   3.798
 6761WAT     H120525   6.960   2.728   3.846
 6761WAT     H220526   6.823   2.775   3.769
 6762WAT      O20527   3.080   1.081   5.620
 6762WAT     H120528   3.096   1.110   5.714
 6762WAT     H220529   3.080   0.981   5.615
 6763WAT      O20530   0.164   8.854   7.045
 6763WAT     H120531   0.152   8.829   6.949
 6763WAT     H220532   0.121   8.784   7.102
 6764WAT      O20533   8.407   9.629   1.187
 6764WAT     H120534   8.367   9.696   1.249
 6764WAT     H220535   8.335   9.574   1.145
 6765WAT      O20536   5.634   0.318   7.384
 6765WAT     H120537   5.549   0.333   7.434
 6765WAT     H220538   5.709   0.304   7.448
 6766WAT      O20539   2.547   9.031   7.264
 6766WAT     H120540   2.475   8.995   7.324
 6766WAT     H220541   2.505   9.074   7.184
 6767WAT      O20542   2.682   1.163   0.070
 6767WAT     H120543   2.681   1.176   0.169
 6767WAT     H220544   2.766   1.200   0.032
 6768WAT      O20545   1.044   9.256   5.292
 6768WAT     H120546   0.953   9.294   5.307
 6768WAT     H220547   1.105   9.327   5.259
 6769WAT      O20548   1.028   8.540   1.623
 6769WAT     H120549   1.014   8.539   1.524
 6769WAT     H220550   0.941   8.553   1.669
 6770WAT      O20551   3.766   7.122   9.504
 6770WAT     H120552   3.810   7.032   9.499
 6770WAT     H220553   3.680   7.114   9.555
 6771WAT      O20554   6.907   6.772   2.797
 6771WAT     H120555   6.998   6.783   2.838
 6771WAT     H220556   6.865   6.861   2.784
 6772WAT      O20557   1.522   7.904   3.505
 6772WAT     H120558   1.450   7.853   3.458
 6772WAT     H220559   1.607   7.897   3.453
 6773WAT      O20560   3.891   8.479   2.541
 6773WAT     H120561   3.954   8.490   2.617
 6773WAT     H220562   3.798   8.501   2.571
 6774WAT      O20563   8.985   0.769   8.331
 6774WAT     H120564   8.961   0.804   8.422
 6774WAT     H220565   9.084   0.756   8.326
 6775WAT      O20566   7.740   3.404   8.522
 6775WAT     H120567   7.802   3.326   8.533
 6775WAT     H220568   7.794   3.487   8.507
 6776WAT      O20569   2.912   1.339   3.108
 6776WAT     H120570   2.824   1.382   3.088
 6776WAT     H220571   2.947   1.374   3.195
 6777WAT      O20572   1.053   7.191   4.046
 6777WAT     H120573   0.985   7.122   4.067
 6777WAT     H220574   1.040   7.224   3.952
 6778WAT      O20575   6.028   0.793   1.837
 6778WAT     H120576   6.010   0.891   1.835
 6778WAT     H220577   6.123   0.776   1.861
 6779WAT      O20578   0.583   6.172   5.269
 6779WAT     H120579   0.542   6.204   5.354
 6779WAT     H220580   0.560   6.075   5.255
 6780WAT      O20581   6.259   7.920   4.481
 6780WAT     H120582   6.228   8.014   4.493
 6780WAT     H220583   6.228   7.865   4.559
 6781WAT      O20584   3.612   7.351   1.186
 6781WAT     H120585   3.661   7.300   1.257
 6781WAT     H220586   3.573   7.287   1.119
 6782WAT      O20587   9.345   0.758   1.403
 6782WAT     H120588   9.319   0.689   1.471
 6782WAT     H220589   9.441   0.744   1.377
 6783WAT      O20590   8.070   1.193   6.999
 6783WAT     H120591   8.048   1.273   6.944
 6783WAT     H220592   8.019   1.114   6.964
 6784WAT      O20593   3.731   4.913   6.304
 6784WAT     H120594   3.722   4.983   6.234
 6784WAT     H220595   3.820   4.868   6.295
 6785WAT      O20596   6.347   6.174   5.978
 6785WAT     H120597   6.353   6.074   5.990
 6785WAT     H220598   6.401   6.201   5.899
 6786WAT      O20599   0.274   1.968   1.437
 6786WAT     H120600   0.175   1.960   1.450
 6786WAT     H220601   0.308   1.888   1.388
 6787WAT      O20602   7.590   4.803   2.757
 6787WAT     H120603   7.690   4.810   2.754
 6787WAT     H220604   7.556   4.835   2.845
 6788WAT      O20605   2.693   5.859   8.615
 6788WAT     H120606   2.778   5.835   8.568
 6788WAT     H220607   2.631   5.903   8.551
 6789WAT      O20608   8.344   9.563   4.397
 6789WAT     H120609   8.423   9.579   4.456
 6789WAT     H220610   8.298   9.479   4.425
 6790WAT      O20611   3.922   9.734   1.133
 6790WAT     H120612   3.827   9.709   1.155
 6790WAT     H220613   3.951   9.685   1.051
 6791WAT      O20614   3.918   4.048   1.062
 6791WAT     H120615   3.998   4.068   1.006
 6791WAT     H220616   3.836   4.086   1.018
 6792WAT      O20617   4.330   3.583   1.735
 6792WAT     H120618   4.314   3.493   1.775
 6792WAT     H220619   4.336   3.651   1.807
 6793WAT      O20620   6.713   8.724   0.586
 6793WAT     H120621   6.769   8.711   0.668
 6793WAT     H220622   6.656   8.805   0.596
 6794WAT      O20623   5.422   2.024   0.705
 6794WAT     H120624   5.340   2.020   0.762
 6794WAT     H220625   5.457   1.931   0.691
 6795WAT      O20626   5.283   0.835   9.061
 6795WAT     H120627   5.220   0.764   9.027
 6795WAT     H220628   5.290   0.828   9.160
 6796WAT      O20629   8.509   8.683   5.846
 6796WAT     H120630   8.472   8.671   5.937
 6796WAT     H220631   8.485   8.605   5.789
 6797WAT      O20632   7.034   2.993   4.267
 6797WAT     H120633   6.993   2.983   4.177
 6797WAT     H220634   7.110   2.928   4.276
 6798WAT      O20635   4.485   6.774   7.146
 6798WAT     H120636   4.401   6.759   7.197
 6798WAT     H220637   4.553   6.706   7.171
 6799WAT      O20638   2.331   5.674   5.505
 6799WAT     H120639   2.385   5.666   5.589
 6799WAT     H220640   2.385   5.723   5.436
 6800WAT      O20641   8.439   1.390   6.859
 6800WAT     H120642   8.487   1.302   6.855
 6800WAT     H220643   8.440   1.424   6.954
 6801WAT      O20644   3.203   7.688   0.249
 6801WAT     H120645   3.247   7.598   0.241
 6801WAT     H220646   3.233   7.732   0.333
 6802WAT      O20647   7.730   5.059   4.103
 6802WAT     H120648   7.744   5.043   4.005
 6802WAT     H220649   7.794   5.129   4.134
 6803WAT      O20650   1.422   8.136   8.491
 6803WAT     H120651   1.351   8.157   8.559
 6803WAT     H220652   1.461   8.046   8.510
 6804WAT      O20653   3.846   3.571   5.401
 6804WAT     H120654   3.869   3.605   5.310
 6804WAT     H220655   3.761   3.614   5.433
 6805WAT      O20656   4.430   2.156   8.557
 6805WAT     H120657   4.354   2.119   8.611
 6805WAT     H220658   4.514   2.151   8.610
 6806WAT      O20659   4.268   1.807   0.263
 6806WAT     H120660   4.205   1.878   0.295
 6806WAT     H220661   4.223   1.750   0.194
 6807WAT      O20662   5.942   2.007   3.029
 6807WAT     H120663   5.854   2.016   3.075
 6807WAT     H220664   6.015   2.040   3.089
 6808WAT      O20665   4.454   3.104   6.150
 6808WAT     H120666   4.422   3.197   6.130
 6808WAT     H220667   4.553   3.105   6.162
 6809WAT      O20668   7.916   7.656   3.674
 6809WAT     H120669   7.925   7.691   3.581
 6809WAT     H220670   7.820   7.640   3.695
 6810WAT      O20671   8.274   3.163   0.617
 6810WAT     H120672   8.360   3.166   0.566
 6810WAT     H220673   8.262   3.072   0.656
 6811WAT      O20674   1.995   5.487   5.772
 6811WAT     H120675   1.989   5.393   5.808
 6811WAT     H220676   1.958   5.489   5.679
 6812WAT      O20677   2.285   8.635   5.635
 6812WAT     H120678   2.233   8.610   5.717
 6812WAT     H220679   2.266   8.570   5.562
 6813WAT      O20680   6.981   7.276   4.610
 6813WAT     H120681   7.017   7.294   4.702
 6813WAT     H220682   7.016   7.188   4.577
 6814WAT      O20683   6.319   3.512   5.530
 6814WAT     H120684   6.309   3.495   5.432
 6814WAT     H220685   6.297   3.429   5.581
 6815WAT      O20686   6.291   2.340   9.040
 6815WAT     H120687   6.235   2.332   8.957
 6815WAT     H220688   6.261   2.419   9.094
 6816WAT      O20689   8.473   2.308   5.386
 6816WAT     H120690   8.491   2.256   5.470
 6816WAT     H220691   8.438   2.246   5.315
 6817WAT      O20692   9.368   9.040   7.330
 6817WAT     H120693   9.281   9.088   7.339
 6817WAT     H220694   9.442   9.106   7.320
 6818WAT      O20695   5.704   0.682   4.456
 6818WAT     H120696   5.686   0.586   4.479
 6818WAT     H220697   5.780   0.716   4.512
 6819WAT      O20698   3.515   5.631   7.352
 6819WAT     H120699   3.417   5.620   7.337
 6819WAT     H220700   3.531   5.691   7.430
 6820WAT      O20701   9.768   8.798   2.973
 6820WAT     H120702   9.724   8.824   2.887
 6820WAT     H220703   9.787   8.880   3.027
 6821WAT      O20704   3.830   2.719   3.934
 6821WAT     H120705   3.789   2.793   3.881
 6821WAT     H220706   3.928   2.713   3.913
 6822WAT      O20707   5.301   8.836   4.497
 6822WAT     H120708   5.397   8.814   4.514
 6822WAT     H220709   5.243   8.762   4.532
 6823WAT      O20710   5.989   5.496   3.466
 6823WAT     H120711   5.980   5.405   3.507
 6823WAT     H220712   6.069   5.542   3.505
 6824WAT      O20713   7.151   5.838   4.497
 6824WAT     H120714   7.124   5.805   4.588
 6824WAT     H220715   7.080   5.817   4.431
 6825WAT      O20716   7.530   9.251   4.980
 6825WAT     H120717   7.545   9.344   5.014
 6825WAT     H220718   7.468   9.253   4.902
 6826WAT      O20719   5.728   5.266   8.806
 6826WAT     H120720   5.680   5.354   8.808
 6826WAT     H220721   5.664   5.194   8.781
 6827WAT      O20722   3.886   8.109   0.983
 6827WAT     H120723   3.854   8.055   1.060
 6827WAT     H220724   3.883   8.206   1.006
 6828WAT      O20725   0.026   1.090   6.670
 6828WAT     H120726   0.038   1.011   6.729
 6828WAT     H220727   0.025   1.061   6.574
 6829WAT      O20728   6.463   7.843   7.604
 6829WAT     H120729   6.516   7.925   7.583
 6829WAT     H220730   6.430   7.847   7.698
 6830WAT      O20731   2.136   3.909   8.762
 6830WAT     H120732   2.232   3.892   8.744
 6830WAT     H220733   2.094   3.826   8.799
 6831WAT      O20734   0.161   2.333   1.670
 6831WAT     H120735   0.120   2.273   1.738
 6831WAT     H220736   0.231   2.283   1.618
 6832WAT      O20737   2.827   8.884   7.874
 6832WAT     H120738   2.799   8.871   7.970
 6832WAT     H220739   2.899   8.819   7.851
 6833WAT      O20740   9.705   3.270   6.426
 6833WAT     H120741   9.743   3.351   6.382
 6833WAT     H220742   9.636   3.297   6.493
 6834WAT      O20743   0.173   7.725   5.011
 6834WAT     H120744   0.075   7.749   5.014
 6834WAT     H220745   0.201   7.693   5.101
 6835WAT      O20746   2.375   8.224   8.714
 6835WAT     H120747   2.317   8.144   8.733
 6835WAT     H220748   2.393   8.230   8.616
 6836WAT      O20749   4.206   5.174   5.604
 6836WAT     H120750   4.158   5.112   5.666
 6836WAT     H220751   4.290   5.131   5.571
 6837WAT      O20752   6.783   5.067   6.060
 6837WAT     H120753   6.865   5.103   6.016
 6837WAT     H220754   6.785   5.090   6.158
 6838WAT      O20755   3.559   8.502   0.385
 6838WAT     H120756   3.529   8.481   0.478
 6838WAT     H220757   3.485   8.549   0.336
 6839WAT      O20758   4.492   6.015   9.106
 6839WAT     H120759   4.415   5.969   9.061
 6839WAT     H220760   4.574   6.006   9.050
 6840WAT      O20761   7.730   3.641   2.759
 6840WAT     H120762   7.778   3.606   2.679
 6840WAT     H220763   7.777   3.723   2.793
 6841WAT      O20764   8.957   2.854   0.549
 6841WAT     H120765   8.930   2.763   0.516
 6841WAT     H220766   8.894   2.923   0.513
 6842WAT      O20767   5.946   1.022   7.381
 6842WAT     H120768   5.881   0.966   7.329
 6842WAT     H220769   5.903   1.056   7.464
 6843WAT      O20770   3.718   9.224   4.098
 6843WAT     H120771   3.763   9.148   4.051
 6843WAT     H220772   3.693   9.294   4.033
 6844WAT      O20773   8.774   5.774   6.760
 6844WAT     H120774   8.690   5.793   6.811
 6844WAT     H220775   8.852   5.807   6.813
 6845WAT      O20776   8.846   2.397   2.085
 6845WAT     H120777   8.915   2.438   2.144
 6845WAT     H220778   8.821   2.307   2.120
 6846WAT      O20779   3.513   4.923   4.186
 6846WAT     H120780   3.605   4.916   4.147
 6846WAT     H220781   3.514   4.985   4.264
 6847WAT      O20782   6.423   7.295   1.384
 6847WAT     H120783   6.506   7.295   1.328
 6847WAT     H220784   6.343   7.295   1.325
 6848WAT      O20785   5.961   3.646   8.786
 6848WAT     H120786   5.913   3.606   8.864
 6848WAT     H220787   5.898   3.652   8.708
 6849WAT      O20788   1.298   9.007   3.853
 6849WAT     H120789   1.320   8.944   3.779
 6849WAT     H220790   1.357   9.088   3.847
 6850WAT      O20791   4.054   8.939   7.187
 6850WAT     H120792   4.110   9.008   7.141
 6850WAT     H220793   3.960   8.971   7.194
 6851WAT      O20794   4.886   9.346   1.312
 6851WAT     H120795   4.832   9.329   1.230
 6851WAT     H220796   4.896   9.261   1.364
 6852WAT      O20797   7.724   5.842   3.345
 6852WAT     H120798   7.744   5.793   3.260
 6852WAT     H220799   7.626   5.835   3.366
 6853WAT      O20800   6.966   2.743   3.000
 6853WAT     H120801   7.033   2.751   3.074
 6853WAT     H220802   7.002   2.684   2.928
 6854WAT      O20803   1.813   7.386   5.396
 6854WAT     H120804   1.779   7.389   5.489
 6854WAT     H220805   1.771   7.310   5.346
 6855WAT      O20806   8.465   2.006   8.789
 6855WAT     H120807   8.555   1.962   8.795
 6855WAT     H220808   8.456   2.049   8.699
 6856WAT      O20809   2.152   3.430   3.097
 6856WAT     H120810   2.239   3.394   3.065
 6856WAT     H220811   2.137   3.402   3.192
 6857WAT      O20812   2.267   6.777   1.469
 6857WAT     H120813   2.173   6.761   1.439
 6857WAT     H220814   2.323   6.697   1.447
 6858WAT      O20815   7.140   8.081   0.780
 6858WAT     H120816   7.077   8.031   0.839
 6858WAT     H220817   7.145   8.036   0.691
 6859WAT      O20818   4.275   7.767   5.906
 6859WAT     H120819   4.283   7.783   5.807
 6859WAT     H220820   4.220   7.838   5.948
 6860WAT      O20821   6.039   4.180   6.136
 6860WAT     H120822   6.125   4.215   6.171
 6860WAT     H220823   6.044   4.173   6.036
 6861WAT      O20824   4.654   7.333   9.321
 6861WAT     H120825   4.642   7.394   9.400
 6861WAT     H220826   4.640   7.238   9.350
 6862WAT      O20827   5.811   4.025   9.122
 6862WAT     H120828   5.755   3.948   9.092
 6862WAT     H220829   5.753   4.105   9.136
 6863WAT      O20830   3.824   5.800   1.505
 6863WAT     H120831   3.794   5.791   1.410
 6863WAT     H220832   3.827   5.709   1.548
 6864WAT      O20833   6.802   7.224   0.671
 6864WAT     H120834   6.781   7.140   0.621
 6864WAT     H220835   6.819   7.203   0.767
 6865WAT      O20836   4.589   4.557   1.650
 6865WAT     H120837   4.555   4.627   1.713
 6865WAT     H220838   4.514   4.523   1.594
 6866WAT      O20839   0.568   2.394   0.288
 6866WAT     H120840   0.635   2.320   0.291
 6866WAT     H220841   0.615   2.480   0.266
 6867WAT      O20842   1.844   0.276   4.834
 6867WAT     H120843   1.770   0.335   4.868
 6867WAT     H220844   1.921   0.332   4.805
 6868WAT      O20845   7.649   1.722   3.911
 6868WAT     H120846   7.686   1.707   4.002
 6868WAT     H220847   7.709   1.785   3.861
 6869WAT      O20848   6.828   6.133   3.801
 6869WAT     H120849   6.768   6.067   3.847
 6869WAT     H220850   6.772   6.201   3.753
 6870WAT      O20851   7.485   2.216   5.435
 6870WAT     H120852   7.408   2.251   5.488
 6870WAT     H220853   7.456   2.137   5.381
 6871WAT      O20854   3.642   8.377   1.404
 6871WAT     H120855   3.566   8.312   1.416
 6871WAT     H220856   3.724   8.327   1.378
 6872WAT      O20857   4.641   6.758   2.710
 6872WAT     H120858   4.557   6.712   2.738
 6872WAT     H220859   4.669   6.823   2.781
 6873WAT      O20860   8.514   5.559   0.249
 6873WAT     H120861   8.556   5.526   0.165
 6873WAT     H220862   8.524   5.659   0.254
 6874WAT      O20863   5.439   0.986   9.702
 6874WAT     H120864   5.438   0.886   9.711
 6874WAT     H220865   5.393   1.012   9.617
 6875WAT      O20866   4.838   4.752   1.948
 6875WAT     H120867   4.782   4.812   1.891
 6875WAT     H220868   4.792   4.735   2.035
 6876WAT      O20869   3.466   6.225   5.636
 6876WAT     H120870   3.367   6.209   5.627
 6876WAT     H220871   3.488   6.239   5.732
 6877WAT      O20872   9.502   7.412   1.528
 6877WAT     H120873   9.593   7.406   1.487
 6877WAT     H220874   9.485   7.330   1.582
 6878WAT      O20875   0.139   8.569   4.780
 6878WAT     H120876   0.064   8.597   4.840
 6878WAT     H220877   0.135   8.623   4.695
 6879WAT      O20878   7.469   8.927   8.222
 6879WAT     H120879   7.430   8.893   8.137
 6879WAT     H220880   7.537   8.997   8.202
 6880WAT      O20881   4.865   6.117   1.301
 6880WAT     H120882   4.807   6.061   1.240
 6880WAT     H220883   4.840   6.098   1.396
 6881WAT      O20884   1.641   3.686   4.936
 6881WAT     H120885   1.626   3.597   4.980
 6881WAT     H220886   1.553   3.731   4.922
 6882WAT      O20887   8.120   0.285   9.147
 6882WAT     H120888   8.050   0.284   9.075
 6882WAT     H220889   8.082   0.328   9.229
 6883WAT      O20890   7.054   2.111   1.406
 6883WAT     H120891   7.102   2.198   1.420
 6883WAT     H220892   7.097   2.061   1.331
 6884WAT      O20893   9.660   8.108   5.484
 6884WAT     H120894   9.566   8.109   5.518
 6884WAT     H220895   9.718   8.058   5.549
 6885WAT      O20896   8.315   2.868   5.798
 6885WAT     H120897   8.352   2.899   5.885
 6885WAT     H220898   8.369   2.907   5.723
 6886WAT      O20899   1.052   3.134   9.101
 6886WAT     H120900   1.149   3.148   9.120
 6886WAT     H220901   1.042   3.068   9.027
 6887WAT      O20902   7.015   6.842   9.722
 6887WAT     H120903   7.060   6.811   9.638
 6887WAT     H220904   6.933   6.786   9.738
 6888WAT      O20905   8.513   8.885   1.917
 6888WAT     H120906   8.440   8.954   1.918
 6888WAT     H220907   8.586   8.916   1.856
 6889WAT      O20908   9.338   1.395   7.249
 6889WAT     H120909   9.256   1.396   7.306
 6889WAT     H220910   9.389   1.480   7.262
 6890WAT      O20911   0.699   4.930   0.938
 6890WAT     H120912   0.798   4.917   0.939
 6890WAT     H220913   0.654   4.845   0.963
 6891WAT      O20914   2.355   8.215   7.222
 6891WAT     H120915   2.374   8.257   7.134
 6891WAT     H220916   2.422   8.143   7.239
 6892WAT      O20917   4.897   3.196   1.064
 6892WAT     H120918   4.941   3.285   1.049
 6892WAT     H220919   4.957   3.124   1.029
 6893WAT      O20920   5.346   9.097   9.549
 6893WAT     H120921   5.411   9.155   9.500
 6893WAT     H220922   5.388   9.063   9.633
 6894WAT      O20923   8.252   7.132   2.777
 6894WAT     H120924   8.163   7.118   2.732
 6894WAT     H220925   8.318   7.165   2.710
 6895WAT      O20926   0.896   3.550   5.827
 6895WAT     H120927   0.948   3.602   5.895
 6895WAT     H220928   0.798   3.562   5.844
 6896WAT      O20929   4.972   0.290   0.494
 6896WAT     H120930   5.062   0.267   0.457
 6896WAT     H220931   4.902   0.242   0.441
 6897WAT      O20932   5.739   4.806   0.935
 6897WAT     H120933   5.678   4.731   0.914
 6897WAT     H220934   5.812   4.775   0.996
 6898WAT      O20935   7.322   4.158   3.226
 6898WAT     H120936   7.253   4.127   3.160
 6898WAT     H220937   7.310   4.108   3.312
 6899WAT      O20938   1.741   6.099   6.239
 6899WAT     H120939   1.653   6.111   6.195
 6899WAT     H220940   1.810   6.156   6.192
 6900WAT      O20941   2.466   8.793   9.828
 6900WAT     H120942   2.547   8.751   9.869
 6900WAT     H220943   2.483   8.811   9.731
 6901WAT      O20944   8.399   3.833   6.708
 6901WAT     H120945   8.489   3.804   6.676
 6901WAT     H220946   8.406   3.925   6.747
 6902WAT      O20947   8.362   1.132   7.971
 6902WAT     H120948   8.356   1.113   8.069
 6902WAT     H220949   8.333   1.226   7.953
 6903WAT      O20950   7.397   9.049   3.938
 6903WAT     H120951   7.467   9.018   4.002
 6903WAT     H220952   7.440   9.104   3.866
 6904WAT      O20953   2.547   2.270   8.149
 6904WAT     H120954   2.561   2.351   8.092
 6904WAT     H220955   2.455   2.272   8.187
 6905WAT      O20956   6.921   8.463   7.158
 6905WAT     H120957   6.984   8.512   7.219
 6905WAT     H220958   6.964   8.450   7.069
 6906WAT      O20959   3.564   5.323   8.375
 6906WAT     H120960   3.500   5.248   8.361
 6906WAT     H220961   3.641   5.292   8.430
 6907WAT      O20962   5.151   5.214   5.441
 6907WAT     H120963   5.247   5.195   5.462
 6907WAT     H220964   5.147   5.294   5.381
 6908WAT      O20965   6.906   0.260   0.783
 6908WAT     H120966   6.831   0.195   0.772
 6908WAT     H220967   6.907   0.295   0.877
 6909WAT      O20968   3.810   8.245   6.217
 6909WAT     H120969   3.822   8.184   6.139
 6909WAT     H220970   3.737   8.209   6.276
 6910WAT      O20971   9.466   6.368   5.223
 6910WAT     H120972   9.487   6.392   5.318
 6910WAT     H220973   9.525   6.293   5.194
 6911WAT      O20974   5.881   9.030   6.645
 6911WAT     H120975   5.795   9.079   6.659
 6911WAT     H220976   5.862   8.934   6.626
 6912WAT      O20977   0.803   4.196   2.198
 6912WAT     H120978   0.840   4.107   2.227
 6912WAT     H220979   0.758   4.240   2.276
 6913WAT      O20980   9.799   4.889   3.684
 6913WAT     H120981   9.763   4.798   3.705
 6913WAT     H220982   9.832   4.932   3.768
 6914WAT      O20983   2.030   5.888   9.494
 6914WAT     H120984   2.099   5.819   9.472
 6914WAT     H220985   2.064   5.978   9.469
 6915WAT      O20986   2.992   7.063   7.498
 6915WAT     H120987   3.005   6.974   7.540
 6915WAT     H220988   2.916   7.059   7.434
 6916WAT      O20989   9.852   0.584   7.864
 6916WAT     H120990   9.760   0.546   7.873
 6916WAT     H220991   9.863   0.661   7.926
 6917WAT      O20992   4.302   2.052   7.000
 6917WAT     H120993   4.244   1.974   7.023
 6917WAT     H220994   4.384   2.050   7.057
 6918WAT      O20995   9.646   5.751   1.762
 6918WAT     H120996   9.636   5.701   1.676
 6918WAT     H220997   9.695   5.837   1.744
 6919WAT      O20998   4.906   0.939   5.784
 6919WAT     H120999   4.933   0.971   5.693
 6919WAT     H221000   4.810   0.961   5.801
 6920WAT      O21001   6.577   9.104   2.286
 6920WAT     H121002   6.512   9.149   2.346
 6920WAT     H221003   6.560   9.131   2.191
 6921WAT      O21004   3.660   5.112   2.983
 6921WAT     H121005   3.571   5.101   3.027
 6921WAT     H221006   3.689   5.025   2.943
 6922WAT      O21007   5.726   9.556   6.012
 6922WAT     H121008   5.815   9.575   6.054
 6922WAT     H221009   5.677   9.489   6.067
 6923WAT      O21010   8.829   3.030   6.708
 6923WAT     H121011   8.798   3.122   6.730
 6923WAT     H221012   8.753   2.965   6.718
 6924WAT      O21013   6.055   3.841   9.597
 6924WAT     H121014   5.992   3.859   9.521
 6924WAT     H221015   6.125   3.777   9.567
 6925WAT      O21016   6.604   6.600   8.779
 6925WAT     H121017   6.557   6.550   8.852
 6925WAT     H221018   6.540   6.616   8.704
 6926WAT      O21019   2.683   8.667   7.128
 6926WAT     H121020   2.736   8.630   7.204
 6926WAT     H221021   2.589   8.682   7.157
 6927WAT      O21022   5.449   1.681   4.154
 6927WAT     H121023   5.402   1.595   4.175
 6927WAT     H221024   5.423   1.750   4.221
 6928WAT      O21025   2.463   3.435   1.482
 6928WAT     H121026   2.483   3.461   1.388
 6928WAT     H221027   2.537   3.379   1.518
 6929WAT      O21028   8.974   8.198   1.068
 6929WAT     H121029   8.966   8.140   0.987
 6929WAT     H221030   8.896   8.261   1.071
 6930WAT      O21031   5.012   1.945   8.176
 6930WAT     H121032   5.084   1.948   8.107
 6930WAT     H221033   4.928   1.985   8.138
 6931WAT      O21034   6.827   4.687   8.555
 6931WAT     H121035   6.756   4.755   8.540
 6931WAT     H221036   6.812   4.640   8.641
 6932WAT      O21037   8.490   2.725   0.689
 6932WAT     H121038   8.471   2.809   0.740
 6932WAT     H221039   8.404   2.680   0.665
 6933WAT      O21040   0.864   6.612   1.707
 6933WAT     H121041   0.858   6.712   1.710
 6933WAT     H221042   0.771   6.574   1.710
 6934WAT      O21043   8.854   0.822   4.467
 6934WAT     H121044   8.808   0.823   4.378
 6934WAT     H221045   8.803   0.879   4.532
 6935WAT      O21046   1.538   8.350   3.007
 6935WAT     H121047   1.526   8.449   2.995
 6935WAT     H221048   1.566   8.331   3.101
 6936WAT      O21049   8.013   3.079   9.476
 6936WAT     H121050   7.973   3.170   9.479
 6936WAT     H221051   8.100   3.080   9.526
 6937WAT      O21052   8.929   3.374   0.842
 6937WAT     H121053   8.944   3.454   0.898
 6937WAT     H221054   8.944   3.291   0.896
 6938WAT      O21055   7.561   1.355   9.759
 6938WAT     H121056   7.471   1.362   9.715
 6938WAT     H221057   7.632   1.387   9.695
 6939WAT      O21058   8.973   9.404   5.367
 6939WAT     H121059   9.015   9.486   5.328
 6939WAT     H221060   8.997   9.396   5.464
 6940WAT      O21061   1.262   8.593   3.090
 6940WAT     H121062   1.352   8.594   3.048
 6940WAT     H221063   1.196   8.552   3.027
 6941WAT      O21064   1.876   7.244   2.464
 6941WAT     H121065   1.813   7.167   2.454
 6941WAT     H221066   1.883   7.293   2.377
 6942WAT      O21067   3.526   4.046   5.635
 6942WAT     H121068   3.572   4.091   5.711
 6942WAT     H221069   3.568   4.073   5.549
 6943WAT      O21070   8.318   0.834   3.944
 6943WAT     H121071   8.280   0.927   3.937
 6943WAT     H221072   8.273   0.786   4.019
 6944WAT      O21073   4.912   0.794   6.287
 6944WAT     H121074   4.962   0.708   6.282
 6944WAT     H221075   4.903   0.833   6.196
 6945WAT      O21076   6.951   0.501   9.444
 6945WAT     H121077   7.000   0.421   9.477
 6945WAT     H221078   6.853   0.490   9.464
 6946WAT      O21079   0.953   5.739   2.563
 6946WAT     H121080   1.020   5.698   2.500
 6946WAT     H221081   0.863   5.740   2.519
 6947WAT      O21082   6.273   7.490   3.061
 6947WAT     H121083   6.176   7.468   3.057
 6947WAT     H221084   6.285   7.589   3.054
 6948WAT      O21085   8.471   9.547   3.788
 6948WAT     H121086   8.453   9.462   3.837
 6948WAT     H221087   8.385   9.598   3.777
 6949WAT      O21088   6.499   7.313   9.043
 6949WAT     H121089   6.407   7.348   9.027
 6949WAT     H221090   6.499   7.250   9.120
 6950WAT      O21091   2.632   2.359   3.786
 6950WAT     H121092   2.627   2.282   3.722
 6950WAT     H221093   2.555   2.356   3.849
 6951WAT      O21094   2.435   8.457   1.712
 6951WAT     H121095   2.345   8.415   1.717
 6951WAT     H221096   2.433   8.533   1.646
 6952WAT      O21097   0.114   3.664   9.414
 6952WAT     H121098   0.125   3.684   9.317
 6952WAT     H221099   0.160   3.578   9.436
 6953WAT      O21100   6.832   1.028   4.820
 6953WAT     H121101   6.846   0.936   4.782
 6953WAT     H221102   6.866   1.031   4.914
 6954WAT      O21103   6.698   6.692   2.440
 6954WAT     H121104   6.648   6.608   2.460
 6954WAT     H221105   6.653   6.769   2.485
 6955WAT      O21106   9.095   3.808   3.253
 6955WAT     H121107   9.017   3.817   3.192
 6955WAT     H221108   9.162   3.879   3.232
 6956WAT      O21109   3.751   7.894   9.742
 6956WAT     H121110   3.817   7.865   9.810
 6956WAT     H221111   3.663   7.850   9.759
 6957WAT      O21112   7.194   4.026   1.937
 6957WAT     H121113   7.245   4.105   1.972
 6957WAT     H221114   7.257   3.950   1.924
 6958WAT      O21115   6.441   6.242   7.961
 6958WAT     H121116   6.417   6.191   7.879
 6958WAT     H221117   6.529   6.288   7.948
 6959WAT      O21118   7.231   5.564   0.088
 6959WAT     H121119   7.322   5.574   0.049
 6959WAT     H221120   7.238   5.538   0.185
 6960WAT      O21121   5.400   7.909   2.589
 6960WAT     H121122   5.474   7.957   2.542
 6960WAT     H221123   5.396   7.941   2.684
 6961WAT      O21124   3.825   8.489   6.972
 6961WAT     H121125   3.878   8.547   7.034
 6961WAT     H221126   3.872   8.402   6.958
 6962WAT      O21127   3.169   0.138   1.661
 6962WAT     H121128   3.260   0.166   1.631
 6962WAT     H221129   3.144   0.053   1.615
 6963WAT      O21130   6.212   3.764   1.044
 6963WAT     H121131   6.295   3.810   1.075
 6963WAT     H221132   6.152   3.748   1.122
 6964WAT      O21133   6.406   0.319   2.806
 6964WAT     H121134   6.428   0.226   2.836
 6964WAT     H221135   6.451   0.337   2.718
 6965WAT      O21136   5.043   2.316   4.268
 6965WAT     H121137   4.978   2.343   4.197
 6965WAT     H221138   4.994   2.279   4.347
 6966WAT      O21139   3.776   2.925   8.028
 6966WAT     H121140   3.694   2.938   7.972
 6966WAT     H221141   3.752   2.876   8.112
 6967WAT      O21142   5.660   9.202   7.026
 6967WAT     H121143   5.703   9.292   7.030
 6967WAT     H221144   5.564   9.210   7.053
 6968WAT      O21145   4.789   4.231   0.226
 6968WAT     H121146   4.812   4.302   0.292
 6968WAT     H221147   4.723   4.168   0.266
 6969WAT      O21148   6.809   0.075   6.211
 6969WAT     H121149   6.880   0.110   6.272
 6969WAT     H221150   6.729   0.049   6.265
 6970WAT      O21151   6.288   6.038   8.115
 6970WAT     H121152   6.388   6.050   8.111
 6970WAT     H221153   6.256   6.000   8.029
 6971WAT      O21154   5.736   5.815   3.905
 6971WAT     H121155   5.798   5.766   3.844
 6971WAT     H221156   5.738   5.913   3.884
 6972WAT      O21157   8.174   4.913   8.528
 6972WAT     H121158   8.245   4.869   8.582
 6972WAT     H221159   8.206   5.004   8.499
 6973WAT      O21160   7.559   8.567   9.618
 6973WAT     H121161   7.487   8.529   9.677
 6973WAT     H221162   7.626   8.615   9.675
 6974WAT      O21163   6.409   5.948   6.613
 6974WAT     H121164   6.364   5.996   6.537
 6974WAT     H221165   6.507   5.946   6.598
 6975WAT      O21166   1.412   2.860   2.306
 6975WAT     H121167   1.449   2.944   2.268
 6975WAT     H221168   1.315   2.851   2.281
 6976WAT      O21169   2.845   0.265   1.393
 6976WAT     H121170   2.926   0.314   1.425
 6976WAT     H221171   2.871   0.201   1.321
 6977WAT      O21172   6.186   8.700   8.189
 6977WAT     H121173   6.092   8.734   8.194
 6977WAT     H221174   6.233   8.720   8.275
 6978WAT      O21175   1.693   9.317   7.997
 6978WAT     H121176   1.732   9.389   8.054
 6978WAT     H221177   1.732   9.229   8.024
 6979WAT      O21178   2.818   9.351   2.973
 6979WAT     H121179   2.765   9.273   2.940
 6979WAT     H221180   2.805   9.428   2.910
 6980WAT      O21181   9.079   2.217   1.697
 6980WAT     H121182   9.034   2.193   1.610
 6980WAT     H221183   9.042   2.303   1.731
 6981WAT      O21184   1.445   1.073   2.184
 6981WAT     H121185   1.521   1.009   2.174
 6981WAT     H221186   1.378   1.057   2.112
 6982WAT      O21187   4.765   7.125   4.939
 6982WAT     H121188   4.814   7.210   4.960
 6982WAT     H221189   4.735   7.127   4.844
 6983WAT      O21190   7.888   9.749   3.316
 6983WAT     H121191   7.942   9.717   3.394
 6983WAT     H221192   7.904   9.846   3.302
 6984WAT      O21193   1.708   2.723   4.265
 6984WAT     H121194   1.664   2.812   4.270
 6984WAT     H221195   1.719   2.697   4.170
 6985WAT      O21196   1.108   4.833   4.093
 6985WAT     H121197   1.170   4.828   4.015
 6985WAT     H221198   1.101   4.743   4.136
 6986WAT      O21199   1.734   8.468   5.939
 6986WAT     H121200   1.740   8.461   6.038
 6986WAT     H221201   1.751   8.379   5.897
 6987WAT      O21202   8.756   5.276   3.047
 6987WAT     H121203   8.745   5.316   3.138
 6987WAT     H221204   8.834   5.319   3.001
 6988WAT      O21205   1.108   6.493   5.708
 6988WAT     H121206   1.052   6.440   5.771
 6988WAT     H221207   1.205   6.469   5.721
 6989WAT      O21208   3.993   4.303   7.023
 6989WAT     H121209   3.935   4.294   6.942
 6989WAT     H221210   4.043   4.218   7.038
 6990WAT      O21211   5.394   9.428   7.522
 6990WAT     H121212   5.415   9.452   7.427
 6990WAT     H221213   5.455   9.479   7.583
 6991WAT      O21214   2.532   3.215   0.272
 6991WAT     H121215   2.628   3.204   0.299
 6991WAT     H221216   2.503   3.309   0.290
 6992WAT      O21217   7.654   2.822   9.381
 6992WAT     H121218   7.690   2.742   9.429
 6992WAT     H221219   7.711   2.840   9.300
 6993WAT      O21220   5.505   5.378   8.391
 6993WAT     H121221   5.454   5.329   8.321
 6993WAT     H221222   5.479   5.343   8.481
 6994WAT      O21223   8.958   0.634   5.957
 6994WAT     H121224   8.931   0.718   6.003
 6994WAT     H221225   9.018   0.655   5.880
 6995WAT      O21226   4.139   7.606   0.020
 6995WAT     H121227   4.122   7.526  -0.038
 6995WAT     H221228   4.219   7.655  -0.014
 6996WAT      O21229   8.277   9.202   7.896
 6996WAT     H121230   8.367   9.161   7.885
 6996WAT     H221231   8.248   9.244   7.811
 6997WAT      O21232   0.664   9.252   2.804
 6997WAT     H121233   0.649   9.287   2.897
 6997WAT     H221234   0.762   9.246   2.786
 6998WAT      O21235   4.454   9.103   2.580
 6998WAT     H121236   4.490   9.059   2.663
 6998WAT     H221237   4.477   9.047   2.500
 6999WAT      O21238   3.452   0.391   6.696
 6999WAT     H121239   3.529   0.356   6.751
 6999WAT     H221240   3.417   0.318   6.638
 7000WAT      O21241   0.722   4.601   7.730
 7000WAT     H121242   0.808   4.550   7.731
 7000WAT     H221243   0.722   4.664   7.652
 7001WAT      O21244   1.722   3.799   3.892
 7001WAT     H121245   1.694   3.842   3.978
 7001WAT     H221246   1.645   3.751   3.852
 7002WAT      O21247   4.553   0.369   1.629
 7002WAT     H121248   4.544   0.283   1.678
 7002WAT     H221249   4.494   0.368   1.548
 7003WAT      O21250   9.615   8.893   9.084
 7003WAT     H121251   9.636   8.814   9.142
 7003WAT     H221252   9.639   8.871   8.989
 7004WAT      O21253   8.031   1.869   4.695
 7004WAT     H121254   8.090   1.874   4.614
 7004WAT     H221255   7.966   1.793   4.683
 7005WAT      O21256   5.075   9.585   9.124
 7005WAT     H121257   5.132   9.513   9.085
 7005WAT     H221258   5.029   9.551   9.206
 7006WAT      O21259   5.313   7.075   3.819
 7006WAT     H121260   5.310   7.125   3.906
 7006WAT     H221261   5.227   7.086   3.770
 7007WAT      O21262   5.999   0.546   2.487
 7007WAT     H121263   6.025   0.537   2.584
 7007WAT     H221264   6.047   0.477   2.434
 7008WAT      O21265   8.596   3.483   4.315
 7008WAT     H121266   8.573   3.396   4.272
 7008WAT     H221267   8.546   3.492   4.401
 7009WAT      O21268   5.972   8.857   4.264
 7009WAT     H121269   5.988   8.944   4.311
 7009WAT     H221270   6.006   8.863   4.171
 7010WAT      O21271   6.989   4.629   8.086
 7010WAT     H121272   7.050   4.705   8.105
 7010WAT     H221273   7.007   4.554   8.149
 7011WAT      O21274   6.658   0.072   3.706
 7011WAT     H121275   6.705   0.158   3.686
 7011WAT     H221276   6.584   0.089   3.770
 7012WAT      O21277   5.520   5.729   1.993
 7012WAT     H121278   5.452   5.688   2.054
 7012WAT     H221279   5.496   5.708   1.898
 7013WAT      O21280   7.504   7.793   0.650
 7013WAT     H121281   7.527   7.827   0.559
 7013WAT     H221282   7.580   7.810   0.712
 7014WAT      O21283   1.732   7.879   5.776
 7014WAT     H121284   1.830   7.888   5.793
 7014WAT     H221285   1.716   7.878   5.677
 7015WAT      O21286   1.513   4.503   6.221
 7015WAT     H121287   1.500   4.443   6.300
 7015WAT     H221288   1.592   4.473   6.168
 7016WAT      O21289   0.783   2.457   7.350
 7016WAT     H121290   0.859   2.466   7.285
 7016WAT     H221291   0.814   2.485   7.441
 7017WAT      O21292   2.141   2.943   0.124
 7017WAT     H121293   2.171   2.968   0.032
 7017WAT     H221294   2.203   2.982   0.191
 7018WAT      O21295   8.345   6.876   9.614
 7018WAT     H121296   8.319   6.786   9.577
 7018WAT     H221297   8.443   6.876   9.632
 7019WAT      O21298   6.560   5.273   7.895
 7019WAT     H121299   6.574   5.290   7.993
 7019WAT     H221300   6.642   5.234   7.855
 7020WAT      O21301   1.542   1.584   5.495
 7020WAT     H121302   1.547   1.552   5.589
 7020WAT     H221303   1.550   1.507   5.433
 7021WAT      O21304   2.125   2.079   9.523
 7021WAT     H121305   2.040   2.026   9.516
 7021WAT     H221306   2.126   2.128   9.610
 7022WAT      O21307   0.232   5.285   6.705
 7022WAT     H121308   0.236   5.344   6.624
 7022WAT     H221309   0.253   5.191   6.678
 7023WAT      O21310   8.374   1.018   4.897
 7023WAT     H121311   8.460   1.007   4.847
 7023WAT     H221312   8.387   0.989   4.992
 7024WAT      O21313   5.080   7.036   6.417
 7024WAT     H121314   5.170   7.015   6.456
 7024WAT     H221315   5.015   6.964   6.442
 7025WAT      O21316   4.811   9.331   0.439
 7025WAT     H121317   4.753   9.302   0.515
 7025WAT     H221318   4.901   9.288   0.447
 7026WAT      O21319   5.607   4.750   1.280
 7026WAT     H121320   5.580   4.715   1.190
 7026WAT     H221321   5.636   4.675   1.338
 7027WAT      O21322   1.597   7.672   5.060
 7027WAT     H121323   1.637   7.581   5.045
 7027WAT     H221324   1.651   7.740   5.010
 7028WAT      O21325   9.513   8.810   3.918
 7028WAT     H121326   9.487   8.716   3.939
 7028WAT     H221327   9.443   8.872   3.954
 7029WAT      O21328   0.279   7.027   0.217
 7029WAT     H121329   0.317   6.935   0.206
 7029WAT     H221330   0.248   7.039   0.311
 7030WAT      O21331   5.684   2.748   7.548
 7030WAT     H121332   5.732   2.760   7.635
 7030WAT     H221333   5.619   2.823   7.535
 7031WAT      O21334   6.189   7.482   3.766
 7031WAT     H121335   6.119   7.496   3.696
 7031WAT     H221336   6.254   7.558   3.764
 7032WAT      O21337   8.470   7.580   9.738
 7032WAT     H121338   8.504   7.526   9.661
 7032WAT     H221339   8.411   7.653   9.704
 7033WAT      O21340   0.819   7.578   6.076
 7033WAT     H121341   0.872   7.512   6.131
 7033WAT     H221342   0.752   7.529   6.021
 7034WAT      O21343   4.132   2.022   0.326
 7034WAT     H121344   4.207   2.084   0.307
 7034WAT     H221345   4.045   2.064   0.299
 7035WAT      O21346   1.504   2.930   5.188
 7035WAT     H121347   1.578   2.993   5.165
 7035WAT     H221348   1.512   2.903   5.284
 7036WAT      O21349   7.464   4.994   2.355
 7036WAT     H121350   7.405   4.966   2.279
 7036WAT     H221351   7.539   5.049   2.320
 7037WAT      O21352   2.803   2.676   3.463
 7037WAT     H121353   2.822   2.578   3.471
 7037WAT     H221354   2.713   2.689   3.420
 7038WAT      O21355   9.441   6.356   7.031
 7038WAT     H121356   9.419   6.265   7.066
 7038WAT     H221357   9.399   6.425   7.090
 7039WAT      O21358   3.331   3.721   1.637
 7039WAT     H121359   3.329   3.809   1.683
 7039WAT     H221360   3.370   3.652   1.698
 7040WAT      O21361   9.088   0.143   8.484
 7040WAT     H121362   9.017   0.100   8.540
 7040WAT     H221363   9.138   0.073   8.434
 7041WAT      O21364   9.454   5.680   1.345
 7041WAT     H121365   9.424   5.756   1.402
 7041WAT     H221366   9.407   5.683   1.257
 7042WAT      O21367   0.711   0.843   5.815
 7042WAT     H121368   0.690   0.835   5.717
 7042WAT     H221369   0.628   0.825   5.868
 7043WAT      O21370   8.135   8.783   3.609
 7043WAT     H121371   8.062   8.775   3.676
 7043WAT     H221372   8.217   8.819   3.654
 7044WAT      O21373   1.622   4.233   3.643
 7044WAT     H121374   1.543   4.192   3.688
 7044WAT     H221375   1.687   4.161   3.617
 7045WAT      O21376   3.699   5.906   1.264
 7045WAT     H121377   3.627   5.975   1.261
 7045WAT     H221378   3.674   5.828   1.208
 7046WAT      O21379   4.218   8.436   9.569
 7046WAT     H121380   4.145   8.370   9.586
 7046WAT     H221381   4.209   8.473   9.476
 7047WAT      O21382   5.242   7.065   1.781
 7047WAT     H121383   5.295   6.982   1.799
 7047WAT     H221384   5.248   7.126   1.860
 7048WAT      O21385   9.820   7.109   8.628
 7048WAT     H121386   9.742   7.049   8.645
 7048WAT     H221387   9.871   7.123   8.713
 7049WAT      O21388   4.460   5.605   2.240
 7049WAT     H121389   4.408   5.673   2.187
 7049WAT     H221390   4.421   5.598   2.331
 7050WAT      O21391   4.530   0.684   3.670
 7050WAT     H121392   4.607   0.622   3.664
 7050WAT     H221393   4.445   0.635   3.650
 7051WAT      O21394   1.406   6.211   0.798
 7051WAT     H121395   1.501   6.233   0.818
 7051WAT     H221396   1.398   6.180   0.703
 7052WAT      O21397   3.271   4.812   4.496
 7052WAT     H121398   3.223   4.868   4.429
 7052WAT     H221399   3.212   4.795   4.574
 7053WAT      O21400   2.943   2.364   3.297
 7053WAT     H121401   2.914   2.271   3.274
 7053WAT     H221402   2.985   2.365   3.388
 7054WAT      O21403   2.236   5.843   5.138
 7054WAT     H121404   2.252   5.925   5.082
 7054WAT     H221405   2.313   5.831   5.201
 7055WAT      O21406   1.960   4.175   1.465
 7055WAT     H121407   1.950   4.078   1.487
 7055WAT     H221408   1.954   4.229   1.548
 7056WAT      O21409   6.432   8.176   7.892
 7056WAT     H121410   6.468   8.184   7.985
 7056WAT     H221411   6.480   8.240   7.832
 7057WAT      O21412   7.508   7.763   8.204
 7057WAT     H121413   7.540   7.819   8.280
 7057WAT     H221414   7.547   7.671   8.212
 7058WAT      O21415   7.904   3.093   7.616
 7058WAT     H121416   7.934   3.187   7.600
 7058WAT     H221417   7.969   3.048   7.678
 7059WAT      O21418   6.937   6.899   6.766
 7059WAT     H121419   6.981   6.866   6.850
 7059WAT     H221420   7.000   6.958   6.716
 7060WAT      O21421   8.810   1.943   4.752
 7060WAT     H121422   8.890   1.887   4.776
 7060WAT     H221423   8.759   1.965   4.835
 7061WAT      O21424   0.698   2.587   2.101
 7061WAT     H121425   0.704   2.487   2.099
 7061WAT     H221426   0.606   2.616   2.073
 7062WAT      O21427   0.348   4.775   8.662
 7062WAT     H121428   0.342   4.834   8.743
 7062WAT     H221429   0.418   4.812   8.600
 7063WAT      O21430   0.778   9.745   5.111
 7063WAT     H121431   0.842   9.673   5.084
 7063WAT     H221432   0.702   9.704   5.162
 7064WAT      O21433   1.526   6.134   8.633
 7064WAT     H121434   1.614   6.120   8.677
 7064WAT     H221435   1.458   6.160   8.701
 7065WAT      O21436   1.574   3.607   0.345
 7065WAT     H121437   1.480   3.636   0.359
 7065WAT     H221438   1.631   3.686   0.321
 7066WAT      O21439   5.520   9.252   3.637
 7066WAT     H121440   5.478   9.209   3.717
 7066WAT     H221441   5.522   9.186   3.562
 7067WAT      O21442   9.762   8.162   7.503
 7067WAT     H121443   9.797   8.084   7.450
 7067WAT     H221444   9.665   8.149   7.521
 7068WAT      O21445   7.783   3.869   2.618
 7068WAT     H121446   7.764   3.781   2.574
 7068WAT     H221447   7.882   3.882   2.624
 7069WAT      O21448   1.179   1.183   3.426
 7069WAT     H121449   1.222   1.095   3.405
 7069WAT     H221450   1.212   1.216   3.515
 7070WAT      O21451   8.639   8.792   9.179
 7070WAT     H121452   8.610   8.769   9.086
 7070WAT     H221453   8.731   8.831   9.177
 7071WAT      O21454   7.170   3.883   2.984
 7071WAT     H121455   7.248   3.942   2.965
 7071WAT     H221456   7.090   3.939   3.006
 7072WAT      O21457   9.504   2.236   5.910
 7072WAT     H121458   9.502   2.143   5.947
 7072WAT     H221459   9.597   2.271   5.917
 7073WAT      O21460   9.673   4.504   7.261
 7073WAT     H121461   9.771   4.521   7.249
 7073WAT     H221462   9.660   4.417   7.309
 7074WAT      O21463   3.835   4.610   9.076
 7074WAT     H121464   3.919   4.556   9.067
 7074WAT     H221465   3.760   4.551   9.107
 7075WAT      O21466   6.606   7.427   5.847
 7075WAT     H121467   6.678   7.482   5.804
 7075WAT     H221468   6.643   7.338   5.873
 7076WAT      O21469   7.048   3.084   5.995
 7076WAT     H121470   7.100   3.136   5.928
 7076WAT     H221471   6.984   3.023   5.947
 7077WAT      O21472   7.034   5.899   8.724
 7077WAT     H121473   7.095   5.819   8.732
 7077WAT     H221474   7.010   5.931   8.815
 7078WAT      O21475   3.632   3.634   2.029
 7078WAT     H121476   3.671   3.666   2.116
 7078WAT     H221477   3.566   3.701   1.995
 7079WAT      O21478   0.650   3.875   7.439
 7079WAT     H121479   0.585   3.940   7.479
 7079WAT     H221480   0.605   3.787   7.426
 7080WAT      O21481   8.495   5.296   1.419
 7080WAT     H121482   8.488   5.212   1.472
 7080WAT     H221483   8.490   5.276   1.322
 7081WAT      O21484   6.919   9.681   0.400
 7081WAT     H121485   6.974   9.614   0.451
 7081WAT     H221486   6.928   9.663   0.302
 7082WAT      O21487   0.278   5.699   3.564
 7082WAT     H121488   0.323   5.612   3.541
 7082WAT     H221489   0.193   5.706   3.513
 7083WAT      O21490   5.406   2.591   0.376
 7083WAT     H121491   5.365   2.506   0.344
 7083WAT     H221492   5.346   2.668   0.353
 7084WAT      O21493   1.297   7.519   6.537
 7084WAT     H121494   1.386   7.506   6.493
 7084WAT     H221495   1.237   7.570   6.476
 7085WAT      O21496   1.451   1.152   7.420
 7085WAT     H121497   1.547   1.124   7.422
 7085WAT     H221498   1.403   1.098   7.351
 7086WAT      O21499   4.946   5.650   2.913
 7086WAT     H121500   4.876   5.645   2.984
 7086WAT     H221501   5.020   5.712   2.943
 7087WAT      O21502   2.841   9.231   7.900
 7087WAT     H121503   2.765   9.173   7.870
 7087WAT     H221504   2.862   9.211   7.995
 7088WAT      O21505   1.969   7.726   8.956
 7088WAT     H121506   1.992   7.824   8.957
 7088WAT     H221507   1.968   7.691   9.049
 7089WAT      O21508   8.545   5.247   2.196
 7089WAT     H121509   8.460   5.257   2.145
 7089WAT     H221510   8.621   5.233   2.132
 7090WAT      O21511   7.961   1.436   2.345
 7090WAT     H121512   7.885   1.429   2.281
 7090WAT     H221513   7.932   1.405   2.436
 7091WAT      O21514   5.101   6.750   8.983
 7091WAT     H121515   5.005   6.733   9.008
 7091WAT     H221516   5.150   6.663   8.979
 7092WAT      O21517   8.760   4.388   4.211
 7092WAT     H121518   8.666   4.409   4.236
 7092WAT     H221519   8.761   4.320   4.137
 7093WAT      O21520   7.258   0.845   6.158
 7093WAT     H121521   7.205   0.891   6.230
 7093WAT     H221522   7.355   0.853   6.178
 7094WAT      O21523   3.410   9.042   7.930
 7094WAT     H121524   3.435   8.957   7.977
 7094WAT     H221525   3.449   9.120   7.979
 7095WAT      O21526   0.366   6.229   2.011
 7095WAT     H121527   0.418   6.309   1.982
 7095WAT     H221528   0.400   6.148   1.965
 7096WAT      O21529   0.961   5.721   5.828
 7096WAT     H121530   0.992   5.722   5.923
 7096WAT     H221531   0.903   5.801   5.811
 7097WAT      O21532   0.639   4.823   7.882
 7097WAT     H121533   0.660   4.751   7.816
 7097WAT     H221534   0.709   4.894   7.878
 7098WAT      O21535   7.212   3.690   7.500
 7098WAT     H121536   7.179   3.623   7.566
 7098WAT     H221537   7.312   3.686   7.494
 7099WAT      O21538   2.678   5.133   0.656
 7099WAT     H121539   2.688   5.036   0.630
 7099WAT     H221540   2.585   5.149   0.689
 7100WAT      O21541   1.870   5.661   5.988
 7100WAT     H121542   1.851   5.565   6.008
 7100WAT     H221543   1.964   5.671   5.955
 7101WAT      O21544   1.805   6.351   6.823
 7101WAT     H121545   1.838   6.272   6.772
 7101WAT     H221546   1.707   6.340   6.843
 7102WAT      O21547   3.554   0.924   5.348
 7102WAT     H121548   3.616   1.001   5.335
 7102WAT     H221549   3.592   0.862   5.417
 7103WAT      O21550   7.763   6.323   7.059
 7103WAT     H121551   7.763   6.310   7.158
 7103WAT     H221552   7.710   6.250   7.016
 7104WAT      O21553   4.264   8.350   6.319
 7104WAT     H121554   4.358   8.319   6.325
 7104WAT     H221555   4.247   8.392   6.230
 7105WAT      O21556   5.630   1.194   9.638
 7105WAT     H121557   5.603   1.210   9.543
 7105WAT     H221558   5.576   1.119   9.676
 7106WAT      O21559   9.507   0.462   4.958
 7106WAT     H121560   9.511   0.525   5.036
 7106WAT     H221561   9.531   0.370   4.989
 7107WAT      O21562   2.265   9.543   6.651
 7107WAT     H121563   2.171   9.552   6.618
 7107WAT     H221564   2.328   9.570   6.578
 7108WAT      O21565   6.349   9.659   6.901
 7108WAT     H121566   6.281   9.647   6.973
 7108WAT     H221567   6.438   9.624   6.932
 7109WAT      O21568   5.975   2.748   9.317
 7109WAT     H121569   6.066   2.765   9.354
 7109WAT     H221570   5.923   2.833   9.314
 7110WAT      O21571   9.510   7.171   5.232
 7110WAT     H121572   9.543   7.093   5.177
 7110WAT     H221573   9.544   7.162   5.326
 7111WAT      O21574   8.126   6.545   6.659
 7111WAT     H121575   8.182   6.486   6.716
 7111WAT     H221576   8.174   6.632   6.644
 7112WAT      O21577   4.163   2.761   6.869
 7112WAT     H121578   4.153   2.855   6.902
 7112WAT     H221579   4.247   2.721   6.906
 7113WAT      O21580   0.099   8.145   6.197
 7113WAT     H121581   0.038   8.224   6.184
 7113WAT     H221582   0.188   8.166   6.156
 7114WAT      O21583   1.316   2.992   6.002
 7114WAT     H121584   1.378   2.925   5.962
 7114WAT     H221585   1.253   3.024   5.932
 7115WAT      O21586   1.684   6.030   2.156
 7115WAT     H121587   1.695   5.991   2.065
 7115WAT     H221588   1.591   6.014   2.188
 7116WAT      O21589   7.489   2.352   5.130
 7116WAT     H121590   7.570   2.295   5.144
 7116WAT     H221591   7.410   2.294   5.107
 7117WAT      O21592   3.313   0.739   0.608
 7117WAT     H121593   3.306   0.720   0.706
 7117WAT     H221594   3.316   0.838   0.593
 7118WAT      O21595   2.881   6.305   2.927
 7118WAT     H121596   2.821   6.349   2.993
 7118WAT     H221597   2.828   6.245   2.868
 7119WAT      O21598   1.883   0.936   8.871
 7119WAT     H121599   1.850   0.929   8.965
 7119WAT     H221600   1.822   0.885   8.810
 7120WAT      O21601   6.223   9.411   0.034
 7120WAT     H121602   6.288   9.340   0.008
 7120WAT     H221603   6.139   9.401  -0.020
 7121WAT      O21604   4.628   1.847   5.728
 7121WAT     H121605   4.670   1.895   5.651
 7121WAT     H221606   4.534   1.880   5.740
 7122WAT      O21607   8.209   8.701   6.887
 7122WAT     H121608   8.284   8.763   6.865
 7122WAT     H221609   8.193   8.640   6.809
 7123WAT      O21610   8.892   4.506   8.355
 7123WAT     H121611   8.886   4.413   8.319
 7123WAT     H221612   8.956   4.559   8.298
 7124WAT      O21613   0.545   1.355   8.869
 7124WAT     H121614   0.478   1.430   8.873
 7124WAT     H221615   0.497   1.267   8.870
 7125WAT      O21616   4.890   5.037   8.506
 7125WAT     H121617   4.821   5.021   8.436
 7125WAT     H221618   4.846   5.069   8.590
 7126WAT      O21619   0.880   0.174   5.934
 7126WAT     H121620   0.900   0.239   5.860
 7126WAT     H221621   0.806   0.112   5.905
 7127WAT      O21622   9.529   4.556   5.473
 7127WAT     H121623   9.470   4.529   5.550
 7127WAT     H221624   9.487   4.527   5.387
 7128WAT      O21625   6.569   0.330   3.959
 7128WAT     H121626   6.490   0.389   3.979
 7128WAT     H221627   6.539   0.250   3.908
 7129WAT      O21628   8.316   7.470   2.816
 7129WAT     H121629   8.238   7.483   2.876
 7129WAT     H221630   8.368   7.390   2.846
 7130WAT      O21631   6.203   2.007   0.903
 7130WAT     H121632   6.186   2.002   1.001
 7130WAT     H221633   6.169   2.094   0.867
 7131WAT      O21634   4.279   4.518   0.964
 7131WAT     H121635   4.307   4.495   0.871
 7131WAT     H221636   4.194   4.470   0.986
 7132WAT      O21637   3.468   6.010   7.522
 7132WAT     H121638   3.514   5.924   7.541
 7132WAT     H221639   3.482   6.073   7.599
 7133WAT      O21640   1.368   0.221   9.632
 7133WAT     H121641   1.440   0.171   9.585
 7133WAT     H221642   1.280   0.177   9.614
 7134WAT      O21643   3.492   7.583   7.043
 7134WAT     H121644   3.415   7.561   7.103
 7134WAT     H221645   3.550   7.502   7.032
 7135WAT      O21646   9.263   1.090   6.265
 7135WAT     H121647   9.312   1.003   6.276
 7135WAT     H221648   9.327   1.162   6.240
 7136WAT      O21649   4.389   5.282   2.508
 7136WAT     H121650   4.418   5.224   2.431
 7136WAT     H221651   4.469   5.306   2.563
 7137WAT      O21652   2.271   4.322   7.759
 7137WAT     H121653   2.266   4.273   7.672
 7137WAT     H221654   2.356   4.298   7.806
 7138WAT      O21655   7.618   3.579   5.693
 7138WAT     H121656   7.712   3.577   5.658
 7138WAT     H221657   7.578   3.669   5.673
 7139WAT      O21658   2.732   9.240   2.269
 7139WAT     H121659   2.798   9.315   2.263
 7139WAT     H221660   2.781   9.153   2.261
 7140WAT      O21661   0.287   6.478   2.354
 7140WAT     H121662   0.305   6.576   2.362
 7140WAT     H221663   0.218   6.451   2.421
 7141WAT      O21664   7.984   7.164   4.545
 7141WAT     H121665   7.920   7.143   4.471
 7141WAT     H221666   7.935   7.211   4.619
 7142WAT      O21667   6.037   9.373   3.733
 7142WAT     H121668   6.025   9.426   3.817
 7142WAT     H221669   5.948   9.365   3.686
 7143WAT      O21670   5.482   7.515   1.877
 7143WAT     H121671   5.461   7.452   1.802
 7143WAT     H221672   5.582   7.518   1.890
 7144WAT      O21673   2.397   2.036   9.436
 7144WAT     H121674   2.459   2.041   9.515
 7144WAT     H221675   2.303   2.049   9.467
 7145WAT      O21676   9.130   0.839   2.109
 7145WAT     H121677   9.055   0.825   2.044
 7145WAT     H221678   9.103   0.803   2.199
 7146WAT      O21679   4.869   7.271   5.738
 7146WAT     H121680   4.925   7.200   5.781
 7146WAT     H221681   4.877   7.263   5.638
 7147WAT      O21682   1.884   2.192   7.541
 7147WAT     H121683   1.859   2.190   7.638
 7147WAT     H221684   1.845   2.112   7.495
 7148WAT      O21685   9.547   6.649   8.725
 7148WAT     H121686   9.565   6.556   8.693
 7148WAT     H221687   9.459   6.679   8.690
 7149WAT      O21688   3.226   6.254   0.956
 7149WAT     H121689   3.286   6.265   1.035
 7149WAT     H221690   3.279   6.268   0.872
 7150WAT      O21691   0.181   7.569   8.155
 7150WAT     H121692   0.280   7.579   8.149
 7150WAT     H221693   0.145   7.536   8.067
 7151WAT      O21694   2.834   2.478   0.913
 7151WAT     H121695   2.755   2.426   0.947
 7151WAT     H221696   2.827   2.488   0.814
 7152WAT      O21697   5.718   4.627   3.568
 7152WAT     H121698   5.628   4.646   3.607
 7152WAT     H221699   5.775   4.710   3.571
 7153WAT      O21700   3.733   3.763   7.589
 7153WAT     H121701   3.674   3.788   7.512
 7153WAT     H221702   3.808   3.829   7.596
 7154WAT      O21703   3.753   9.683   7.087
 7154WAT     H121704   3.776   9.682   7.184
 7154WAT     H221705   3.671   9.628   7.072
 7155WAT      O21706   1.146   5.858   5.310
 7155WAT     H121707   1.203   5.880   5.231
 7155WAT     H221708   1.177   5.772   5.351
 7156WAT      O21709   0.377   0.432   7.773
 7156WAT     H121710   0.283   0.407   7.795
 7156WAT     H221711   0.399   0.401   7.681
 7157WAT      O21712   0.605   4.440   7.941
 7157WAT     H121713   0.654   4.500   7.877
 7157WAT     H221714   0.547   4.495   8.000
 7158WAT      O21715   7.882   7.359   6.922
 7158WAT     H121716   7.855   7.406   7.006
 7158WAT     H221717   7.814   7.289   6.900
 7159WAT      O21718   0.708   1.904   1.775
 7159WAT     H121719   0.690   1.840   1.850
 7159WAT     H221720   0.745   1.989   1.812
 7160WAT      O21721   5.654   0.313   6.904
 7160WAT     H121722   5.573   0.368   6.925
 7160WAT     H221723   5.631   0.216   6.913
 7161WAT      O21724   5.677   1.664   3.086
 7161WAT     H121725   5.647   1.693   3.177
 7161WAT     H221726   5.638   1.574   3.066
 7162WAT      O21727   0.361   4.404   5.039
 7162WAT     H121728   0.267   4.376   5.056
 7162WAT     H221729   0.368   4.444   4.947
 7163WAT      O21730   3.569   2.245   0.605
 7163WAT     H121731   3.543   2.149   0.614
 7163WAT     H221732   3.655   2.262   0.654
 7164WAT      O21733   0.767   3.614   2.679
 7164WAT     H121734   0.715   3.653   2.755
 7164WAT     H221735   0.843   3.673   2.657
 7165WAT      O21736   7.514   6.901   4.764
 7165WAT     H121737   7.595   6.900   4.823
 7165WAT     H221738   7.527   6.838   4.687
 7166WAT      O21739   2.523   8.489   5.612
 7166WAT     H121740   2.437   8.530   5.641
 7166WAT     H221741   2.541   8.514   5.517
 7167WAT      O21742   6.116   7.625   1.230
 7167WAT     H121743   6.021   7.652   1.214
 7167WAT     H221744   6.159   7.603   1.142
 7168WAT      O21745   8.409   1.421   1.367
 7168WAT     H121746   8.387   1.517   1.382
 7168WAT     H221747   8.423   1.376   1.456
 7169WAT      O21748   9.103   4.132   3.591
 7169WAT     H121749   9.065   4.043   3.618
 7169WAT     H221750   9.157   4.169   3.667
 7170WAT      O21751   4.000   6.611   6.311
 7170WAT     H121752   4.008   6.648   6.218
 7170WAT     H221753   4.088   6.617   6.357
 7171WAT      O21754   9.807   4.489   3.861
 7171WAT     H121755   9.903   4.469   3.839
 7171WAT     H221756   9.757   4.506   3.776
 7172WAT      O21757   1.432   4.987   2.947
 7172WAT     H121758   1.476   5.033   2.870
 7172WAT     H221759   1.335   5.009   2.949
 7173WAT      O21760   9.836   0.011   5.403
 7173WAT     H121761   9.754  -0.030   5.443
 7173WAT     H221762   9.884   0.065   5.473
 7174WAT      O21763   7.489   2.036   3.707
 7174WAT     H121764   7.540   2.076   3.631
 7174WAT     H221765   7.529   2.067   3.793
 7175WAT      O21766   2.330   4.157   2.929
 7175WAT     H121767   2.261   4.111   2.874
 7175WAT     H221768   2.286   4.214   2.998
 7176WAT      O21769   6.800   7.891   6.413
 7176WAT     H121770   6.772   7.890   6.509
 7176WAT     H221771   6.808   7.797   6.380
 7177WAT      O21772   1.655   7.946   4.147
 7177WAT     H121773   1.753   7.937   4.167
 7177WAT     H221774   1.616   8.018   4.205
 7178WAT      O21775   7.205   3.829   4.560
 7178WAT     H121776   7.130   3.887   4.591
 7178WAT     H221777   7.273   3.885   4.513
 7179WAT      O21778   1.223   1.914   0.852
 7179WAT     H121779   1.244   1.834   0.909
 7179WAT     H221780   1.182   1.883   0.766
 7180WAT      O21781   5.782   7.176   4.936
 7180WAT     H121782   5.873   7.138   4.926
 7180WAT     H221783   5.781   7.240   5.013
 7181WAT      O21784   4.712   1.556   8.594
 7181WAT     H121785   4.677   1.593   8.509
 7181WAT     H221786   4.763   1.626   8.643
 7182WAT      O21787   4.802   9.128   3.520
 7182WAT     H121788   4.890   9.158   3.484
 7182WAT     H221789   4.770   9.047   3.470
 7183WAT      O21790   9.223   4.705   6.612
 7183WAT     H121791   9.151   4.635   6.602
 7183WAT     H221792   9.188   4.793   6.581
 7184WAT      O21793   1.457   3.805   4.004
 7184WAT     H121794   1.457   3.731   3.937
 7184WAT     H221795   1.394   3.782   4.078
 7185WAT      O21796   0.765   2.057   8.540
 7185WAT     H121797   0.702   2.066   8.463
 7185WAT     H221798   0.715   2.071   8.625
 7186WAT      O21799   2.689   0.760   1.857
 7186WAT     H121800   2.688   0.776   1.758
 7186WAT     H221801   2.607   0.800   1.898
 7187WAT      O21802   7.228   4.248   5.282
 7187WAT     H121803   7.242   4.341   5.246
 7187WAT     H221804   7.174   4.195   5.217
 7188WAT      O21805   3.884   9.035   8.474
 7188WAT     H121806   3.923   9.085   8.551
 7188WAT     H221807   3.917   9.074   8.388
 7189WAT      O21808   1.077   3.764   4.536
 7189WAT     H121809   1.034   3.750   4.446
 7189WAT     H221810   1.070   3.680   4.590
 7190WAT      O21811   3.963   7.248   1.925
 7190WAT     H121812   4.030   7.302   1.874
 7190WAT     H221813   3.999   7.156   1.942
 7191WAT      O21814   6.858   1.475   2.006
 7191WAT     H121815   6.761   1.481   2.031
 7191WAT     H221816   6.900   1.565   2.011
 7192WAT      O21817   6.815   3.225   9.038
 7192WAT     H121818   6.887   3.233   8.969
 7192WAT     H221819   6.734   3.275   9.009
 7193WAT      O21820   0.195   5.588   5.035
 7193WAT     H121821   0.105   5.547   5.019
 7193WAT     H221822   0.185   5.687   5.041
 7194WAT      O21823   5.154   4.158   2.530
 7194WAT     H121824   5.132   4.234   2.469
 7194WAT     H221825   5.073   4.134   2.584
 7195WAT      O21826   0.785   0.450   2.902
 7195WAT     H121827   0.861   0.514   2.887
 7195WAT     H221828   0.741   0.429   2.815
 7196WAT      O21829   1.888   9.401   4.959
 7196WAT     H121830   1.953   9.458   4.909
 7196WAT     H221831   1.929   9.372   5.046
 7197WAT      O21832   3.324   3.125   9.763
 7197WAT     H121833   3.388   3.140   9.688
 7197WAT     H221834   3.315   3.027   9.781
 7198WAT      O21835   1.963   6.782   8.283
 7198WAT     H121836   1.915   6.845   8.344
 7198WAT     H221837   1.935   6.801   8.189
 7199WAT      O21838   3.120   7.640   4.680
 7199WAT     H121839   3.211   7.598   4.678
 7199WAT     H221840   3.053   7.572   4.710
 7200WAT      O21841   0.844   2.726   9.030
 7200WAT     H121842   0.827   2.737   9.128
 7200WAT     H221843   0.942   2.710   9.015
 7201WAT      O21844   6.341   0.826   6.190
 7201WAT     H121845   6.393   0.882   6.126
 7201WAT     H221846   6.264   0.879   6.227
 7202WAT      O21847   1.108   7.925   5.633
 7202WAT     H121848   1.172   7.960   5.701
 7202WAT     H221849   1.099   7.826   5.644
 7203WAT      O21850   3.170   8.817   5.467
 7203WAT     H121851   3.132   8.890   5.524
 7203WAT     H221852   3.270   8.826   5.463
 7204WAT      O21853   2.480   9.030   5.823
 7204WAT     H121854   2.452   8.958   5.759
 7204WAT     H221855   2.551   9.086   5.780
 7205WAT      O21856   6.002   3.856   8.379
 7205WAT     H121857   6.005   3.922   8.304
 7205WAT     H221858   5.955   3.896   8.458
 7206WAT      O21859   7.934   1.238   6.198
 7206WAT     H121860   8.003   1.233   6.126
 7206WAT     H221861   7.980   1.244   6.287
 7207WAT      O21862   7.084   4.122   5.497
 7207WAT     H121863   7.007   4.075   5.455
 7207WAT     H221864   7.132   4.177   5.428
 7208WAT      O21865   0.401   6.996   0.863
 7208WAT     H121866   0.465   7.054   0.812
 7208WAT     H221867   0.349   7.052   0.927
 7209WAT      O21868   1.365   0.531   8.342
 7209WAT     H121869   1.304   0.479   8.402
 7209WAT     H221870   1.398   0.612   8.391
 7210WAT      O21871   4.354   4.850   4.070
 7210WAT     H121872   4.343   4.909   3.990
 7210WAT     H221873   4.449   4.854   4.101
 7211WAT      O21874   6.330   9.232   5.437
 7211WAT     H121875   6.400   9.186   5.382
 7211WAT     H221876   6.260   9.166   5.463
 7212WAT      O21877   2.041   6.319   3.969
 7212WAT     H121878   2.111   6.370   3.920
 7212WAT     H221879   2.078   6.291   4.058
 7213WAT      O21880   2.581   5.871   7.302
 7213WAT     H121881   2.634   5.875   7.387
 7213WAT     H221882   2.533   5.783   7.297
 7214WAT      O21883   3.017   7.696   3.446
 7214WAT     H121884   2.989   7.758   3.373
 7214WAT     H221885   3.113   7.671   3.433
 7215WAT      O21886   2.670   1.993   3.023
 7215WAT     H121887   2.604   2.062   2.995
 7215WAT     H221888   2.627   1.903   3.022
 7216WAT      O21889   8.097   2.136   6.746
 7216WAT     H121890   8.151   2.087   6.815
 7216WAT     H221891   8.155   2.204   6.702
 7217WAT      O21892   2.360   1.845   9.018
 7217WAT     H121893   2.335   1.941   9.007
 7217WAT     H221894   2.278   1.788   9.010
 7218WAT      O21895   6.482   6.247   5.763
 7218WAT     H121896   6.464   6.196   5.679
 7218WAT     H221897   6.574   6.285   5.759
 7219WAT      O21898   8.921   5.757   3.274
 7219WAT     H121899   8.839   5.714   3.235
 7219WAT     H221900   8.893   5.823   3.343
 7220WAT      O21901   8.554   1.428   3.256
 7220WAT     H121902   8.488   1.363   3.220
 7220WAT     H221903   8.540   1.517   3.215
 7221WAT      O21904   0.619   9.036   3.023
 7221WAT     H121905   0.543   9.014   2.962
 7221WAT     H221906   0.601   9.124   3.068
 7222WAT      O21907   3.058   1.542   8.561
 7222WAT     H121908   3.082   1.555   8.657
 7222WAT     H221909   2.961   1.515   8.554
 7223WAT      O21910   9.204   5.096   7.351
 7223WAT     H121911   9.178   5.132   7.440
 7223WAT     H221912   9.302   5.077   7.350
 7224WAT      O21913   6.401   4.325   0.407
 7224WAT     H121914   6.423   4.393   0.337
 7224WAT     H221915   6.469   4.252   0.405
 7225WAT      O21916   1.359   8.020   9.722
 7225WAT     H121917   1.360   7.994   9.625
 7225WAT     H221918   1.420   8.099   9.736
 7226WAT      O21919   4.028   9.083   6.503
 7226WAT     H121920   3.950   9.032   6.468
 7226WAT     H221921   4.018   9.097   6.601
 7227WAT      O21922   0.219   6.510   4.346
 7227WAT     H121923   0.160   6.451   4.400
 7227WAT     H221924   0.314   6.495   4.373
 7228WAT      O21925   6.539   2.736   8.977
 7228WAT     H121926   6.448   2.737   9.019
 7228WAT     H221927   6.605   2.693   9.039
 7229WAT      O21928   1.812   1.112   2.564
 7229WAT     H121929   1.732   1.054   2.547
 7229WAT     H221930   1.842   1.100   2.658
 7230WAT      O21931   2.842   8.611   8.180
 7230WAT     H121932   2.761   8.568   8.218
 7230WAT     H221933   2.878   8.555   8.105
 7231WAT      O21934   3.741   9.023   3.128
 7231WAT     H121935   3.765   8.974   3.212
 7231WAT     H221936   3.741   8.960   3.051
 7232WAT      O21937   2.350   0.592   3.110
 7232WAT     H121938   2.373   0.689   3.110
 7232WAT     H221939   2.268   0.577   3.055
 7233WAT      O21940   0.973   7.748   6.569
 7233WAT     H121941   1.008   7.816   6.633
 7233WAT     H221942   1.048   7.717   6.510
 7234WAT      O21943   2.007   1.650   5.525
 7234WAT     H121944   1.936   1.712   5.556
 7234WAT     H221945   2.033   1.588   5.599
 7235WAT      O21946   4.852   6.662   2.527
 7235WAT     H121947   4.828   6.689   2.621
 7235WAT     H221948   4.780   6.602   2.491
 7236WAT      O21949   0.006   9.784   7.907
 7236WAT     H121950   0.068   9.705   7.917
 7236WAT     H221951  -0.022   9.792   7.812
 7237WAT      O21952   7.215   9.185   7.549
 7237WAT     H121953   7.144   9.256   7.547
 7237WAT     H221954   7.249   9.169   7.457
 7238WAT      O21955   8.349   0.491   6.605
 7238WAT     H121956   8.355   0.442   6.519
 7238WAT     H221957   8.275   0.453   6.660
 7239WAT      O21958   2.006   0.511   2.182
 7239WAT     H121959   2.046   0.590   2.229
 7239WAT     H221960   1.912   0.533   2.155
 7240WAT      O21961   2.347   8.216   7.576
 7240WAT     H121962   2.391   8.127   7.584
 7240WAT     H221963   2.260   8.207   7.528
 7241WAT      O21964   2.803   6.786   1.143
 7241WAT     H121965   2.863   6.862   1.117
 7241WAT     H221966   2.713   6.799   1.102
 7242WAT      O21967   0.564   1.648   8.537
 7242WAT     H121968   0.640   1.678   8.596
 7242WAT     H221969   0.546   1.551   8.552
 7243WAT      O21970   2.552   0.906   2.133
 7243WAT     H121971   2.553   0.979   2.065
 7243WAT     H221972   2.644   0.893   2.170
 7244WAT      O21973   8.069   3.647   2.028
 7244WAT     H121974   8.169   3.642   2.032
 7244WAT     H221975   8.038   3.736   2.062
 7245WAT      O21976   3.136   1.234   9.679
 7245WAT     H121977   3.116   1.297   9.604
 7245WAT     H221978   3.235   1.227   9.691
 7246WAT      O21979   4.547   8.102   6.971
 7246WAT     H121980   4.553   8.195   6.936
 7246WAT     H221981   4.451   8.074   6.973
 7247WAT      O21982   0.058   6.979   7.639
 7247WAT     H121983  -0.039   7.002   7.645
 7247WAT     H221984   0.076   6.936   7.551
 7248WAT      O21985   3.769   3.557   9.351
 7248WAT     H121986   3.783   3.654   9.367
 7248WAT     H221987   3.765   3.539   9.253
 7249WAT      O21988   9.207   1.898   5.544
 7249WAT     H121989   9.193   1.845   5.460
 7249WAT     H221990   9.279   1.966   5.528
 7250WAT      O21991   8.000   2.600   5.895
 7250WAT     H121992   8.038   2.649   5.973
 7250WAT     H221993   8.074   2.573   5.833
 7251WAT      O21994   3.711   6.193   4.527
 7251WAT     H121995   3.619   6.172   4.560
 7251WAT     H221996   3.757   6.252   4.594
 7252WAT      O21997   8.112   1.686   6.659
 7252WAT     H121998   8.172   1.610   6.685
 7252WAT     H221999   8.074   1.729   6.741
 7253WAT      O22000   1.091   4.406   6.143
 7253WAT     H122001   1.085   4.337   6.070
 7253WAT     H222002   1.037   4.376   6.221
 7254WAT      O22003   6.432   6.812   2.754
 7254WAT     H122004   6.502   6.745   2.780
 7254WAT     H222005   6.372   6.772   2.685
 7255WAT      O22006   2.944   1.881   8.340
 7255WAT     H122007   3.027   1.843   8.381
 7255WAT     H222008   2.958   1.978   8.320
 7256WAT      O22009   0.126   9.287   2.055
 7256WAT     H122010   0.054   9.239   2.006
 7256WAT     H222011   0.195   9.319   1.991
 7257WAT      O22012   6.810   5.344   8.372
 7257WAT     H122013   6.861   5.376   8.452
 7257WAT     H222014   6.823   5.409   8.296
 7258WAT      O22015   0.665   6.736   0.538
 7258WAT     H122016   0.614   6.747   0.623
 7258WAT     H222017   0.649   6.644   0.501
 7259WAT      O22018   3.218   9.173   9.405
 7259WAT     H122019   3.283   9.117   9.457
 7259WAT     H222020   3.268   9.234   9.343
 7260WAT      O22021   0.356   2.658   1.100
 7260WAT     H122022   0.288   2.723   1.069
 7260WAT     H222023   0.387   2.602   1.023
 7261WAT      O22024   2.886   8.975   5.230
 7261WAT     H122025   2.793   8.988   5.263
 7261WAT     H222026   2.886   8.908   5.156
 7262WAT      O22027   5.619   0.365   5.630
 7262WAT     H122028   5.649   0.376   5.535
 7262WAT     H222029   5.532   0.412   5.643
 7263WAT      O22030   0.723   7.833   3.559
 7263WAT     H122031   0.734   7.800   3.653
 7263WAT     H222032   0.660   7.911   3.557
 7264WAT      O22033   2.425   6.799   2.578
 7264WAT     H122034   2.330   6.779   2.552
 7264WAT     H222035   2.469   6.714   2.608
 7265WAT      O22036   2.613   6.995   1.669
 7265WAT     H122037   2.660   6.974   1.584
 7265WAT     H222038   2.550   6.920   1.692
 7266WAT      O22039   2.938   0.514   6.468
 7266WAT     H122040   2.873   0.507   6.544
 7266WAT     H222041   2.891   0.498   6.382
 7267WAT      O22042   7.965   2.046   3.526
 7267WAT     H122043   7.912   1.964   3.505
 7267WAT     H222044   8.059   2.020   3.548
 7268WAT      O22045   1.049   5.231   2.874
 7268WAT     H122046   1.083   5.300   2.938
 7268WAT     H222047   1.044   5.271   2.783
 7269WAT      O22048   4.876   6.543   0.390
 7269WAT     H122049   4.897   6.630   0.435
 7269WAT     H222050   4.860   6.473   0.459
 7270WAT      O22051   1.852   4.772   1.241
 7270WAT     H122052   1.858   4.674   1.258
 7270WAT     H222053   1.906   4.821   1.309
 7271WAT      O22054   3.670   2.143   6.269
 7271WAT     H122055   3.588   2.104   6.311
 7271WAT     H222056   3.738   2.159   6.340
 7272WAT      O22057   8.673   7.834   9.476
 7272WAT     H122058   8.734   7.767   9.434
 7272WAT     H222059   8.594   7.787   9.516
 7273WAT      O22060   0.587   5.391   9.642
 7273WAT     H122061   0.544   5.473   9.681
 7273WAT     H222062   0.660   5.359   9.703
 7274WAT      O22063   8.016   7.991   5.585
 7274WAT     H122064   7.999   7.896   5.610
 7274WAT     H222065   8.036   8.044   5.668
 7275WAT      O22066   3.702   2.992   4.940
 7275WAT     H122067   3.723   3.083   4.976
 7275WAT     H222068   3.787   2.945   4.917
 7276WAT      O22069   2.419   4.750   6.699
 7276WAT     H122070   2.431   4.692   6.619
 7276WAT     H222071   2.357   4.826   6.676
 7277WAT      O22072   8.489   1.004   7.107
 7277WAT     H122073   8.584   0.981   7.131
 7277WAT     H222074   8.441   1.035   7.189
 7278WAT      O22075   5.290   1.359   9.701
 7278WAT     H122076   5.266   1.322   9.611
 7278WAT     H222077   5.317   1.284   9.761
 7279WAT      O22078   3.553   9.761   2.476
 7279WAT     H122079   3.465   9.715   2.460
 7279WAT     H222080   3.628   9.699   2.453
 7280WAT      O22081   3.282   2.755   4.613
 7280WAT     H122082   3.349   2.814   4.659
 7280WAT     H222083   3.252   2.683   4.676
 7281WAT      O22084   0.751   8.812   1.527
 7281WAT     H122085   0.820   8.876   1.491
 7281WAT     H222086   0.788   8.763   1.605
 7282WAT      O22087   7.504   1.224   7.751
 7282WAT     H122088   7.565   1.299   7.728
 7282WAT     H222089   7.483   1.173   7.667
 7283WAT      O22090   6.253   6.562   0.154
 7283WAT     H122091   6.289   6.652   0.128
 7283WAT     H222092   6.155   6.559   0.136
 7284WAT      O22093   2.619   5.348   2.099
 7284WAT     H122094   2.561   5.400   2.036
 7284WAT     H222095   2.569   5.330   2.184
 7285WAT      O22096   0.674   5.752   6.287
 7285WAT     H122097   0.668   5.777   6.191
 7285WAT     H222098   0.617   5.672   6.305
 7286WAT      O22099   8.861   7.383   7.907
 7286WAT     H122100   8.883   7.324   7.830
 7286WAT     H222101   8.850   7.327   7.990
 7287WAT      O22102   0.577   7.235   6.857
 7287WAT     H122103   0.637   7.199   6.928
 7287WAT     H222104   0.618   7.217   6.767
 7288WAT      O22105   7.085   1.265   0.415
 7288WAT     H122106   7.088   1.346   0.357
 7288WAT     H222107   7.144   1.279   0.495
 7289WAT      O22108   7.473   3.748   3.904
 7289WAT     H122109   7.556   3.691   3.905
 7289WAT     H222110   7.430   3.746   3.994
 7290WAT      O22111   3.084   2.120   4.846
 7290WAT     H122112   3.084   2.021   4.863
 7290WAT     H222113   3.113   2.167   4.929
 7291WAT      O22114   5.128   6.891   5.239
 7291WAT     H122115   5.051   6.899   5.175
 7291WAT     H222116   5.195   6.827   5.202
 7292WAT      O22117   9.036   8.005   9.065
 7292WAT     H122118   9.011   8.028   8.971
 7292WAT     H222119   8.988   8.065   9.128
 7293WAT      O22120   2.007   1.022   6.500
 7293WAT     H122121   2.059   1.003   6.417
 7293WAT     H222122   2.043   1.105   6.543
 7294WAT      O22123   3.315   5.126   7.237
 7294WAT     H122124   3.303   5.209   7.184
 7294WAT     H222125   3.406   5.124   7.277
 7295WAT      O22126   6.027   0.134   5.053
 7295WAT     H122127   5.935   0.137   5.091
 7295WAT     H222128   6.080   0.063   5.101
 7296WAT      O22129   0.563   9.682   0.662
 7296WAT     H122130   0.628   9.651   0.731
 7296WAT     H222131   0.608   9.747   0.601
 7297WAT      O22132   5.480   5.269   6.216
 7297WAT     H122133   5.438   5.354   6.183
 7297WAT     H222134   5.573   5.289   6.247
 7298WAT      O22135   6.397   4.734   5.708
 7298WAT     H122136   6.427   4.750   5.802
 7298WAT     H222137   6.331   4.659   5.707
 7299WAT      O22138   3.139   4.198   5.853
 7299WAT     H122139   3.178   4.113   5.888
 7299WAT     H222140   3.120   4.260   5.930
 7300WAT      O22141   2.221   4.484   3.350
 7300WAT     H122142   2.199   4.521   3.440
 7300WAT     H222143   2.174   4.537   3.279
 7301WAT      O22144   6.305   0.008   4.455
 7301WAT     H122145   6.394   0.021   4.500
 7301WAT     H222146   6.232   0.026   4.522
 7302WAT      O22147   5.336   8.424   2.765
 7302WAT     H122148   5.297   8.512   2.793
 7302WAT     H222149   5.266   8.353   2.774
 7303WAT      O22150   4.051   1.599   7.310
 7303WAT     H122151   4.117   1.643   7.372
 7303WAT     H222152   4.097   1.523   7.262
 7304WAT      O22153   9.279   4.216   0.071
 7304WAT     H122154   9.207   4.241   0.007
 7304WAT     H222155   9.237   4.187   0.158
 7305WAT      O22156   6.689   7.005   0.444
 7305WAT     H122157   6.781   6.971   0.464
 7305WAT     H222158   6.621   6.947   0.489
 7306WAT      O22159   3.853   7.541   9.427
 7306WAT     H122160   3.806   7.533   9.339
 7306WAT     H222161   3.920   7.466   9.436
 7307WAT      O22162   6.359   2.232   7.448
 7307WAT     H122163   6.433   2.235   7.381
 7307WAT     H222164   6.307   2.147   7.436
 7308WAT      O22165   1.247   7.117   3.705
 7308WAT     H122166   1.317   7.133   3.774
 7308WAT     H222167   1.278   7.154   3.617
 7309WAT      O22168   3.512   3.767   9.010
 7309WAT     H122169   3.537   3.758   8.914
 7309WAT     H222170   3.419   3.803   9.017
 7310WAT      O22171   6.707   4.356   2.769
 7310WAT     H122172   6.766   4.360   2.688
 7310WAT     H222173   6.711   4.263   2.807
 7311WAT      O22174   4.582   5.385   9.271
 7311WAT     H122175   4.680   5.374   9.288
 7311WAT     H222176   4.556   5.479   9.290
 7312WAT      O22177   2.175   7.753   2.496
 7312WAT     H122178   2.092   7.792   2.535
 7312WAT     H222179   2.176   7.654   2.510
 7313WAT      O22180   1.091   7.388   9.368
 7313WAT     H122181   1.175   7.433   9.399
 7313WAT     H222182   1.054   7.333   9.442
 7314WAT      O22183   3.886   3.478   9.605
 7314WAT     H122184   3.828   3.507   9.529
 7314WAT     H222185   3.829   3.445   9.680
 7315WAT      O22186   6.901   6.616   5.081
 7315WAT     H122187   6.983   6.604   5.025
 7315WAT     H222188   6.830   6.660   5.026
 7316WAT      O22189   2.192   4.897   0.030
 7316WAT     H122190   2.108   4.919   0.079
 7316WAT     H222191   2.267   4.886   0.095
 7317WAT      O22192   6.999   5.287   1.662
 7317WAT     H122193   7.098   5.286   1.650
 7317WAT     H222194   6.974   5.356   1.730
 7318WAT      O22195   0.536   8.932   9.887
 7318WAT     H122196   0.565   9.012   9.940
 7318WAT     H222197   0.556   8.947   9.790
 7319WAT      O22198   8.899   9.790   8.284
 7319WAT     H122199   8.834   9.750   8.220
 7319WAT     H222200   8.992   9.760   8.260
 7320WAT      O22201   8.378   3.196   7.184
 7320WAT     H122202   8.395   3.228   7.277
 7320WAT     H222203   8.283   3.166   7.175
 7321WAT      O22204   8.934   1.620   8.956
 7321WAT     H122205   8.866   1.590   9.022
 7321WAT     H222206   8.895   1.616   8.864
 7322WAT      O22207   7.159   5.479   1.918
 7322WAT     H122208   7.076   5.431   1.949
 7322WAT     H222209   7.237   5.447   1.971
 7323WAT      O22210   2.904   8.205   6.003
 7323WAT     H122211   2.974   8.256   5.954
 7323WAT     H222212   2.943   8.119   6.037
 7324WAT      O22213   6.901   0.215   7.002
 7324WAT     H122214   6.887   0.224   6.903
 7324WAT     H222215   6.905   0.305   7.044
 7325WAT      O22216   5.212   3.743   5.057
 7325WAT     H122217   5.194   3.738   4.958
 7325WAT     H222218   5.195   3.654   5.099
 7326WAT      O22219   1.025   4.537   7.495
 7326WAT     H122220   1.071   4.626   7.495
 7326WAT     H222221   0.952   4.537   7.426
 7327WAT      O22222   3.344   9.627   1.024
 7327WAT     H122223   3.413   9.577   1.077
 7327WAT     H222224   3.320   9.575   0.942
 7328WAT      O22225   2.052   2.923   1.556
 7328WAT     H122226   1.999   2.955   1.478
 7328WAT     H222227   2.001   2.851   1.604
 7329WAT      O22228   8.347   7.554   6.469
 7329WAT     H122229   8.389   7.519   6.553
 7329WAT     H222230   8.247   7.542   6.475
 7330WAT      O22231   0.111   2.883   9.737
 7330WAT     H122232   0.130   2.852   9.644
 7330WAT     H222233   0.126   2.808   9.801
 7331WAT      O22234   5.264   9.412   6.834
 7331WAT     H122235   5.223   9.323   6.854
 7331WAT     H222236   5.194   9.484   6.843
 7332WAT      O22237   3.016   2.985   6.086
 7332WAT     H122238   3.061   2.897   6.070
 7332WAT     H222239   3.038   3.047   6.011
 7333WAT      O22240   5.178   1.459   6.592
 7333WAT     H122241   5.129   1.444   6.678
 7333WAT     H222242   5.220   1.550   6.593
 7334WAT      O22243   5.070   7.596   4.476
 7334WAT     H122244   5.129   7.666   4.434
 7334WAT     H222245   5.069   7.608   4.575
 7335WAT      O22246   2.813   8.196   1.218
 7335WAT     H122247   2.735   8.134   1.203
 7335WAT     H222248   2.869   8.201   1.136
 7336WAT      O22249   3.142   0.312   1.053
 7336WAT     H122250   3.174   0.264   1.134
 7336WAT     H222251   3.217   0.367   1.015
 7337WAT      O22252   8.149   0.677   6.498
 7337WAT     H122253   8.223   0.642   6.555
 7337WAT     H222254   8.172   0.661   6.402
 7338WAT      O22255   9.861   4.935   8.149
 7338WAT     H122256   9.883   4.879   8.069
 7338WAT     H222257   9.765   4.919   8.176
 7339WAT      O22258   9.727   5.118   0.980
 7339WAT     H122259   9.744   5.050   0.909
 7339WAT     H222260   9.656   5.181   0.950
 7340WAT      O22261   9.265   2.453   5.495
 7340WAT     H122262   9.327   2.455   5.574
 7340WAT     H222263   9.264   2.543   5.452
 7341WAT      O22264   0.447   3.763   3.054
 7341WAT     H122265   0.490   3.757   2.964
 7341WAT     H222266   0.394   3.680   3.072
 7342WAT      O22267   1.525   0.968   8.893
 7342WAT     H122268   1.529   0.870   8.912
 7342WAT     H222269   1.446   1.008   8.941
 7343WAT      O22270   4.664   8.770   1.798
 7343WAT     H122271   4.678   8.777   1.699
 7343WAT     H222272   4.749   8.791   1.846
 7344WAT      O22273   1.302   2.931   7.993
 7344WAT     H122274   1.342   2.967   7.908
 7344WAT     H222275   1.370   2.879   8.043
 7345WAT      O22276   6.405   8.952   9.061
 7345WAT     H122277   6.405   8.908   9.151
 7345WAT     H222278   6.334   9.023   9.058
 7346WAT      O22279   0.149   9.377   8.691
 7346WAT     H122280   0.181   9.389   8.597
 7346WAT     H222281   0.078   9.306   8.692
 7347WAT      O22282   8.459   4.237   0.347
 7347WAT     H122283   8.387   4.271   0.407
 7347WAT     H222284   8.479   4.142   0.368
 7348WAT      O22285   2.249   5.580   1.203
 7348WAT     H122286   2.230   5.677   1.220
 7348WAT     H222287   2.164   5.532   1.182
 7349WAT      O22288   2.644   6.385   4.205
 7349WAT     H122289   2.621   6.289   4.222
 7349WAT     H222290   2.743   6.394   4.195
 7350WAT      O22291   3.397   1.629   8.185
 7350WAT     H122292   3.370   1.563   8.256
 7350WAT     H222293   3.481   1.675   8.212
 7351WAT      O22294   1.965   8.277   8.022
 7351WAT     H122295   1.998   8.291   8.115
 7351WAT     H222296   1.866   8.260   8.024
 7352WAT      O22297   6.787   2.400   2.122
 7352WAT     H122298   6.765   2.315   2.170
 7352WAT     H222299   6.880   2.429   2.145
 7353WAT      O22300   2.889   2.884   7.341
 7353WAT     H122301   2.970   2.914   7.290
 7353WAT     H222302   2.838   2.965   7.372
 7354WAT      O22303   1.359   0.325   6.273
 7354WAT     H122304   1.318   0.246   6.228
 7354WAT     H222305   1.287   0.391   6.297
 7355WAT      O22306   8.027   1.852   2.826
 7355WAT     H122307   8.045   1.915   2.902
 7355WAT     H222308   8.099   1.861   2.757
 7356WAT      O22309   7.635   9.081   9.147
 7356WAT     H122310   7.545   9.070   9.190
 7356WAT     H222311   7.696   9.130   9.209
 7357WAT      O22312   6.970   8.724   3.009
 7357WAT     H122313   6.940   8.669   2.931
 7357WAT     H222314   7.009   8.810   2.976
 7358WAT      O22315   8.780   6.567   6.745
 7358WAT     H122316   8.724   6.586   6.664
 7358WAT     H222317   8.876   6.585   6.724
 7359WAT      O22318   6.283   6.838   1.202
 7359WAT     H122319   6.370   6.815   1.157
 7359WAT     H222320   6.238   6.912   1.152
 7360WAT      O22321   0.686   6.541   6.480
 7360WAT     H122322   0.771   6.514   6.525
 7360WAT     H222323   0.610   6.535   6.546
 7361WAT      O22324   3.028   9.121   8.976
 7361WAT     H122325   3.018   9.074   9.063
 7361WAT     H222326   2.938   9.132   8.933
 7362WAT      O22327   7.029   4.307   9.793
 7362WAT     H122328   7.092   4.363   9.847
 7362WAT     H222329   7.047   4.320   9.696
 7363WAT      O22330   7.501   7.220   1.163
 7363WAT     H122331   7.480   7.134   1.209
 7363WAT     H222332   7.600   7.234   1.162
 7364WAT      O22333   3.219   4.891   7.114
 7364WAT     H122334   3.258   4.978   7.142
 7364WAT     H222335   3.279   4.848   7.046
 7365WAT      O22336   1.238   9.402   1.918
 7365WAT     H122337   1.306   9.393   1.992
 7365WAT     H222338   1.198   9.494   1.921
 7366WAT      O22339   5.930   4.087   5.185
 7366WAT     H122340   5.962   3.994   5.200
 7366WAT     H222341   5.891   4.123   5.270
 7367WAT      O22342   5.972   0.502   4.006
 7367WAT     H122343   5.949   0.596   4.033
 7367WAT     H222344   5.898   0.440   4.032
 7368WAT      O22345   3.291   6.528   3.036
 7368WAT     H122346   3.361   6.470   2.994
 7368WAT     H222347   3.205   6.519   2.986
 7369WAT      O22348   7.227   0.533   9.197
 7369WAT     H122349   7.229   0.579   9.108
 7369WAT     H222350   7.186   0.594   9.265
 7370WAT      O22351   3.254   4.907   4.065
 7370WAT     H122352   3.261   4.911   3.966
 7370WAT     H222353   3.345   4.893   4.105
 7371WAT      O22354   4.045   9.101   7.819
 7371WAT     H122355   3.964   9.117   7.762
 7371WAT     H222356   4.102   9.031   7.776
 7372WAT      O22357   2.905   3.000   6.349
 7372WAT     H122358   2.888   2.902   6.361
 7372WAT     H222359   2.958   3.014   6.266
 7373WAT      O22360   6.433   5.444   8.744
 7373WAT     H122361   6.384   5.380   8.803
 7373WAT     H222362   6.531   5.429   8.751
 7374WAT      O22363   1.531   0.739   4.796
 7374WAT     H122364   1.490   0.691   4.874
 7374WAT     H222365   1.500   0.834   4.795
 7375WAT      O22366   5.543   3.703   8.909
 7375WAT     H122367   5.529   3.781   8.970
 7375WAT     H222368   5.589   3.629   8.960
 7376WAT      O22369   9.734   0.259   6.017
 7376WAT     H122370   9.815   0.203   6.002
 7376WAT     H222371   9.667   0.239   5.946
 7377WAT      O22372   3.080   9.172   6.113
 7377WAT     H122373   3.125   9.252   6.152
 7377WAT     H222374   3.050   9.192   6.020
 7378WAT      O22375   7.906   2.164   5.265
 7378WAT     H122376   7.828   2.163   5.202
 7378WAT     H222377   7.941   2.257   5.273
 7379WAT      O22378   3.765   3.206   7.123
 7379WAT     H122379   3.723   3.248   7.203
 7379WAT     H222380   3.768   3.107   7.135
 7380WAT      O22381   3.031   9.050   3.930
 7380WAT     H122382   2.940   9.085   3.952
 7380WAT     H222383   3.074   9.015   4.012
 7381WAT      O22384   9.389   8.026   4.427
 7381WAT     H122385   9.451   7.967   4.479
 7381WAT     H222386   9.323   7.970   4.378
 7382WAT      O22387   8.955   8.052   0.811
 7382WAT     H122388   9.046   8.062   0.770
 7382WAT     H222389   8.941   7.957   0.838
 7383WAT      O22390   1.505   2.604   2.239
 7383WAT     H122391   1.496   2.702   2.254
 7383WAT     H222392   1.589   2.585   2.188
 7384WAT      O22393   2.770   6.830   5.260
 7384WAT     H122394   2.768   6.901   5.330
 7384WAT     H222395   2.846   6.847   5.197
 7385WAT      O22396   5.943   3.253   1.702
 7385WAT     H122397   5.986   3.315   1.767
 7385WAT     H222398   5.960   3.159   1.728
 7386WAT      O22399   0.432   9.733   8.597
 7386WAT     H122400   0.369   9.735   8.520
 7386WAT     H222401   0.416   9.651   8.652
 7387WAT      O22402   0.645   2.209   9.127
 7387WAT     H122403   0.648   2.112   9.148
 7387WAT     H222404   0.593   2.224   9.043
 7388WAT      O22405   9.390   7.887   9.612
 7388WAT     H122406   9.432   7.809   9.659
 7388WAT     H222407   9.318   7.853   9.551
 7389WAT      O22408   8.641   3.147   3.786
 7389WAT     H122409   8.709   3.219   3.788
 7389WAT     H222410   8.645   3.100   3.697
 7390WAT      O22411   4.658   2.195   8.755
 7390WAT     H122412   4.685   2.180   8.850
 7390WAT     H222413   4.659   2.108   8.706
 7391WAT      O22414   1.018   4.329   1.979
 7391WAT     H122415   1.074   4.249   2.000
 7391WAT     H222416   1.013   4.389   2.059
 7392WAT      O22417   9.190   7.886   7.319
 7392WAT     H122418   9.277   7.837   7.321
 7392WAT     H222419   9.189   7.955   7.391
 7393WAT      O22420   3.508   6.720   4.498
 7393WAT     H122421   3.426   6.771   4.524
 7393WAT     H222422   3.557   6.769   4.427
 7394WAT      O22423   2.580   5.776   6.238
 7394WAT     H122424   2.509   5.846   6.250
 7394WAT     H222425   2.658   5.797   6.296
 7395WAT      O22426   0.121   1.511   8.126
 7395WAT     H122427   0.119   1.517   8.026
 7395WAT     H222428   0.052   1.446   8.157
 7396WAT      O22429   8.231   1.122   0.132
 7396WAT     H122430   8.177   1.055   0.183
 7396WAT     H222431   8.327   1.113   0.157
 7397WAT      O22432   6.618   4.942   8.516
 7397WAT     H122433   6.596   5.039   8.506
 7397WAT     H222434   6.627   4.901   8.425
 7398WAT      O22435   1.248   7.847   3.112
 7398WAT     H122436   1.248   7.763   3.166
 7398WAT     H222437   1.160   7.856   3.064
 7399WAT      O22438   0.099   2.165   3.579
 7399WAT     H122439   0.158   2.235   3.539
 7399WAT     H222440   0.155   2.087   3.607
 7400WAT      O22441   6.597   3.457   9.814
 7400WAT     H122442   6.549   3.488   9.732
 7400WAT     H222443   6.587   3.526   9.886
 7401WAT      O22444   5.471   2.589   4.042
 7401WAT     H122445   5.488   2.640   4.127
 7401WAT     H222446   5.382   2.543   4.048
 7402WAT      O22447   7.626   2.429   2.907
 7402WAT     H122448   7.537   2.407   2.869
 7402WAT     H222449   7.669   2.501   2.852
 7403WAT      O22450   0.567   4.984   5.086
 7403WAT     H122451   0.526   4.949   5.002
 7403WAT     H222452   0.646   4.927   5.111
 7404WAT      O22453   4.196   7.114   7.046
 7404WAT     H122454   4.174   7.065   6.962
 7404WAT     H222455   4.115   7.117   7.105
 7405WAT      O22456   3.463   5.879   3.850
 7405WAT     H122457   3.441   5.808   3.783
 7405WAT     H222458   3.384   5.895   3.909
 7406WAT      O22459   2.202   2.934   7.222
 7406WAT     H122460   2.261   2.929   7.303
 7406WAT     H222461   2.247   2.988   7.151
 7407WAT      O22462   5.983   1.956   2.050
 7407WAT     H122463   5.914   1.904   1.999
 7407WAT     H222464   6.074   1.938   2.011
 7408WAT      O22465   5.488   8.059   1.124
 7408WAT     H122466   5.577   8.069   1.170
 7408WAT     H222467   5.502   8.013   1.036
 7409WAT      O22468   5.812   3.340   8.577
 7409WAT     H122469   5.806   3.439   8.571
 7409WAT     H222470   5.862   3.314   8.660
 7410WAT      O22471   7.606   0.645   3.203
 7410WAT     H122472   7.602   0.729   3.148
 7410WAT     H222473   7.607   0.566   3.142
 7411WAT      O22474   2.241   8.031   0.936
 7411WAT     H122475   2.193   7.953   0.977
 7411WAT     H222476   2.338   8.008   0.925
 7412WAT      O22477   4.604   7.354   0.344
 7412WAT     H122478   4.609   7.284   0.415
 7412WAT     H222479   4.584   7.311   0.256
 7413WAT      O22480   5.529   1.305   3.776
 7413WAT     H122481   5.561   1.214   3.750
 7413WAT     H222482   5.607   1.362   3.802
 7414WAT      O22483   5.967   7.813   9.146
 7414WAT     H122484   5.918   7.898   9.161
 7414WAT     H222485   6.038   7.827   9.078
 7415WAT      O22486   0.018   4.717   7.964
 7415WAT     H122487  -0.041   4.711   7.884
 7415WAT     H222488   0.104   4.761   7.940
 7416WAT      O22489   0.606   2.506   5.774
 7416WAT     H122490   0.704   2.492   5.786
 7416WAT     H222491   0.564   2.424   5.734
 7417WAT      O22492   4.734   1.929   9.217
 7417WAT     H122493   4.720   2.002   9.150
 7417WAT     H222494   4.646   1.895   9.249
 7418WAT      O22495   8.698   5.480   8.278
 7418WAT     H122496   8.797   5.491   8.273
 7418WAT     H222497   8.665   5.519   8.364
 7419WAT      O22498   2.351   5.751   9.447
 7419WAT     H122499   2.361   5.656   9.479
 7419WAT     H222500   2.346   5.812   9.526
 7420WAT      O22501   4.338   5.598   6.337
 7420WAT     H122502   4.294   5.603   6.247
 7420WAT     H222503   4.268   5.609   6.408
 7421WAT      O22504   8.355   2.442   9.084
 7421WAT     H122505   8.418   2.479   9.151
 7421WAT     H222506   8.404   2.380   9.022
 7422WAT      O22507   3.209   6.559   2.372
 7422WAT     H122508   3.258   6.593   2.291
 7422WAT     H222509   3.250   6.473   2.401
 7423WAT      O22510   0.992   9.042   2.045
 7423WAT     H122511   1.013   9.023   2.141
 7423WAT     H222512   1.075   9.073   1.999
 7424WAT      O22513   1.481   9.579   3.791
 7424WAT     H122514   1.485   9.506   3.723
 7424WAT     H222515   1.469   9.540   3.882
 7425WAT      O22516   3.108   0.679   0.946
 7425WAT     H122517   3.016   0.641   0.933
 7425WAT     H222518   3.108   0.775   0.918
 7426WAT      O22519   8.190   7.860   7.646
 7426WAT     H122520   8.240   7.829   7.566
 7426WAT     H222521   8.158   7.954   7.632
 7427WAT      O22522   7.377   1.379   6.830
 7427WAT     H122523   7.383   1.283   6.801
 7427WAT     H222524   7.347   1.435   6.753
 7428WAT      O22525   3.589   7.191   6.084
 7428WAT     H122526   3.592   7.289   6.101
 7428WAT     H222527   3.524   7.148   6.146
 7429WAT      O22528   3.613   6.345   3.054
 7429WAT     H122529   3.617   6.249   3.079
 7429WAT     H222530   3.571   6.354   2.963
 7430WAT      O22531   5.463   9.330   1.307
 7430WAT     H122532   5.476   9.367   1.215
 7430WAT     H222533   5.545   9.280   1.335
 7431WAT      O22534   4.316   1.714   7.153
 7431WAT     H122535   4.283   1.625   7.185
 7431WAT     H222536   4.415   1.709   7.137
 7432WAT      O22537   5.521   8.879   2.393
 7432WAT     H122538   5.439   8.861   2.447
 7432WAT     H222539   5.594   8.818   2.423
 7433WAT      O22540   3.738   2.369   6.434
 7433WAT     H122541   3.697   2.388   6.345
 7433WAT     H222542   3.812   2.434   6.451
 7434WAT      O22543   2.451   4.335   4.369
 7434WAT     H122544   2.488   4.387   4.292
 7434WAT     H222545   2.467   4.385   4.453
 7435WAT      O22546   0.976   3.094   4.567
 7435WAT     H122547   1.055   3.132   4.615
 7435WAT     H222548   1.002   3.068   4.474
 7436WAT      O22549   5.997   7.014   2.035
 7436WAT     H122550   6.096   7.019   2.048
 7436WAT     H222551   5.977   6.986   1.941
 7437WAT      O22552   3.501   7.432   9.398
 7437WAT     H122553   3.563   7.368   9.352
 7437WAT     H222554   3.422   7.382   9.434
 7438WAT      O22555   4.025   3.637   2.276
 7438WAT     H122556   4.024   3.608   2.372
 7438WAT     H222557   3.958   3.582   2.225
 7439WAT      O22558   1.093   6.039   1.463
 7439WAT     H122559   1.171   6.065   1.407
 7439WAT     H222560   1.012   6.089   1.433
 7440WAT      O22561   1.268   9.719   1.024
 7440WAT     H122562   1.228   9.668   1.100
 7440WAT     H222563   1.319   9.797   1.059
 7441WAT      O22564   8.964   2.117   2.152
 7441WAT     H122565   8.884   2.060   2.133
 7441WAT     H222566   9.017   2.129   2.068
 7442WAT      O22567   7.831   3.839   5.525
 7442WAT     H122568   7.822   3.881   5.615
 7442WAT     H222569   7.882   3.753   5.532
 7443WAT      O22570   2.393   7.423   4.798
 7443WAT     H122571   2.329   7.496   4.822
 7443WAT     H222572   2.374   7.392   4.704
 7444WAT      O22573   5.693   2.335   4.844
 7444WAT     H122574   5.674   2.241   4.817
 7444WAT     H222575   5.693   2.342   4.944
 7445WAT      O22576   2.934   1.719   9.419
 7445WAT     H122577   3.011   1.757   9.470
 7445WAT     H222578   2.865   1.685   9.484
 7446WAT      O22579   2.713   9.237   9.779
 7446WAT     H122580   2.721   9.274   9.687
 7446WAT     H222581   2.634   9.175   9.783
 7447WAT      O22582   4.520   3.274   3.860
 7447WAT     H122583   4.469   3.189   3.877
 7447WAT     H222584   4.542   3.318   3.947
 7448WAT      O22585   2.830   5.692   1.804
 7448WAT     H122586   2.787   5.663   1.889
 7448WAT     H222587   2.779   5.769   1.766
 7449WAT      O22588   3.386   9.827   9.770
 7449WAT     H122589   3.410   9.747   9.825
 7449WAT     H222590   3.343   9.896   9.828
 7450WAT      O22591   2.451   5.487   4.320
 7450WAT     H122592   2.365   5.501   4.370
 7450WAT     H222593   2.505   5.571   4.323
 7451WAT      O22594   0.277   2.384   0.670
 7451WAT     H122595   0.225   2.454   0.621
 7451WAT     H222596   0.314   2.318   0.604
 7452WAT      O22597   6.290   6.526   1.062
 7452WAT     H122598   6.302   6.590   1.138
 7452WAT     H222599   6.228   6.566   0.994
 7453WAT      O22600   1.035   0.668   7.109
 7453WAT     H122601   0.997   0.758   7.092
 7453WAT     H222602   1.129   0.664   7.076
 7454WAT      O22603   5.526   7.293   0.985
 7454WAT     H122604   5.625   7.279   0.980
 7454WAT     H222605   5.503   7.336   1.072
 7455WAT      O22606   2.046   1.790   8.000
 7455WAT     H122607   2.091   1.736   7.930
 7455WAT     H222608   1.948   1.767   8.004
 7456WAT      O22609   9.178   1.371   1.503
 7456WAT     H122610   9.195   1.460   1.544
 7456WAT     H222611   9.183   1.300   1.573
 7457WAT      O22612   3.401   4.627   7.728
 7457WAT     H122613   3.341   4.701   7.695
 7457WAT     H222614   3.373   4.601   7.820
 7458WAT      O22615   7.250   7.707   7.029
 7458WAT     H122616   7.159   7.747   7.016
 7458WAT     H222617   7.269   7.697   7.127
 7459WAT      O22618   7.245   9.540   2.547
 7459WAT     H122619   7.257   9.581   2.457
 7459WAT     H222620   7.273   9.606   2.617
 7460WAT      O22621   1.965   5.695   1.935
 7460WAT     H122622   2.037   5.718   1.870
 7460WAT     H222623   1.941   5.599   1.925
 7461WAT      O22624   1.172   0.881   6.032
 7461WAT     H122625   1.076   0.905   6.018
 7461WAT     H222626   1.187   0.857   6.128
 7462WAT      O22627   3.199   3.171   9.473
 7462WAT     H122628   3.173   3.105   9.543
 7462WAT     H222629   3.121   3.189   9.413
 7463WAT      O22630   4.527   3.601   7.203
 7463WAT     H122631   4.580   3.545   7.267
 7463WAT     H222632   4.584   3.627   7.126
 7464WAT      O22633   0.729   7.370   4.740
 7464WAT     H122634   0.819   7.409   4.760
 7464WAT     H222635   0.667   7.389   4.816
 7465WAT      O22636   7.717   1.490   9.354
 7465WAT     H122637   7.678   1.419   9.296
 7465WAT     H222638   7.817   1.486   9.349
 7466WAT      O22639   7.547   1.528   7.033
 7466WAT     H122640   7.503   1.462   6.972
 7466WAT     H222641   7.608   1.587   6.979
 7467WAT      O22642   9.010   1.144   2.950
 7467WAT     H122643   9.028   1.078   3.023
 7467WAT     H222644   9.089   1.205   2.940
 7468WAT      O22645   8.072   4.671   5.255
 7468WAT     H122646   8.054   4.582   5.295
 7468WAT     H222647   8.033   4.676   5.163
 7469WAT      O22648   2.919   0.385   0.696
 7469WAT     H122649   2.962   0.303   0.658
 7469WAT     H222650   2.959   0.466   0.653
 7470WAT      O22651   1.377   8.748   8.567
 7470WAT     H122652   1.283   8.770   8.593
 7470WAT     H222653   1.437   8.756   8.646
 7471WAT      O22654   3.346   9.727   6.927
 7471WAT     H122655   3.266   9.777   6.958
 7471WAT     H222656   3.402   9.701   7.005
 7472WAT      O22657   3.259   1.240   1.595
 7472WAT     H122658   3.254   1.141   1.586
 7472WAT     H222659   3.173   1.281   1.563
 7473WAT      O22660   3.541   9.575   8.278
 7473WAT     H122661   3.607   9.642   8.310
 7473WAT     H222662   3.572   9.537   8.191
 7474WAT      O22663   0.699   1.439   1.882
 7474WAT     H122664   0.732   1.394   1.799
 7474WAT     H222665   0.771   1.499   1.919
 7475WAT      O22666   7.946   1.436   4.841
 7475WAT     H122667   7.848   1.438   4.858
 7475WAT     H222668   7.994   1.473   4.920
 7476WAT      O22669   4.867   8.462   6.906
 7476WAT     H122670   4.789   8.492   6.851
 7476WAT     H222671   4.868   8.362   6.912
 7477WAT      O22672   2.126   9.056   9.636
 7477WAT     H122673   2.144   9.151   9.614
 7477WAT     H222674   2.045   9.050   9.695
 7478WAT      O22675   2.100   7.805   5.163
 7478WAT     H122676   2.170   7.876   5.172
 7478WAT     H222677   2.139   7.727   5.113
 7479WAT      O22678   2.759   7.673   3.465
 7479WAT     H122679   2.857   7.691   3.454
 7479WAT     H222680   2.727   7.714   3.550
 7480WAT      O22681   3.570   5.431   2.040
 7480WAT     H122682   3.578   5.341   2.083
 7480WAT     H222683   3.484   5.473   2.067
 7481WAT      O22684   4.391   6.334   8.360
 7481WAT     H122685   4.481   6.301   8.389
 7481WAT     H222686   4.332   6.256   8.338
 7482WAT      O22687   5.811   9.796   1.307
 7482WAT     H122688   5.755   9.862   1.357
 7482WAT     H222689   5.871   9.749   1.371
 7483WAT      O22690   8.335   7.161   9.195
 7483WAT     H122691   8.236   7.173   9.195
 7483WAT     H222692   8.366   7.137   9.287
 7484WAT      O22693   0.733   8.475   5.952
 7484WAT     H122694   0.795   8.547   5.921
 7484WAT     H222695   0.654   8.517   5.996
 7485WAT      O22696   2.896   6.971   3.850
 7485WAT     H122697   2.972   6.905   3.853
 7485WAT     H222698   2.823   6.935   3.792
 7486WAT      O22699   3.645   7.160   2.834
 7486WAT     H122700   3.637   7.088   2.765
 7486WAT     H222701   3.583   7.140   2.910
 7487WAT      O22702   2.633   0.520   5.202
 7487WAT     H122703   2.701   0.567   5.259
 7487WAT     H222704   2.544   0.524   5.246
 7488WAT      O22705   2.571   7.903   1.722
 7488WAT     H122706   2.564   7.864   1.630
 7488WAT     H222707   2.565   7.830   1.790
 7489WAT      O22708   4.172   8.999   5.483
 7489WAT     H122709   4.215   8.933   5.544
 7489WAT     H222710   4.092   9.038   5.527
 7490WAT      O22711   4.720   5.716   4.794
 7490WAT     H122712   4.671   5.797   4.825
 7490WAT     H222713   4.654   5.646   4.766
 7491WAT      O22714   2.195   6.253   1.822
 7491WAT     H122715   2.104   6.236   1.858
 7491WAT     H222716   2.214   6.351   1.823
 7492WAT      O22717   9.181   0.713   5.802
 7492WAT     H122718   9.201   0.810   5.818
 7492WAT     H222719   9.222   0.685   5.715
 7493WAT      O22720   0.390   9.186   8.136
 7493WAT     H122721   0.439   9.143   8.060
 7493WAT     H222722   0.367   9.117   8.204
 7494WAT      O22723   8.893   8.835   9.529
 7494WAT     H122724   8.864   8.745   9.559
 7494WAT     H222725   8.920   8.831   9.433
 7495WAT      O22726   2.379   5.933   7.560
 7495WAT     H122727   2.417   5.858   7.614
 7495WAT     H222728   2.448   5.964   7.495
 7496WAT      O22729   2.766   3.338   6.496
 7496WAT     H122730   2.807   3.376   6.413
 7496WAT     H222731   2.837   3.323   6.565
 7497WAT      O22732   2.063   3.459   4.957
 7497WAT     H122733   1.968   3.432   4.939
 7497WAT     H222734   2.117   3.446   4.874
 7498WAT      O22735   4.911   1.231   6.094
 7498WAT     H122736   4.886   1.318   6.051
 7498WAT     H222737   4.894   1.237   6.192
 7499WAT      O22738   3.830   1.455   3.462
 7499WAT     H122739   3.930   1.452   3.465
 7499WAT     H222740   3.793   1.383   3.522
 7500WAT      O22741   6.674   1.510   4.336
 7500WAT     H122742   6.664   1.425   4.285
 7500WAT     H222743   6.763   1.512   4.381
 7501WAT      O22744   4.920   2.455   8.908
 7501WAT     H122745   4.880   2.451   8.817
 7501WAT     H222746   4.852   2.429   8.977
 7502WAT      O22747   5.153   3.555   1.637
 7502WAT     H122748   5.223   3.626   1.630
 7502WAT     H222749   5.171   3.499   1.718
 7503WAT      O22750   4.327   0.179   8.836
 7503WAT     H122751   4.270   0.139   8.765
 7503WAT     H222752   4.419   0.141   8.830
 7504WAT      O22753   2.631   7.404   2.793
 7504WAT     H122754   2.608   7.411   2.890
 7504WAT     H222755   2.548   7.389   2.740
 7505WAT      O22756   8.300   6.464   0.629
 7505WAT     H122757   8.222   6.437   0.685
 7505WAT     H222758   8.326   6.558   0.652
 7506WAT      O22759   6.605   7.156   3.682
 7506WAT     H122760   6.604   7.112   3.592
 7506WAT     H222761   6.697   7.189   3.702
 7507WAT      O22762   5.736   6.839   0.564
 7507WAT     H122763   5.826   6.833   0.523
 7507WAT     H222764   5.727   6.770   0.636
 7508WAT      O22765   3.152   2.915   5.142
 7508WAT     H122766   3.222   2.966   5.092
 7508WAT     H222767   3.193   2.871   5.221
 7509WAT      O22768   4.678   9.571   6.510
 7509WAT     H122769   4.608   9.622   6.459
 7509WAT     H222770   4.746   9.535   6.446
 7510WAT      O22771   3.904   5.314   1.158
 7510WAT     H122772   3.834   5.273   1.099
 7510WAT     H222773   3.995   5.290   1.124
 7511WAT      O22774   1.660   0.226   3.639
 7511WAT     H122775   1.694   0.135   3.665
 7511WAT     H222776   1.569   0.218   3.599
 7512WAT      O22777   1.196   1.200   8.378
 7512WAT     H122778   1.268   1.165   8.437
 7512WAT     H222779   1.230   1.207   8.284
 7513WAT      O22780   6.922   0.932   4.433
 7513WAT     H122781   6.980   0.935   4.514
 7513WAT     H222782   6.935   1.016   4.380
 7514WAT      O22783   7.001   0.270   4.910
 7514WAT     H122784   6.928   0.215   4.870
 7514WAT     H222785   7.047   0.218   4.982
 7515WAT      O22786   2.021   9.267   0.743
 7515WAT     H122787   1.959   9.318   0.684
 7515WAT     H222788   2.004   9.169   0.733
 7516WAT      O22789   6.087   9.268   0.461
 7516WAT     H122790   6.071   9.224   0.373
 7516WAT     H222791   6.172   9.322   0.457
 7517WAT      O22792   0.957   1.871   1.379
 7517WAT     H122793   0.892   1.837   1.447
 7517WAT     H222794   1.028   1.926   1.424
 7518WAT      O22795   4.666   7.186   0.771
 7518WAT     H122796   4.652   7.249   0.848
 7518WAT     H222797   4.593   7.198   0.705
 7519WAT      O22798   1.534   0.410   1.235
 7519WAT     H122799   1.490   0.384   1.149
 7519WAT     H222800   1.631   0.385   1.231
 7520WAT      O22801   3.124   1.459   1.272
 7520WAT     H122802   3.209   1.408   1.263
 7520WAT     H222803   3.083   1.441   1.361
 7521WAT      O22804   9.699   4.142   1.763
 7521WAT     H122805   9.613   4.097   1.786
 7521WAT     H222806   9.739   4.099   1.682
 7522WAT      O22807   8.239   7.801   5.215
 7522WAT     H122808   8.320   7.743   5.218
 7522WAT     H222809   8.252   7.879   5.277
 7523WAT      O22810   1.806   2.396   2.014
 7523WAT     H122811   1.796   2.317   1.953
 7523WAT     H222812   1.789   2.367   2.108
 7524WAT      O22813   7.216   6.122   7.579
 7524WAT     H122814   7.276   6.099   7.656
 7524WAT     H222815   7.206   6.043   7.519
 7525WAT      O22816   1.042   5.418   9.628
 7525WAT     H122817   1.056   5.427   9.529
 7525WAT     H222818   1.053   5.507   9.672
 7526WAT      O22819   1.056   2.636   4.578
 7526WAT     H122820   1.082   2.629   4.674
 7526WAT     H222821   1.110   2.708   4.534
 7527WAT      O22822   4.556   7.505   6.248
 7527WAT     H122823   4.493   7.433   6.276
 7527WAT     H222824   4.553   7.580   6.315
 7528WAT      O22825   9.710   7.124   4.651
 7528WAT     H122826   9.743   7.218   4.658
 7528WAT     H222827   9.635   7.119   4.585
 7529WAT      O22828   5.526   3.049   2.268
 7529WAT     H122829   5.488   2.971   2.316
 7529WAT     H222830   5.455   3.092   2.212
 7530WAT      O22831   7.298   3.561   1.364
 7530WAT     H122832   7.200   3.576   1.359
 7530WAT     H222833   7.344   3.616   1.295
 7531WAT      O22834   0.253   3.239   8.296
 7531WAT     H122835   0.222   3.145   8.281
 7531WAT     H222836   0.184   3.303   8.262
 7532WAT      O22837   9.120   6.539   7.922
 7532WAT     H122838   9.172   6.565   8.003
 7532WAT     H222839   9.032   6.501   7.950
 7533WAT      O22840   3.545   5.492   9.077
 7533WAT     H122841   3.468   5.431   9.093
 7533WAT     H222842   3.522   5.557   9.005
 7534WAT      O22843   0.486   9.068   6.927
 7534WAT     H122844   0.510   9.161   6.901
 7534WAT     H222845   0.442   9.069   7.017
 7535WAT      O22846   7.628   7.538   6.957
 7535WAT     H122847   7.710   7.496   6.995
 7535WAT     H222848   7.636   7.638   6.961
 7536WAT      O22849   8.883   3.261   5.960
 7536WAT     H122850   8.865   3.237   6.055
 7536WAT     H222851   8.921   3.182   5.912
 7537WAT      O22852   5.411   8.736   8.839
 7537WAT     H122853   5.503   8.770   8.861
 7537WAT     H222854   5.351   8.813   8.818
 7538WAT      O22855   3.610   2.358   5.019
 7538WAT     H122856   3.703   2.322   5.031
 7538WAT     H222857   3.603   2.448   5.062
 7539WAT      O22858   0.199   6.827   1.948
 7539WAT     H122859   0.194   6.729   1.965
 7539WAT     H222860   0.147   6.876   2.018
 7540WAT      O22861   3.624   1.075   3.854
 7540WAT     H122862   3.639   1.001   3.789
 7540WAT     H222863   3.598   1.158   3.805
 7541WAT      O22864   5.398   4.134   2.192
 7541WAT     H122865   5.368   4.228   2.210
 7541WAT     H222866   5.498   4.128   2.203
 7542WAT      O22867   8.021   8.111   0.696
 7542WAT     H122868   8.070   8.027   0.719
 7542WAT     H222869   7.928   8.088   0.667
 7543WAT      O22870   2.219   2.719   6.298
 7543WAT     H122871   2.283   2.726   6.375
 7543WAT     H222872   2.239   2.791   6.232
 7544WAT      O22873   9.115   9.463   0.852
 7544WAT     H122874   9.147   9.369   0.866
 7544WAT     H222875   9.020   9.461   0.821
 7545WAT      O22876   5.802   7.238   1.402
 7545WAT     H122877   5.729   7.171   1.395
 7545WAT     H222878   5.807   7.271   1.497
 7546WAT      O22879   7.556   7.597   9.706
 7546WAT     H122880   7.580   7.668   9.771
 7546WAT     H222881   7.560   7.633   9.613
 7547WAT      O22882   0.419   4.781   7.651
 7547WAT     H122883   0.335   4.834   7.662
 7547WAT     H222884   0.492   4.822   7.705
 7548WAT      O22885   0.188   0.542   1.376
 7548WAT     H122886   0.127   0.585   1.443
 7548WAT     H222887   0.201   0.446   1.400
 7549WAT      O22888   5.723   4.257   5.940
 7549WAT     H122889   5.656   4.303   5.880
 7549WAT     H222890   5.744   4.167   5.903
 7550WAT      O22891   8.139   0.185   7.323
 7550WAT     H122892   8.079   0.260   7.349
 7550WAT     H222893   8.181   0.146   7.405
 7551WAT      O22894   0.027   5.236   7.839
 7551WAT     H122895   0.029   5.141   7.807
 7551WAT     H222896   0.009   5.297   7.762
 7552WAT      O22897   1.833   4.382   9.556
 7552WAT     H122898   1.779   4.438   9.493
 7552WAT     H222899   1.880   4.442   9.621
 7553WAT      O22900   8.421   2.056   3.016
 7553WAT     H122901   8.511   2.058   3.060
 7553WAT     H222902   8.433   2.049   2.917
 7554WAT      O22903   8.977   4.656   2.046
 7554WAT     H122904   8.984   4.568   1.998
 7554WAT     H222905   8.884   4.668   2.081
 7555WAT      O22906   7.731   6.641   6.365
 7555WAT     H122907   7.707   6.568   6.430
 7555WAT     H222908   7.703   6.613   6.273
 7556WAT      O22909   8.057   6.131   6.010
 7556WAT     H122910   8.060   6.036   5.977
 7556WAT     H222911   8.119   6.187   5.955
 7557WAT      O22912   4.621   5.177   6.115
 7557WAT     H122913   4.558   5.209   6.186
 7557WAT     H222914   4.585   5.201   6.025
 7558WAT      O22915   5.337   4.822   6.965
 7558WAT     H122916   5.381   4.907   6.995
 7558WAT     H222917   5.304   4.834   6.871
 7559WAT      O22918   2.810   9.519   5.873
 7559WAT     H122919   2.773   9.593   5.816
 7559WAT     H222920   2.740   9.449   5.887
 7560WAT      O22921   3.757   8.028   0.344
 7560WAT     H122922   3.707   8.056   0.262
 7560WAT     H222923   3.854   8.018   0.323
 7561WAT      O22924   7.795   9.266   4.287
 7561WAT     H122925   7.761   9.264   4.192
 7561WAT     H222926   7.734   9.210   4.344
 7562WAT      O22927   0.396   2.287   5.368
 7562WAT     H122928   0.436   2.209   5.417
 7562WAT     H222929   0.362   2.256   5.279
 7563WAT      O22930   4.603   8.230   0.618
 7563WAT     H122931   4.521   8.171   0.617
 7563WAT     H222932   4.657   8.212   0.536
 7564WAT      O22933   7.982   6.848   3.027
 7564WAT     H122934   7.960   6.787   2.952
 7564WAT     H222935   7.936   6.816   3.110
 7565WAT      O22936   5.083   8.632   2.574
 7565WAT     H122937   5.018   8.698   2.536
 7565WAT     H222938   5.056   8.540   2.546
 7566WAT      O22939   0.598   8.176   8.369
 7566WAT     H122940   0.539   8.168   8.289
 7566WAT     H222941   0.692   8.192   8.339
 7567WAT      O22942   8.520   4.402   5.704
 7567WAT     H122943   8.607   4.387   5.656
 7567WAT     H222944   8.446   4.404   5.637
 7568WAT      O22945   0.653   0.249   8.305
 7568WAT     H122946   0.714   0.183   8.262
 7568WAT     H222947   0.642   0.328   8.244
 7569WAT      O22948   5.019   0.590   0.170
 7569WAT     H122949   4.978   0.669   0.126
 7569WAT     H222950   4.967   0.568   0.253
 7570WAT      O22951   3.240   4.137   5.283
 7570WAT     H122952   3.292   4.202   5.228
 7570WAT     H222953   3.171   4.186   5.336
 7571WAT      O22954   0.793   7.548   9.679
 7571WAT     H122955   0.838   7.637   9.683
 7571WAT     H222956   0.755   7.526   9.769
 7572WAT      O22957   2.245   0.004   2.696
 7572WAT     H122958   2.236  -0.002   2.795
 7572WAT     H222959   2.340   0.022   2.672
 7573WAT      O22960   4.334   0.271   7.650
 7573WAT     H122961   4.391   0.204   7.697
 7573WAT     H222962   4.257   0.297   7.708
 7574WAT      O22963   6.888   0.394   8.199
 7574WAT     H122964   6.930   0.471   8.151
 7574WAT     H222965   6.803   0.424   8.243
 7575WAT      O22966   1.186   5.288   4.718
 7575WAT     H122967   1.093   5.269   4.687
 7575WAT     H222968   1.184   5.332   4.808
 7576WAT      O22969   5.783   4.418   2.113
 7576WAT     H122970   5.728   4.480   2.057
 7576WAT     H222971   5.879   4.425   2.086
 7577WAT      O22972   6.494   8.650   0.430
 7577WAT     H122973   6.579   8.671   0.479
 7577WAT     H222974   6.514   8.631   0.334
 7578WAT      O22975   8.709   7.117   6.514
 7578WAT     H122976   8.612   7.094   6.508
 7578WAT     H222977   8.730   7.193   6.453
 7579WAT      O22978   1.399   4.410   5.459
 7579WAT     H122979   1.359   4.445   5.375
 7579WAT     H222980   1.496   4.392   5.445
 7580WAT      O22981   4.458   9.692   6.230
 7580WAT     H122982   4.472   9.726   6.323
 7580WAT     H222983   4.362   9.702   6.205
 7581WAT      O22984   7.129   1.399   3.258
 7581WAT     H122985   7.070   1.480   3.251
 7581WAT     H222986   7.078   1.318   3.229
 7582WAT      O22987   0.834   1.452   8.565
 7582WAT     H122988   0.904   1.382   8.578
 7582WAT     H222989   0.796   1.477   8.654
 7583WAT      O22990   3.631   3.384   4.391
 7583WAT     H122991   3.543   3.383   4.343
 7583WAT     H222992   3.645   3.473   4.434
 7584WAT      O22993   0.786   9.481   8.336
 7584WAT     H122994   0.743   9.547   8.398
 7584WAT     H222995   0.754   9.389   8.358
 7585WAT      O22996   6.686   8.142   1.962
 7585WAT     H122997   6.605   8.089   1.989
 7585WAT     H222998   6.731   8.178   2.044
 7586WAT      O22999   2.153   3.570   4.039
 7586WAT     H123000   2.082   3.604   3.977
 7586WAT     H223001   2.131   3.596   4.133
 7587WAT      O23002   2.508   3.300   3.637
 7587WAT     H123003   2.491   3.245   3.555
 7587WAT     H223004   2.497   3.242   3.718
 7588WAT      O23005   0.167   4.913   9.799
 7588WAT     H123006   0.202   4.913   9.893
 7588WAT     H223007   0.239   4.882   9.737
 7589WAT      O23008   1.267   8.417   1.515
 7589WAT     H123009   1.253   8.403   1.417
 7589WAT     H223010   1.183   8.451   1.557
 7590WAT      O23011   0.477   4.115   2.034
 7590WAT     H123012   0.407   4.046   2.051
 7590WAT     H223013   0.453   4.199   2.083
 7591WAT      O23014   6.974   9.786   5.017
 7591WAT     H123015   7.045   9.854   5.035
 7591WAT     H223016   7.013   9.709   4.967
 7592WAT      O23017   6.181   4.514   0.042
 7592WAT     H123018   6.154   4.579  -0.029
 7592WAT     H223019   6.269   4.542   0.081
 7593WAT      O23020   7.131   3.192   9.464
 7593WAT     H123021   7.176   3.278   9.438
 7593WAT     H223022   7.037   3.192   9.432
 7594WAT      O23023   6.376   7.133   4.050
 7594WAT     H123024   6.334   7.048   4.018
 7594WAT     H223025   6.311   7.208   4.039
 7595WAT      O23026   0.004   1.881   8.581
 7595WAT     H123027  -0.088   1.844   8.569
 7595WAT     H223028   0.059   1.857   8.500
 7596WAT      O23029   6.195   1.612   9.178
 7596WAT     H123030   6.233   1.704   9.192
 7596WAT     H223031   6.262   1.556   9.130
 7597WAT      O23032   8.034   2.161   2.663
 7597WAT     H123033   7.935   2.162   2.655
 7597WAT     H223034   8.070   2.074   2.631
 7598WAT      O23035   3.283   1.361   3.887
 7598WAT     H123036   3.218   1.344   3.813
 7598WAT     H223037   3.268   1.452   3.925
 7599WAT      O23038   5.219   1.279   3.050
 7599WAT     H123039   5.151   1.207   3.035
 7599WAT     H223040   5.310   1.239   3.056
 7600WAT      O23041   5.143   1.416   2.746
 7600WAT     H123042   5.087   1.391   2.825
 7600WAT     H223043   5.224   1.357   2.742
 7601WAT      O23044   0.615   6.887   6.980
 7601WAT     H123045   0.673   6.967   6.974
 7601WAT     H223046   0.670   6.804   6.964
 7602WAT      O23047   9.188   1.746   3.631
 7602WAT     H123048   9.266   1.727   3.690
 7602WAT     H223049   9.163   1.843   3.639
 7603WAT      O23050   0.124   9.206   4.121
 7603WAT     H123051   0.220   9.202   4.093
 7603WAT     H223052   0.118   9.197   4.221
 7604WAT      O23053   4.979   7.586   2.995
 7604WAT     H123054   4.922   7.669   3.000
 7604WAT     H223055   5.004   7.557   3.087
 7605WAT      O23056   3.485   8.395   1.771
 7605WAT     H123057   3.519   8.458   1.702
 7605WAT     H223058   3.555   8.381   1.841
 7606WAT      O23059   2.465   8.803   6.135
 7606WAT     H123060   2.529   8.879   6.136
 7606WAT     H223061   2.472   8.754   6.048
 7607WAT      O23062   2.580   1.711   4.925
 7607WAT     H123063   2.627   1.774   4.863
 7607WAT     H223064   2.584   1.747   5.018
 7608WAT      O23065   8.295   3.607   1.105
 7608WAT     H123066   8.230   3.634   1.033
 7608WAT     H223067   8.246   3.555   1.175
 7609WAT      O23068   0.233   5.864   2.520
 7609WAT     H123069   0.147   5.843   2.475
 7609WAT     H223070   0.226   5.841   2.617
 7610WAT      O23071   1.640   1.010   5.264
 7610WAT     H123072   1.651   1.023   5.165
 7610WAT     H223073   1.668   1.093   5.311
 7611WAT      O23074   7.670   6.584   9.230
 7611WAT     H123075   7.662   6.599   9.329
 7611WAT     H223076   7.697   6.670   9.186
 7612WAT      O23077   1.238   1.847   4.861
 7612WAT     H123078   1.175   1.769   4.863
 7612WAT     H223079   1.331   1.816   4.884
 7613WAT      O23080   1.948   9.190   5.877
 7613WAT     H123081   1.996   9.132   5.943
 7613WAT     H223082   1.853   9.201   5.904
 7614WAT      O23083   2.393   6.841   1.760
 7614WAT     H123084   2.328   6.918   1.760
 7614WAT     H223085   2.359   6.769   1.699
 7615WAT      O23086   9.283   6.836   8.392
 7615WAT     H123087   9.267   6.796   8.482
 7615WAT     H223088   9.362   6.897   8.395
 7616WAT      O23089   0.771   6.202   0.139
 7616WAT     H123090   0.807   6.273   0.199
 7616WAT     H223091   0.810   6.213   0.047
 7617WAT      O23092   6.745   6.283   8.277
 7617WAT     H123093   6.764   6.235   8.191
 7617WAT     H223094   6.653   6.322   8.274
 7618WAT      O23095   4.962   2.990   9.787
 7618WAT     H123096   5.043   2.948   9.827
 7618WAT     H223097   4.975   3.090   9.784
 7619WAT      O23098   5.645   0.827   9.371
 7619WAT     H123099   5.600   0.909   9.406
 7619WAT     H223100   5.735   0.851   9.333
 7620WAT      O23101   9.051   1.152   0.180
 7620WAT     H123102   9.083   1.199   0.262
 7620WAT     H223103   9.055   1.215   0.102
 7621WAT      O23104   1.350   7.515   5.056
 7621WAT     H123105   1.418   7.587   5.045
 7621WAT     H223106   1.384   7.444   5.117
 7622WAT      O23107   9.702   4.149   0.190
 7622WAT     H123108   9.775   4.092   0.227
 7622WAT     H223109   9.655   4.196   0.264
 7623WAT      O23110   4.514   0.992   8.364
 7623WAT     H123111   4.493   0.954   8.454
 7623WAT     H223112   4.602   1.041   8.368
 7624WAT      O23113   1.480   7.587   3.026
 7624WAT     H123114   1.525   7.500   3.005
 7624WAT     H223115   1.405   7.602   2.961
 7625WAT      O23116   9.094   1.093   6.070
 7625WAT     H123117   9.158   1.082   6.146
 7625WAT     H223118   9.104   1.185   6.030
 7626WAT      O23119   2.249   2.248   6.010
 7626WAT     H123120   2.300   2.210   6.088
 7626WAT     H223121   2.268   2.346   6.002
 7627WAT      O23122   9.338   2.009   2.429
 7627WAT     H123123   9.338   1.910   2.441
 7627WAT     H223124   9.394   2.051   2.500
 7628WAT      O23125   0.079   6.517   8.806
 7628WAT     H123126   0.139   6.534   8.884
 7628WAT     H223127   0.115   6.442   8.752
 7629WAT      O23128   8.821   1.190   6.917
 7629WAT     H123129   8.879   1.201   6.998
 7629WAT     H223130   8.869   1.225   6.837
 7630WAT      O23131   1.924   3.543   2.806
 7630WAT     H123132   1.914   3.449   2.837
 7630WAT     H223133   2.006   3.584   2.847
 7631WAT      O23134   1.336   1.216   6.926
 7631WAT     H123135   1.399   1.257   6.860
 7631WAT     H223136   1.387   1.157   6.988
 7632WAT      O23137   5.431   0.416   9.110
 7632WAT     H123138   5.446   0.441   9.014
 7632WAT     H223139   5.520   0.400   9.154
 7633WAT      O23140   6.827   2.179   2.924
 7633WAT     H123141   6.884   2.190   2.842
 7633WAT     H223142   6.858   2.101   2.977
 7634WAT      O23143   2.252   3.216   5.408
 7634WAT     H123144   2.236   3.298   5.462
 7634WAT     H223145   2.255   3.240   5.311
 7635WAT      O23146   7.080   0.349   0.063
 7635WAT     H123147   7.017   0.424   0.044
 7635WAT     H223148   7.033   0.262   0.049
 7636WAT      O23149   7.860   1.654   6.045
 7636WAT     H123150   7.959   1.659   6.060
 7636WAT     H223151   7.826   1.564   6.073
 7637WAT      O23152   7.510   1.772   7.543
 7637WAT     H123153   7.533   1.802   7.636
 7637WAT     H223154   7.516   1.672   7.538
 7638WAT      O23155   8.818   6.905   5.608
 7638WAT     H123156   8.782   6.815   5.632
 7638WAT     H223157   8.816   6.964   5.688
 7639WAT      O23158   6.628   3.181   3.412
 7639WAT     H123159   6.531   3.192   3.390
 7639WAT     H223160   6.649   3.231   3.496
 7640WAT      O23161   5.515   7.943   7.164
 7640WAT     H123162   5.533   7.877   7.090
 7640WAT     H223163   5.590   7.942   7.229
 7641WAT      O23164   6.935   2.444   1.138
 7641WAT     H123165   6.928   2.345   1.149
 7641WAT     H223166   7.003   2.465   1.067
 7642WAT      O23167   3.036   0.072   6.460
 7642WAT     H123168   3.053  -0.023   6.433
 7642WAT     H223169   3.120   0.125   6.451
 7643WAT      O23170   7.471   0.909   3.547
 7643WAT     H123171   7.568   0.919   3.565
 7643WAT     H223172   7.423   0.887   3.632
 7644WAT      O23173   2.109   1.988   4.842
 7644WAT     H123174   2.114   1.990   4.743
 7644WAT     H223175   2.114   1.893   4.874
 7645WAT      O23176   5.985   2.480   2.921
 7645WAT     H123177   5.929   2.526   2.852
 7645WAT     H223178   6.069   2.445   2.879
 7646WAT      O23179   4.470   2.155   0.933
 7646WAT     H123180   4.514   2.145   0.844
 7646WAT     H223181   4.481   2.071   0.986
 7647WAT      O23182   5.650   6.399   5.789
 7647WAT     H123183   5.630   6.412   5.692
 7647WAT     H223184   5.564   6.389   5.839
 7648WAT      O23185   1.083   5.672   0.425
 7648WAT     H123186   1.124   5.593   0.380
 7648WAT     H223187   1.063   5.742   0.357
 7649WAT      O23188   6.632   4.027   1.583
 7649WAT     H123189   6.538   3.999   1.602
 7649WAT     H223190   6.634   4.085   1.502
 7650WAT      O23191   1.300   8.475   6.968
 7650WAT     H123192   1.347   8.504   6.884
 7650WAT     H223193   1.369   8.447   7.036
 7651WAT      O23194   4.637   7.757   9.886
 7651WAT     H123195   4.633   7.658   9.871
 7651WAT     H223196   4.728   7.790   9.862
 7652WAT      O23197   3.966   6.048   6.723
 7652WAT     H123198   3.972   6.047   6.823
 7652WAT     H223199   4.055   6.021   6.684
 7653WAT      O23200   5.576   9.394   5.090
 7653WAT     H123201   5.528   9.359   5.171
 7653WAT     H223202   5.556   9.335   5.011
 7654WAT      O23203   5.091   3.456   7.166
 7654WAT     H123204   5.100   3.388   7.093
 7654WAT     H223205   5.113   3.413   7.253
 7655WAT      O23206   9.204   5.559   6.768
 7655WAT     H123207   9.269   5.485   6.751
 7655WAT     H223208   9.182   5.561   6.866
 7656WAT      O23209   4.908   3.597   9.064
 7656WAT     H123210   4.865   3.509   9.085
 7656WAT     H223211   4.964   3.587   8.982
 7657WAT      O23212   8.093   9.142   6.946
 7657WAT     H123213   8.056   9.215   6.888
 7657WAT     H223214   8.078   9.054   6.901
 7658WAT      O23215   1.114   4.148   4.888
 7658WAT     H123216   1.028   4.111   4.921
 7658WAT     H223217   1.190   4.097   4.928
 7659WAT      O23218   2.912   5.060   6.473
 7659WAT     H123219   2.901   4.987   6.540
 7659WAT     H223220   2.919   5.020   6.381
 7660WAT      O23221   7.948   8.238   3.341
 7660WAT     H123222   7.964   8.172   3.267
 7660WAT     H223223   8.034   8.262   3.384
 7661WAT      O23224   0.544   0.090   5.177
 7661WAT     H123225   0.503   0.055   5.093
 7661WAT     H223226   0.524   0.188   5.187
 7662WAT      O23227   3.159   8.102   5.405
 7662WAT     H123228   3.140   8.025   5.343
 7662WAT     H223229   3.258   8.111   5.417
 7663WAT      O23230   9.176   4.587   0.395
 7663WAT     H123231   9.119   4.624   0.469
 7663WAT     H223232   9.171   4.648   0.316
 7664WAT      O23233   2.270   2.094   8.968
 7664WAT     H123234   2.342   2.146   8.922
 7664WAT     H223235   2.182   2.115   8.927
 7665WAT      O23236   4.791   5.957   3.396
 7665WAT     H123237   4.798   5.940   3.298
 7665WAT     H223238   4.752   6.048   3.412
 7666WAT      O23239   9.598   1.357   9.583
 7666WAT     H123240   9.526   1.392   9.522
 7666WAT     H223241   9.683   1.346   9.531
 7667WAT      O23242   1.202   0.373   9.853
 7667WAT     H123243   1.200   0.276   9.878
 7667WAT     H223244   1.284   0.392   9.799
 7668WAT      O23245   6.512   2.494   2.086
 7668WAT     H123246   6.454   2.489   2.166
 7668WAT     H223247   6.603   2.458   2.108
 7669WAT      O23248   7.422   0.844   8.743
 7669WAT     H123249   7.461   0.926   8.702
 7669WAT     H223250   7.448   0.764   8.689
 7670WAT      O23251   0.477   1.711   5.556
 7670WAT     H123252   0.564   1.748   5.588
 7670WAT     H223253   0.404   1.741   5.618
 7671WAT      O23254   8.291   0.361   6.952
 7671WAT     H123255   8.351   0.441   6.950
 7671WAT     H223256   8.318   0.300   7.026
 7672WAT      O23257   3.720   2.690   0.521
 7672WAT     H123258   3.691   2.774   0.567
 7672WAT     H223259   3.667   2.679   0.436
 7673WAT      O23260   7.225   6.224   5.911
 7673WAT     H123261   7.286   6.265   5.844
 7673WAT     H223262   7.278   6.171   5.977
 7674WAT      O23263   9.739   8.156   7.164
 7674WAT     H123264   9.738   8.248   7.126
 7674WAT     H223265   9.746   8.160   7.264
 7675WAT      O23266   4.488   5.397   5.941
 7675WAT     H123267   4.410   5.421   5.999
 7675WAT     H223268   4.463   5.321   5.881
 7676WAT      O23269   8.894   7.500   5.882
 7676WAT     H123270   8.928   7.467   5.794
 7676WAT     H223271   8.813   7.447   5.908
 7677WAT      O23272   7.917   3.014   5.931
 7677WAT     H123273   7.965   2.989   5.847
 7677WAT     H223274   7.880   2.932   5.974
 7678WAT      O23275   0.948   2.602   6.922
 7678WAT     H123276   0.936   2.526   6.986
 7678WAT     H223277   0.892   2.585   6.841
 7679WAT      O23278   6.174   9.685   7.113
 7679WAT     H123279   6.211   9.731   7.195
 7679WAT     H223280   6.089   9.728   7.086
 7680WAT      O23281   0.462   6.937   5.429
 7680WAT     H123282   0.533   6.868   5.417
 7680WAT     H223283   0.450   6.988   5.344
 7681WAT      O23284   7.806   5.900   5.562
 7681WAT     H123285   7.735   5.963   5.532
 7681WAT     H223286   7.765   5.824   5.612
 7682WAT      O23287   2.439   3.750   5.036
 7682WAT     H123288   2.533   3.777   5.017
 7682WAT     H223289   2.421   3.759   5.134
 7683WAT      O23290   2.472   5.534   6.175
 7683WAT     H123291   2.538   5.479   6.123
 7683WAT     H223292   2.516   5.620   6.202
 7684WAT      O23293   6.379   0.072   1.234
 7684WAT     H123294   6.308   0.096   1.299
 7684WAT     H223295   6.436   0.152   1.215
 7685WAT      O23296   6.137   0.591   3.668
 7685WAT     H123297   6.092   0.639   3.592
 7685WAT     H223298   6.068   0.538   3.718
 7686WAT      O23299   0.217   1.227   0.999
 7686WAT     H123300   0.211   1.325   1.017
 7686WAT     H223301   0.296   1.189   1.048
 7687WAT      O23302   0.384   6.861   7.156
 7687WAT     H123303   0.465   6.860   7.097
 7687WAT     H223304   0.411   6.844   7.251
 7688WAT      O23305   6.111   3.431   3.014
 7688WAT     H123306   6.075   3.512   3.059
 7688WAT     H223307   6.065   3.349   3.050
 7689WAT      O23308   7.278   6.728   1.882
 7689WAT     H123309   7.358   6.714   1.941
 7689WAT     H223310   7.251   6.824   1.883
 7690WAT      O23311   3.532   2.713   8.259
 7690WAT     H123312   3.482   2.638   8.303
 7690WAT     H223313   3.514   2.711   8.161
 7691WAT      O23314   3.300   1.847   0.148
 7691WAT     H123315   3.208   1.864   0.114
 7691WAT     H223316   3.310   1.751   0.173
 7692WAT      O23317   2.169   0.482   6.711
 7692WAT     H123318   2.187   0.571   6.669
 7692WAT     H223319   2.085   0.444   6.673
 7693WAT      O23320   2.689   4.716   2.122
 7693WAT     H123321   2.645   4.705   2.211
 7693WAT     H223322   2.774   4.664   2.119
 7694WAT      O23323   6.155   7.634   1.515
 7694WAT     H123324   6.069   7.596   1.550
 7694WAT     H223325   6.148   7.647   1.416
 7695WAT      O23326   7.514   4.684   8.140
 7695WAT     H123327   7.448   4.729   8.080
 7695WAT     H223328   7.572   4.623   8.086
 7696WAT      O23329   7.988   3.706   8.919
 7696WAT     H123330   7.894   3.675   8.903
 7696WAT     H223331   7.993   3.754   9.006
 7697WAT      O23332   7.117   2.744   3.947
 7697WAT     H123333   7.127   2.645   3.957
 7697WAT     H223334   7.205   2.784   3.918
 7698WAT      O23335   4.123   1.876   3.296
 7698WAT     H123336   4.103   1.943   3.224
 7698WAT     H223337   4.188   1.808   3.262
 7699WAT      O23338   7.982   1.475   9.252
 7699WAT     H123339   8.010   1.565   9.287
 7699WAT     H223340   8.063   1.418   9.238
 7700WAT      O23341   1.107   6.416   3.648
 7700WAT     H123342   1.070   6.483   3.713
 7700WAT     H223343   1.089   6.324   3.683
 7701WAT      O23344   7.989   4.159   0.034
 7701WAT     H123345   7.946   4.100  -0.033
 7701WAT     H223346   7.919   4.204   0.090
 7702WAT      O23347   6.976   7.330   1.878
 7702WAT     H123348   6.910   7.404   1.892
 7702WAT     H223349   6.997   7.322   1.781
 7703WAT      O23350   9.779   2.157   0.660
 7703WAT     H123351   9.698   2.194   0.614
 7703WAT     H223352   9.783   2.189   0.754
 7704WAT      O23353   8.339   7.216   0.438
 7704WAT     H123354   8.411   7.148   0.430
 7704WAT     H223355   8.380   7.305   0.460
 7705WAT      O23356   0.479   0.693   4.348
 7705WAT     H123357   0.460   0.643   4.433
 7705WAT     H223358   0.427   0.779   4.348
 7706WAT      O23359   3.215   3.319   0.283
 7706WAT     H123360   3.148   3.250   0.256
 7706WAT     H223361   3.274   3.283   0.355
 7707WAT      O23362   3.913   8.656   1.741
 7707WAT     H123363   3.906   8.638   1.643
 7707WAT     H223364   4.006   8.685   1.763
 7708WAT      O23365   6.008   8.139   8.767
 7708WAT     H123366   5.936   8.168   8.831
 7708WAT     H223367   6.033   8.215   8.708
 7709WAT      O23368   0.137   8.852   2.827
 7709WAT     H123369   0.075   8.839   2.750
 7709WAT     H223370   0.107   8.930   2.882
 7710WAT      O23371   0.886   5.048   6.385
 7710WAT     H123372   0.799   5.056   6.434
 7710WAT     H223373   0.949   5.120   6.417
 7711WAT      O23374   2.825   3.996   1.904
 7711WAT     H123375   2.752   3.929   1.919
 7711WAT     H223376   2.882   4.001   1.986
 7712WAT      O23377   8.507   0.348   6.047
 7712WAT     H123378   8.591   0.397   6.068
 7712WAT     H223379   8.440   0.410   6.007
 7713WAT      O23380   1.375   3.362   2.114
 7713WAT     H123381   1.405   3.440   2.168
 7713WAT     H223382   1.313   3.393   2.043
 7714WAT      O23383   4.003   5.952   2.331
 7714WAT     H123384   3.946   5.871   2.336
 7714WAT     H223385   3.947   6.032   2.311
 7715WAT      O23386   9.356   2.685   5.982
 7715WAT     H123387   9.442   2.674   6.031
 7715WAT     H223388   9.306   2.599   5.982
 7716WAT      O23389   3.357   7.164   5.869
 7716WAT     H123390   3.272   7.116   5.891
 7716WAT     H223391   3.434   7.117   5.913
 7717WAT      O23392   2.892   6.384   8.891
 7717WAT     H123393   2.827   6.327   8.941
 7717WAT     H223394   2.844   6.461   8.849
 7718WAT      O23395   8.413   7.509   4.298
 7718WAT     H123396   8.372   7.463   4.220
 7718WAT     H223397   8.487   7.453   4.335
 7719WAT      O23398   0.924   0.432   5.452
 7719WAT     H123399   0.965   0.358   5.396
 7719WAT     H223400   0.825   0.424   5.449
 7720WAT      O23401   4.129   8.503   9.102
 7720WAT     H123402   4.097   8.542   9.016
 7720WAT     H223403   4.208   8.555   9.135
 7721WAT      O23404   4.424   4.138   2.956
 7721WAT     H123405   4.337   4.092   2.974
 7721WAT     H223406   4.497   4.093   3.007
 7722WAT      O23407   3.460   8.860   0.579
 7722WAT     H123408   3.370   8.846   0.538
 7722WAT     H223409   3.472   8.958   0.599
 7723WAT      O23410   4.892   6.065   6.705
 7723WAT     H123411   4.910   5.995   6.636
 7723WAT     H223412   4.941   6.042   6.789
 7724WAT      O23413   2.091   6.706   3.285
 7724WAT     H123414   2.078   6.749   3.196
 7724WAT     H223415   2.179   6.733   3.324
 7725WAT      O23416   9.359   6.558   7.766
 7725WAT     H123417   9.281   6.550   7.828
 7725WAT     H223418   9.366   6.477   7.709
 7726WAT      O23419   2.420   4.451   2.676
 7726WAT     H123420   2.391   4.476   2.768
 7726WAT     H223421   2.376   4.511   2.610
 7727WAT      O23422   8.968   5.887   7.816
 7727WAT     H123423   8.893   5.908   7.753
 7727WAT     H223424   9.020   5.809   7.782
 7728WAT      O23425   2.168   8.625   7.151
 7728WAT     H123426   2.094   8.686   7.122
 7728WAT     H223427   2.255   8.658   7.114
 7729WAT      O23428   0.169   6.742   5.851
 7729WAT     H123429   0.258   6.734   5.806
 7729WAT     H223430   0.100   6.694   5.797
 7730WAT      O23431   0.260   0.060   3.489
 7730WAT     H123432   0.208  -0.011   3.442
 7730WAT     H223433   0.242   0.149   3.446
 7731WAT      O23434   6.422   1.382   4.023
 7731WAT     H123435   6.440   1.298   4.073
 7731WAT     H223436   6.348   1.366   3.957
 7732WAT      O23437   6.788   2.957   2.944
 7732WAT     H123438   6.752   2.956   2.850
 7732WAT     H223439   6.861   2.889   2.952
 7733WAT      O23440   9.836   2.739   7.600
 7733WAT     H123441   9.915   2.722   7.542
 7733WAT     H223442   9.841   2.831   7.638
 7734WAT      O23443   9.588   6.498   2.012
 7734WAT     H123444   9.633   6.576   2.056
 7734WAT     H223445   9.529   6.452   2.079
 7735WAT      O23446   9.074   9.442   5.766
 7735WAT     H123447   9.160   9.406   5.731
 7735WAT     H223448   9.036   9.508   5.701
 7736WAT      O23449   5.560   3.020   8.427
 7736WAT     H123450   5.500   2.955   8.473
 7736WAT     H223451   5.648   2.977   8.409
 7737WAT      O23452   8.630   4.015   0.936
 7737WAT     H123453   8.655   3.918   0.937
 7737WAT     H223454   8.612   4.044   0.842
 7738WAT      O23455   9.226   5.289   3.466
 7738WAT     H123456   9.285   5.344   3.406
 7738WAT     H223457   9.177   5.221   3.412
 7739WAT      O23458   0.419   3.468   3.163
 7739WAT     H123459   0.446   3.398   3.097
 7739WAT     H223460   0.456   3.444   3.253
 7740WAT      O23461   3.827   4.974   4.453
 7740WAT     H123462   3.877   5.050   4.412
 7740WAT     H223463   3.883   4.932   4.524
 7741WAT      O23464   4.671   0.783   0.375
 7741WAT     H123465   4.639   0.691   0.396
 7741WAT     H223466   4.618   0.821   0.299
 7742WAT      O23467   1.998   8.881   1.312
 7742WAT     H123468   1.944   8.883   1.397
 7742WAT     H223469   2.038   8.790   1.300
 7743WAT      O23470   6.791   9.429   7.991
 7743WAT     H123471   6.718   9.467   7.934
 7743WAT     H223472   6.873   9.415   7.935
 7744WAT      O23473   7.478   7.421   7.913
 7744WAT     H123474   7.481   7.333   7.866
 7744WAT     H223475   7.435   7.489   7.854
 7745WAT      O23476   0.764   6.781   3.683
 7745WAT     H123477   0.772   6.766   3.782
 7745WAT     H223478   0.682   6.734   3.649
 7746WAT      O23479   3.739   1.962   2.337
 7746WAT     H123480   3.749   2.061   2.347
 7746WAT     H223481   3.773   1.933   2.248
 7747WAT      O23482   7.969   2.281   6.202
 7747WAT     H123483   7.929   2.241   6.284
 7747WAT     H223484   8.038   2.348   6.227
 7748WAT      O23485   5.702   5.887   1.235
 7748WAT     H123486   5.749   5.804   1.263
 7748WAT     H223487   5.665   5.933   1.316
 7749WAT      O23488   0.693   8.792   9.175
 7749WAT     H123489   0.729   8.774   9.083
 7749WAT     H223490   0.593   8.789   9.172
 7750WAT      O23491   8.315   5.522   1.938
 7750WAT     H123492   8.390   5.501   1.876
 7750WAT     H223493   8.275   5.610   1.914
 7751WAT      O23494   2.175   6.966   6.897
 7751WAT     H123495   2.216   7.002   6.981
 7751WAT     H223496   2.207   7.017   6.818
 7752WAT      O23497   1.883   0.926   5.045
 7752WAT     H123498   1.802   0.978   5.017
 7752WAT     H223499   1.861   0.828   5.045
 7753WAT      O23500   2.212   8.225   5.218
 7753WAT     H123501   2.307   8.193   5.214
 7753WAT     H223502   2.175   8.208   5.310
 7754WAT      O23503   2.222   4.657   1.614
 7754WAT     H123504   2.186   4.730   1.671
 7754WAT     H223505   2.308   4.624   1.651
 7755WAT      O23506   4.101   5.964   2.846
 7755WAT     H123507   4.024   5.904   2.827
 7755WAT     H223508   4.144   5.994   2.761
 7756WAT      O23509   2.286   2.486   9.412
 7756WAT     H123510   2.338   2.434   9.480
 7756WAT     H223511   2.326   2.472   9.321
 7757WAT      O23512   5.009   8.037   7.983
 7757WAT     H123513   4.998   8.120   7.928
 7757WAT     H223514   5.056   8.060   8.068
 7758WAT      O23515   0.050   7.134   3.514
 7758WAT     H123516   0.147   7.126   3.538
 7758WAT     H223517   0.029   7.070   3.440
 7759WAT      O23518   0.926   2.454   3.432
 7759WAT     H123519   0.867   2.383   3.394
 7759WAT     H223520   1.016   2.415   3.453
 7760WAT      O23521   1.410   4.942   1.909
 7760WAT     H123522   1.368   5.023   1.949
 7760WAT     H223523   1.348   4.901   1.843
 7761WAT      O23524   2.455   8.112   2.092
 7761WAT     H123525   2.364   8.124   2.131
 7761WAT     H223526   2.512   8.190   2.119
 7762WAT      O23527   7.139   9.682   8.699
 7762WAT     H123528   7.135   9.583   8.691
 7762WAT     H223529   7.090   9.711   8.781
 7763WAT      O23530   1.959   9.182   6.905
 7763WAT     H123531   1.893   9.231   6.963
 7763WAT     H223532   1.909   9.133   6.833
 7764WAT      O23533   1.820   7.837   8.613
 7764WAT     H123534   1.885   7.769   8.579
 7764WAT     H223535   1.856   7.929   8.599
 7765WAT      O23536   8.086   4.853   4.976
 7765WAT     H123537   8.056   4.875   4.883
 7765WAT     H223538   8.076   4.755   4.991
 7766WAT      O23539   3.541   5.211   4.051
 7766WAT     H123540   3.543   5.116   4.085
 7766WAT     H223541   3.560   5.211   3.953
 7767WAT      O23542   5.773   3.431   0.889
 7767WAT     H123543   5.756   3.449   0.986
 7767WAT     H223544   5.688   3.402   0.845
 7768WAT      O23545   7.026   9.380   9.090
 7768WAT     H123546   7.036   9.316   9.166
 7768WAT     H223547   6.942   9.432   9.101
 7769WAT      O23548   3.450   8.172   2.785
 7769WAT     H123549   3.376   8.211   2.729
 7769WAT     H223550   3.495   8.245   2.836
 7770WAT      O23551   4.513   2.303   4.228
 7770WAT     H123552   4.515   2.241   4.149
 7770WAT     H223553   4.579   2.377   4.213
 7771WAT      O23554   7.827   3.722   5.966
 7771WAT     H123555   7.839   3.623   5.961
 7771WAT     H223556   7.797   3.748   6.058
 7772WAT      O23557   8.864   4.891   6.386
 7772WAT     H123558   8.870   4.793   6.408
 7772WAT     H223559   8.827   4.903   6.294
 7773WAT      O23560   2.175   0.964   7.067
 7773WAT     H123561   2.261   0.914   7.075
 7773WAT     H223562   2.098   0.901   7.080
 7774WAT      O23563   2.225   5.113   8.084
 7774WAT     H123564   2.199   5.118   8.180
 7774WAT     H223565   2.302   5.175   8.067
 7775WAT      O23566   3.978   0.363   3.109
 7775WAT     H123567   3.906   0.375   3.042
 7775WAT     H223568   3.987   0.267   3.133
 7776WAT      O23569   1.538   4.144   4.272
 7776WAT     H123570   1.444   4.111   4.286
 7776WAT     H223571   1.544   4.240   4.300
 7777WAT      O23572   9.428   0.708   0.215
 7777WAT     H123573   9.487   0.629   0.234
 7777WAT     H223574   9.485   0.785   0.185
 7778WAT      O23575   1.288   2.624   0.932
 7778WAT     H123576   1.274   2.527   0.953
 7778WAT     H223577   1.222   2.679   0.982
 7779WAT      O23578   9.606   1.787   7.585
 7779WAT     H123579   9.524   1.730   7.591
 7779WAT     H223580   9.687   1.729   7.594
 7780WAT      O23581   4.626   5.858   5.254
 7780WAT     H123582   4.652   5.830   5.347
 7780WAT     H223583   4.708   5.886   5.204
 7781WAT      O23584   9.741   2.336   6.925
 7781WAT     H123585   9.840   2.352   6.918
 7781WAT     H223586   9.724   2.260   6.987
 7782WAT      O23587   1.573   5.912   3.190
 7782WAT     H123588   1.584   5.813   3.198
 7782WAT     H223589   1.663   5.953   3.172
 7783WAT      O23590   0.161   2.945   0.150
 7783WAT     H123591   0.138   2.848   0.140
 7783WAT     H223592   0.260   2.957   0.149
 7784WAT      O23593   0.042   9.309   3.398
 7784WAT     H123594   0.092   9.376   3.453
 7784WAT     H223595  -0.050   9.343   3.380
 7785WAT      O23596   4.667   0.568   4.403
 7785WAT     H123597   4.653   0.530   4.311
 7785WAT     H223598   4.591   0.543   4.462
 7786WAT      O23599   9.019   9.235   2.756
 7786WAT     H123600   9.067   9.208   2.839
 7786WAT     H223601   8.936   9.180   2.746
 7787WAT      O23602   4.006   1.309   4.314
 7787WAT     H123603   4.021   1.383   4.379
 7787WAT     H223604   3.934   1.334   4.250
 7788WAT      O23605   3.664   8.727   5.565
 7788WAT     H123606   3.718   8.801   5.606
 7788WAT     H223607   3.723   8.648   5.548
 7789WAT      O23608   2.552   6.708   3.645
 7789WAT     H123609   2.604   6.650   3.707
 7789WAT     H223610   2.542   6.662   3.557
 7790WAT      O23611   7.634   2.016   2.406
 7790WAT     H123612   7.540   2.052   2.407
 7790WAT     H223613   7.686   2.062   2.335
 7791WAT      O23614   0.493   0.683   3.281
 7791WAT     H123615   0.449   0.682   3.192
 7791WAT     H223616   0.572   0.744   3.279
 7792WAT      O23617   4.588   3.175   9.042
 7792WAT     H123618   4.626   3.085   9.061
 7792WAT     H223619   4.489   3.173   9.055
 7793WAT      O23620   3.431   7.676   7.825
 7793WAT     H123621   3.381   7.717   7.901
 7793WAT     H223622   3.507   7.622   7.861
 7794WAT      O23623   9.457   4.991   7.419
 7794WAT     H123624   9.464   4.908   7.474
 7794WAT     H223625   9.533   4.994   7.354
 7795WAT      O23626   1.793   0.312   5.288
 7795WAT     H123627   1.729   0.273   5.353
 7795WAT     H223628   1.798   0.253   5.207
 7796WAT      O23629   0.097   4.269   2.574
 7796WAT     H123630   0.195   4.267   2.597
 7796WAT     H223631   0.084   4.236   2.481
 7797WAT      O23632   8.491   2.911   9.884
 7797WAT     H123633   8.477   2.875   9.976
 7797WAT     H223634   8.432   2.991   9.870
 7798WAT      O23635   8.050   2.459   9.788
 7798WAT     H123636   7.964   2.507   9.772
 7798WAT     H223637   8.075   2.408   9.706
 7799WAT      O23638   6.136   4.495   1.577
 7799WAT     H123639   6.138   4.558   1.655
 7799WAT     H223640   6.061   4.431   1.588
 7800WAT      O23641   4.142   7.329   3.537
 7800WAT     H123642   4.125   7.366   3.446
 7800WAT     H223643   4.067   7.268   3.562
 7801WAT      O23644   7.705   2.791   5.215
 7801WAT     H123645   7.746   2.863   5.159
 7801WAT     H223646   7.705   2.705   5.163
 7802WAT      O23647   0.419   2.110   9.802
 7802WAT     H123648   0.415   2.186   9.868
 7802WAT     H223649   0.348   2.122   9.733
 7803WAT      O23650   2.068   7.464   5.720
 7803WAT     H123651   2.062   7.489   5.624
 7803WAT     H223652   1.989   7.499   5.769
 7804WAT      O23653   1.179   0.427   6.869
 7804WAT     H123654   1.245   0.501   6.883
 7804WAT     H223655   1.152   0.424   6.773
 7805WAT      O23656   7.506   5.702   6.860
 7805WAT     H123657   7.580   5.706   6.793
 7805WAT     H223658   7.434   5.642   6.826
 7806WAT      O23659   7.999   7.711   2.879
 7806WAT     H123660   7.961   7.708   2.787
 7806WAT     H223661   8.020   7.618   2.909
 7807WAT      O23662   3.446   9.236   3.375
 7807WAT     H123663   3.510   9.282   3.314
 7807WAT     H223664   3.380   9.183   3.321
 7808WAT      O23665   8.634   0.924   6.145
 7808WAT     H123666   8.630   1.016   6.184
 7808WAT     H223667   8.727   0.904   6.113
 7809WAT      O23668   3.617   1.785   8.176
 7809WAT     H123669   3.692   1.839   8.215
 7809WAT     H223670   3.563   1.843   8.114
 7810WAT      O23671   6.274   3.039   1.676
 7810WAT     H123672   6.189   3.000   1.710
 7810WAT     H223673   6.352   2.993   1.719
 7811WAT      O23674   4.802   2.847   3.595
 7811WAT     H123675   4.721   2.874   3.542
 7811WAT     H223676   4.775   2.790   3.672
 7812WAT      O23677   2.268   7.586   9.865
 7812WAT     H123678   2.319   7.666   9.896
 7812WAT     H223679   2.178   7.614   9.833
 7813WAT      O23680   9.214   0.261   1.493
 7813WAT     H123681   9.278   0.251   1.417
 7813WAT     H223682   9.120   0.249   1.460
 7814WAT      O23683   6.102   6.290   8.503
 7814WAT     H123684   6.074   6.216   8.564
 7814WAT     H223685   6.080   6.265   8.409
 7815WAT      O23686   8.764   6.617   8.470
 7815WAT     H123687   8.669   6.628   8.441
 7815WAT     H223688   8.820   6.691   8.432
 7816WAT      O23689   7.695   9.829   7.786
 7816WAT     H123690   7.661   9.808   7.878
 7816WAT     H223691   7.731   9.746   7.744
 7817WAT      O23692   0.199   9.501   3.532
 7817WAT     H123693   0.245   9.541   3.611
 7817WAT     H223694   0.185   9.571   3.462
 7818WAT      O23695   1.263   0.864   3.708
 7818WAT     H123696   1.355   0.846   3.672
 7818WAT     H223697   1.259   0.839   3.805
 7819WAT      O23698   0.641   0.284   0.135
 7819WAT     H123699   0.685   0.197   0.110
 7819WAT     H223700   0.563   0.265   0.195
 7820WAT      O23701   0.361   1.393   2.215
 7820WAT     H123702   0.427   1.437   2.275
 7820WAT     H223703   0.286   1.457   2.196
 7821WAT      O23704   1.466   1.755   4.977
 7821WAT     H123705   1.515   1.728   4.894
 7821WAT     H223706   1.524   1.815   5.032
 7822WAT      O23707   8.155   4.910   5.348
 7822WAT     H123708   8.140   4.817   5.316
 7822WAT     H223709   8.211   4.908   5.431
 7823WAT      O23710   1.676   5.244   0.938
 7823WAT     H123711   1.699   5.245   1.035
 7823WAT     H223712   1.723   5.167   0.893
 7824WAT      O23713   1.679   1.545   1.691
 7824WAT     H123714   1.610   1.474   1.677
 7824WAT     H223715   1.651   1.629   1.644
 7825WAT      O23716   2.247   2.421   3.827
 7825WAT     H123717   2.290   2.437   3.738
 7825WAT     H223718   2.202   2.504   3.858
 7826WAT      O23719   5.566   3.356   3.983
 7826WAT     H123720   5.530   3.336   3.892
 7826WAT     H223721   5.492   3.389   4.041
 7827WAT      O23722   8.993   3.674   4.194
 7827WAT     H123723   8.926   3.639   4.259
 7827WAT     H223724   9.082   3.632   4.213
 7828WAT      O23725   2.700   7.089   2.013
 7828WAT     H123726   2.697   7.083   2.113
 7828WAT     H223727   2.634   7.157   1.982
 7829WAT      O23728   8.251   5.937   3.243
 7829WAT     H123729   8.199   5.905   3.164
 7829WAT     H223730   8.211   5.898   3.326
 7830WAT      O23731   0.033   8.351   2.799
 7830WAT     H123732   0.113   8.392   2.844
 7830WAT     H223733  -0.032   8.320   2.868
 7831WAT      O23734   7.887   2.907   8.201
 7831WAT     H123735   7.788   2.892   8.200
 7831WAT     H223736   7.915   2.940   8.291
 7832WAT      O23737   7.599   8.603   5.867
 7832WAT     H123738   7.573   8.623   5.773
 7832WAT     H223739   7.529   8.638   5.929
 7833WAT      O23740   1.156   2.027   1.488
 7833WAT     H123741   1.115   2.102   1.540
 7833WAT     H223742   1.237   2.061   1.439
 7834WAT      O23743   1.217   9.454   0.070
 7834WAT     H123744   1.217   9.512   0.151
 7834WAT     H223745   1.161   9.497  -0.002
 7835WAT      O23746   0.013   1.263   5.301
 7835WAT     H123747  -0.037   1.282   5.217
 7835WAT     H223748   0.108   1.294   5.292
 7836WAT      O23749   0.612   6.186   9.118
 7836WAT     H123750   0.668   6.105   9.137
 7836WAT     H223751   0.639   6.226   9.031
 7837WAT      O23752   9.034   0.060   6.076
 7837WAT     H123753   9.126   0.033   6.103
 7837WAT     H223754   9.008   0.012   5.992
 7838WAT      O23755   3.544   8.882   5.790
 7838WAT     H123756   3.548   8.786   5.817
 7838WAT     H223757   3.449   8.911   5.782
 7839WAT      O23758   8.202   3.037   4.557
 7839WAT     H123759   8.299   3.034   4.533
 7839WAT     H223760   8.152   2.970   4.502
 7840WAT      O23761   3.017   7.589   2.230
 7840WAT     H123762   3.062   7.532   2.161
 7840WAT     H223763   2.922   7.604   2.204
 7841WAT      O23764   4.383   5.649   0.908
 7841WAT     H123765   4.367   5.748   0.902
 7841WAT     H223766   4.312   5.607   0.965
 7842WAT      O23767   7.119   8.872   9.794
 7842WAT     H123768   7.199   8.870   9.733
 7842WAT     H223769   7.037   8.895   9.741
 7843WAT      O23770   0.717   5.997   4.977
 7843WAT     H123771   0.751   6.003   5.071
 7843WAT     H223772   0.711   5.902   4.949
 7844WAT      O23773   9.453   9.706   8.846
 7844WAT     H123774   9.446   9.674   8.751
 7844WAT     H223775   9.543   9.747   8.860
 7845WAT      O23776   9.648   0.891   0.987
 7845WAT     H123777   9.717   0.931   1.046
 7845WAT     H223778   9.576   0.958   0.969
 7846WAT      O23779   4.078   1.180   1.047
 7846WAT     H123780   4.118   1.242   1.113
 7846WAT     H223781   4.057   1.092   1.091
 7847WAT      O23782   2.127   2.439   8.945
 7847WAT     H123783   2.098   2.356   8.898
 7847WAT     H223784   2.096   2.519   8.895
 7848WAT      O23785   4.794   8.183   0.437
 7848WAT     H123786   4.764   8.120   0.365
 7848WAT     H223787   4.874   8.145   0.483
 7849WAT      O23788   3.806   2.132   0.069
 7849WAT     H123789   3.718   2.178   0.077
 7849WAT     H223790   3.804   2.071  -0.010
 7850WAT      O23791   7.846   1.342   3.859
 7850WAT     H123792   7.765   1.285   3.873
 7850WAT     H223793   7.877   1.334   3.764
 7851WAT      O23794   1.981   4.747   6.152
 7851WAT     H123795   2.068   4.787   6.180
 7851WAT     H223796   1.906   4.807   6.178
 7852WAT      O23797   4.780   5.158   5.139
 7852WAT     H123798   4.826   5.228   5.084
 7852WAT     H223799   4.826   5.070   5.126
 7853WAT      O23800   8.576   2.959   3.214
 7853WAT     H123801   8.508   2.909   3.268
 7853WAT     H223802   8.569   3.057   3.232
 7854WAT      O23803   0.769   4.000   2.468
 7854WAT     H123804   0.814   3.980   2.555
 7854WAT     H223805   0.837   3.997   2.394
 7855WAT      O23806   0.131   1.972   9.075
 7855WAT     H123807   0.167   2.001   8.986
 7855WAT     H223808   0.208   1.949   9.136
 7856WAT      O23809   5.955   0.778   3.557
 7856WAT     H123810   5.885   0.757   3.625
 7856WAT     H223811   5.932   0.731   3.471
 7857WAT      O23812   7.768   0.931   7.174
 7857WAT     H123813   7.797   0.848   7.222
 7857WAT     H223814   7.787   1.011   7.231
 7858WAT      O23815   5.967   1.080   2.576
 7858WAT     H123816   6.044   1.066   2.514
 7858WAT     H223817   5.891   1.122   2.526
 7859WAT      O23818   4.899   2.403   0.091
 7859WAT     H123819   4.910   2.502   0.091
 7859WAT     H223820   4.855   2.375   0.177
 7860WAT      O23821   5.620   3.074   1.720
 7860WAT     H123822   5.548   3.006   1.729
 7860WAT     H223823   5.657   3.071   1.627
 7861WAT      O23824   0.944   1.177   2.146
 7861WAT     H123825   0.852   1.142   2.163
 7861WAT     H223826   0.943   1.277   2.153
 7862WAT      O23827   8.178   7.285   2.098
 7862WAT     H123828   8.123   7.297   2.015
 7862WAT     H223829   8.119   7.273   2.177
 7863WAT      O23830   8.313   4.735   1.797
 7863WAT     H123831   8.356   4.792   1.868
 7863WAT     H223832   8.227   4.777   1.770
 7864WAT      O23833   8.868   7.355   3.899
 7864WAT     H123834   8.781   7.361   3.948
 7864WAT     H223835   8.852   7.367   3.801
 7865WAT      O23836   8.581   6.192   6.812
 7865WAT     H123837   8.561   6.166   6.717
 7865WAT     H223838   8.516   6.147   6.873
 7866WAT      O23839   0.378   9.232   7.626
 7866WAT     H123840   0.322   9.262   7.549
 7866WAT     H223841   0.445   9.303   7.648
 7867WAT      O23842   1.386   1.813   6.625
 7867WAT     H123843   1.343   1.901   6.647
 7867WAT     H223844   1.323   1.739   6.647
 7868WAT      O23845   5.077   0.220   0.197
 7868WAT     H123846   5.099   0.159   0.120
 7868WAT     H223847   5.152   0.217   0.263
 7869WAT      O23848   7.917   0.984   7.775
 7869WAT     H123849   7.821   0.958   7.772
 7869WAT     H223850   7.944   1.024   7.687
 7870WAT      O23851   7.698   2.185   7.276
 7870WAT     H123852   7.739   2.257   7.331
 7870WAT     H223853   7.715   2.096   7.319
 7871WAT      O23854   9.133   7.749   4.064
 7871WAT     H123855   9.109   7.664   4.017
 7871WAT     H223856   9.162   7.818   3.996
 7872WAT      O23857   6.608   3.756   8.772
 7872WAT     H123858   6.636   3.846   8.805
 7872WAT     H223859   6.604   3.757   8.672
 7873WAT      O23860   8.287   0.798   1.616
 7873WAT     H123861   8.198   0.793   1.572
 7873WAT     H223862   8.278   0.785   1.714
 7874WAT      O23863   0.133   0.789   0.487
 7874WAT     H123864   0.108   0.711   0.545
 7874WAT     H223865   0.226   0.776   0.452
 7875WAT      O23866   9.205   7.238   5.545
 7875WAT     H123867   9.188   7.164   5.610
 7875WAT     H223868   9.231   7.200   5.457
 7876WAT      O23869   0.581   1.770   6.316
 7876WAT     H123870   0.499   1.714   6.303
 7876WAT     H223871   0.646   1.720   6.373
 7877WAT      O23872   0.344   6.214   7.341
 7877WAT     H123873   0.316   6.262   7.424
 7877WAT     H223874   0.283   6.136   7.327
 7878WAT      O23875   8.017   8.764   7.354
 7878WAT     H123876   8.022   8.862   7.371
 7878WAT     H223877   8.060   8.743   7.266
 7879WAT      O23878   3.156   8.974   6.525
 7879WAT     H123879   3.079   8.961   6.587
 7879WAT     H223880   3.126   8.964   6.431
 7880WAT      O23881   5.528   6.132   4.625
 7880WAT     H123882   5.477   6.215   4.605
 7880WAT     H223883   5.535   6.076   4.543
 7881WAT      O23884   0.559   2.547   1.232
 7881WAT     H123885   0.643   2.597   1.209
 7881WAT     H223886   0.480   2.598   1.200
 7882WAT      O23887   4.565   2.432   1.717
 7882WAT     H123888   4.644   2.484   1.749
 7882WAT     H223889   4.550   2.451   1.620
 7883WAT      O23890   4.008   5.472   5.373
 7883WAT     H123891   3.994   5.542   5.303
 7883WAT     H223892   3.986   5.382   5.334
 7884WAT      O23893   9.660   9.667   5.519
 7884WAT     H123894   9.742   9.622   5.553
 7884WAT     H223895   9.588   9.599   5.505
 7885WAT      O23896   1.266   5.721   2.864
 7885WAT     H123897   1.285   5.760   2.954
 7885WAT     H223898   1.200   5.647   2.873
 7886WAT      O23899   1.432   9.595   9.226
 7886WAT     H123900   1.499   9.641   9.284
 7886WAT     H223901   1.453   9.497   9.222
 7887WAT      O23902   6.162   1.837   7.828
 7887WAT     H123903   6.093   1.824   7.898
 7887WAT     H223904   6.214   1.921   7.846
 7888WAT      O23905   7.669   3.038   4.386
 7888WAT     H123906   7.730   3.116   4.400
 7888WAT     H223907   7.652   2.992   4.473
 7889WAT      O23908   9.021   3.421   7.000
 7889WAT     H123909   9.065   3.394   6.915
 7889WAT     H223910   8.949   3.356   7.022
 7890WAT      O23911   9.099   7.312   6.948
 7890WAT     H123912   9.149   7.334   6.865
 7890WAT     H223913   9.012   7.361   6.949
 7891WAT      O23914   7.587   6.068   5.087
 7891WAT     H123915   7.640   5.992   5.124
 7891WAT     H223916   7.490   6.045   5.089
 7892WAT      O23917   0.912   3.373   5.056
 7892WAT     H123918   0.929   3.460   5.011
 7892WAT     H223919   0.998   3.325   5.070
 7893WAT      O23920   4.296   2.885   7.948
 7893WAT     H123921   4.329   2.919   8.036
 7893WAT     H223922   4.196   2.893   7.945
 7894WAT      O23923   1.285   2.579   3.134
 7894WAT     H123924   1.254   2.637   3.209
 7894WAT     H223925   1.219   2.582   3.059
 7895WAT      O23926   8.839   9.392   8.166
 7895WAT     H123927   8.812   9.310   8.115
 7895WAT     H223928   8.885   9.364   8.251
 7896WAT      O23929   0.864   3.625   9.844
 7896WAT     H123930   0.781   3.682   9.845
 7896WAT     H223931   0.876   3.586   9.753
 7897WAT      O23932   4.894   8.714   5.318
 7897WAT     H123933   4.897   8.634   5.377
 7897WAT     H223934   4.799   8.731   5.290
 7898WAT      O23935   3.608   1.672   6.781
 7898WAT     H123936   3.665   1.591   6.764
 7898WAT     H223937   3.660   1.738   6.835
 7899WAT      O23938   1.786   6.819   3.282
 7899WAT     H123939   1.765   6.907   3.325
 7899WAT     H223940   1.883   6.799   3.294
 7900WAT      O23941   1.760   3.703   5.211
 7900WAT     H123942   1.748   3.713   5.112
 7900WAT     H223943   1.758   3.793   5.255
 7901WAT      O23944   3.070   7.683   9.272
 7901WAT     H123945   3.011   7.656   9.196
 7901WAT     H223946   3.164   7.656   9.252
 7902WAT      O23947   8.584   7.776   7.684
 7902WAT     H123948   8.677   7.753   7.710
 7902WAT     H223949   8.585   7.838   7.606
 7903WAT      O23950   9.539   2.993   8.603
 7903WAT     H123951   9.487   2.916   8.639
 7903WAT     H223952   9.486   3.077   8.618
 7904WAT      O23953   3.307   3.363   4.034
 7904WAT     H123954   3.389   3.333   3.985
 7904WAT     H223955   3.320   3.457   4.066
 7905WAT      O23956   8.161   0.128   1.077
 7905WAT     H123957   8.220   0.094   1.004
 7905WAT     H223958   8.138   0.053   1.139
 7906WAT      O23959   0.990   4.338   6.378
 7906WAT     H123960   1.078   4.307   6.415
 7906WAT     H223961   0.916   4.301   6.434
 7907WAT      O23962   7.805   7.119   5.252
 7907WAT     H123963   7.900   7.108   5.222
 7907WAT     H223964   7.745   7.076   5.185
 7908WAT      O23965   8.884   3.606   7.382
 7908WAT     H123966   8.890   3.705   7.396
 7908WAT     H223967   8.789   3.580   7.363
 7909WAT      O23968   6.327   6.248   6.893
 7909WAT     H123969   6.306   6.151   6.888
 7909WAT     H223970   6.407   6.261   6.952
 7910WAT      O23971   3.165   7.718   2.759
 7910WAT     H123972   3.098   7.727   2.834
 7910WAT     H223973   3.171   7.622   2.731
 7911WAT      O23974   0.977   0.042   0.948
 7911WAT     H123975   0.955  -0.053   0.968
 7911WAT     H223976   1.053   0.072   1.005
 7912WAT      O23977   0.311   9.059   7.160
 7912WAT     H123978   0.241   9.003   7.115
 7912WAT     H223979   0.273   9.148   7.184
 7913WAT      O23980   3.125   3.874   6.353
 7913WAT     H123981   3.061   3.921   6.292
 7913WAT     H223982   3.075   3.811   6.411
 7914WAT      O23983   4.386   0.293   1.048
 7914WAT     H123984   4.471   0.242   1.037
 7914WAT     H223985   4.403   0.376   1.102
 7915WAT      O23986   2.773   4.570   9.029
 7915WAT     H123987   2.818   4.504   8.970
 7915WAT     H223988   2.675   4.551   9.033
 7916WAT      O23989   1.891   5.968   5.787
 7916WAT     H123990   1.935   5.886   5.750
 7916WAT     H223991   1.941   6.049   5.758
 7917WAT      O23992   9.704   3.682   9.568
 7917WAT     H123993   9.723   3.758   9.630
 7917WAT     H223994   9.718   3.712   9.474
 7918WAT      O23995   6.059   4.600   8.927
 7918WAT     H123996   6.130   4.667   8.905
 7918WAT     H223997   6.012   4.627   9.011
 7919WAT      O23998   1.435   1.595   4.037
 7919WAT     H123999   1.394   1.681   4.005
 7919WAT     H224000   1.380   1.558   4.112
 7920WAT      O24001   0.486   9.501   9.597
 7920WAT     H124002   0.480   9.518   9.499
 7920WAT     H224003   0.509   9.405   9.613
 7921WAT      O24004   2.993   0.818   3.865
 7921WAT     H124005   2.990   0.756   3.787
 7921WAT     H224006   2.948   0.775   3.943
 7922WAT      O24007   4.020   8.199   8.254
 7922WAT     H124008   4.080   8.175   8.330
 7922WAT     H224009   4.038   8.137   8.177
 7923WAT      O24010   4.364   4.115   3.562
 7923WAT     H124011   4.383   4.144   3.655
 7923WAT     H224012   4.266   4.103   3.550
 7924WAT      O24013   2.003   4.626   9.221
 7924WAT     H124014   2.010   4.541   9.169
 7924WAT     H224015   1.999   4.703   9.157
 7925WAT      O24016   7.575   6.133   5.369
 7925WAT     H124017   7.532   6.173   5.289
 7925WAT     H224018   7.621   6.048   5.343
 7926WAT      O24019   3.742   3.426   2.593
 7926WAT     H124020   3.699   3.515   2.607
 7926WAT     H224021   3.690   3.374   2.525
 7927WAT      O24022   4.412   3.620   5.356
 7927WAT     H124023   4.413   3.658   5.263
 7927WAT     H224024   4.454   3.685   5.419
 7928WAT      O24025   2.704   5.917   2.672
 7928WAT     H124026   2.646   5.943   2.595
 7928WAT     H224027   2.793   5.889   2.638
 7929WAT      O24028   8.703   7.780   3.051
 7929WAT     H124029   8.758   7.755   2.971
 7929WAT     H224030   8.687   7.698   3.107
 7930WAT      O24031   6.079   7.761   8.447
 7930WAT     H124032   6.038   7.773   8.357
 7930WAT     H224033   6.170   7.722   8.438
 7931WAT      O24034   1.278   6.330   6.572
 7931WAT     H124035   1.330   6.249   6.544
 7931WAT     H224036   1.213   6.305   6.643
 7932WAT      O24037   0.345   9.599   5.538
 7932WAT     H124038   0.351   9.677   5.476
 7932WAT     H224039   0.299   9.626   5.622
 7933WAT      O24040   7.057   0.919   2.876
 7933WAT     H124041   7.075   0.926   2.778
 7933WAT     H224042   7.138   0.946   2.927
 7934WAT      O24043   4.000   5.215   4.641
 7934WAT     H124044   3.905   5.239   4.618
 7934WAT     H224045   4.037   5.283   4.704
 7935WAT      O24046   9.319   1.625   5.757
 7935WAT     H124047   9.276   1.625   5.666
 7935WAT     H224048   9.308   1.714   5.799
 7936WAT      O24049   4.000   5.688   4.898
 7936WAT     H124050   3.935   5.678   4.974
 7936WAT     H224051   3.950   5.694   4.812
 7937WAT      O24052   5.938   1.348   6.291
 7937WAT     H124053   6.005   1.278   6.265
 7937WAT     H224054   5.925   1.346   6.390
 7938WAT      O24055   2.132   3.901   9.824
 7938WAT     H124056   2.050   3.922   9.772
 7938WAT     H224057   2.206   3.877   9.761
 7939WAT      O24058   2.073   1.299   2.195
 7939WAT     H124059   2.041   1.231   2.261
 7939WAT     H224060   2.139   1.257   2.133
 7940WAT      O24061   6.584   7.946   2.940
 7940WAT     H124062   6.537   8.028   2.907
 7940WAT     H224063   6.637   7.968   3.022
 7941WAT      O24064   8.465   4.018   5.215
 7941WAT     H124065   8.491   3.985   5.306
 7941WAT     H224066   8.546   4.054   5.169
 7942WAT      O24067   9.037   1.374   5.287
 7942WAT     H124068   9.049   1.430   5.369
 7942WAT     H224069   9.126   1.357   5.244
 7943WAT      O24070   7.541   8.510   8.276
 7943WAT     H124071   7.482   8.574   8.324
 7943WAT     H224072   7.569   8.549   8.188
 7944WAT      O24073   8.873   7.331   9.550
 7944WAT     H124074   8.810   7.288   9.485
 7944WAT     H224075   8.847   7.306   9.643
 7945WAT      O24076   9.250   9.603   0.336
 7945WAT     H124077   9.242   9.595   0.435
 7945WAT     H224078   9.339   9.569   0.306
 7946WAT      O24079   9.724   7.059   5.849
 7946WAT     H124080   9.757   7.047   5.943
 7946WAT     H224081   9.639   7.112   5.851
 7947WAT      O24082   9.392   1.097   9.417
 7947WAT     H124083   9.416   1.174   9.356
 7947WAT     H224084   9.360   1.020   9.362
 7948WAT      O24085   7.700   5.847   2.456
 7948WAT     H124086   7.664   5.892   2.538
 7948WAT     H224087   7.720   5.751   2.477
 7949WAT      O24088   9.486   4.700   1.366
 7949WAT     H124089   9.528   4.742   1.448
 7949WAT     H224090   9.438   4.771   1.314
 7950WAT      O24091   0.116   7.858   1.579
 7950WAT     H124092   0.096   7.892   1.671
 7950WAT     H224093   0.038   7.874   1.519
 7951WAT      O24094   8.212   4.555   3.003
 7951WAT     H124095   8.114   4.550   2.984
 7951WAT     H224096   8.257   4.473   2.965
 7952WAT      O24097   2.778   3.900   3.013
 7952WAT     H124098   2.720   3.979   3.033
 7952WAT     H224099   2.860   3.904   3.070
 7953WAT      O24100   1.090   3.863   5.104
 7953WAT     H124101   1.135   3.800   5.040
 7953WAT     H224102   1.090   3.823   5.195
 7954WAT      O24103   3.521   8.436   5.211
 7954WAT     H124104   3.604   8.432   5.266
 7954WAT     H224105   3.444   8.465   5.268
 7955WAT      O24106   5.662   7.852   5.632
 7955WAT     H124107   5.598   7.788   5.673
 7955WAT     H224108   5.687   7.821   5.541
 7956WAT      O24109   1.309   2.211   9.248
 7956WAT     H124110   1.257   2.182   9.167
 7956WAT     H224111   1.379   2.277   9.220
 7957WAT      O24112   0.152   7.479   5.737
 7957WAT     H124113   0.248   7.454   5.728
 7957WAT     H224114   0.139   7.531   5.821
 7958WAT      O24115   1.471   9.574   6.688
 7958WAT     H124116   1.534   9.616   6.753
 7958WAT     H224117   1.507   9.586   6.595
 7959WAT      O24118   5.133   2.889   8.928
 7959WAT     H124119   5.165   2.921   8.839
 7959WAT     H224120   5.208   2.895   8.994
 7960WAT      O24121   1.412   4.180   0.837
 7960WAT     H124122   1.366   4.174   0.926
 7960WAT     H224123   1.507   4.210   0.851
 7961WAT      O24124   0.344   3.832   4.396
 7961WAT     H124125   0.330   3.885   4.312
 7961WAT     H224126   0.302   3.742   4.385
 7962WAT      O24127   0.509   5.951   8.661
 7962WAT     H124128   0.431   6.012   8.674
 7962WAT     H224129   0.569   5.986   8.589
 7963WAT      O24130   4.578   9.140   8.763
 7963WAT     H124131   4.530   9.123   8.677
 7963WAT     H224132   4.570   9.060   8.823
 7964WAT      O24133   2.660   4.362   8.586
 7964WAT     H124134   2.561   4.350   8.593
 7964WAT     H224135   2.705   4.272   8.591
 7965WAT      O24136   0.284   3.922   4.686
 7965WAT     H124137   0.184   3.930   4.688
 7965WAT     H224138   0.311   3.865   4.608
 7966WAT      O24139   9.505   2.087   0.865
 7966WAT     H124140   9.576   2.020   0.841
 7966WAT     H224141   9.468   2.066   0.955
 7967WAT      O24142   9.485   4.873   8.537
 7967WAT     H124143   9.424   4.881   8.458
 7967WAT     H224144   9.487   4.959   8.587
 7968WAT      O24145   3.864   3.290   5.438
 7968WAT     H124146   3.896   3.383   5.423
 7968WAT     H224147   3.771   3.280   5.402
 7969WAT      O24148   4.405   5.802   9.304
 7969WAT     H124149   4.465   5.730   9.339
 7969WAT     H224150   4.458   5.862   9.243
 7970WAT      O24151   1.271   6.203   4.344
 7970WAT     H124152   1.182   6.178   4.305
 7970WAT     H224153   1.290   6.299   4.325
 7971WAT      O24154   9.593   9.789   4.162
 7971WAT     H124155   9.568   9.886   4.155
 7971WAT     H224156   9.519   9.733   4.123
 7972WAT      O24157   4.974   6.012   6.979
 7972WAT     H124158   4.997   6.024   7.076
 7972WAT     H224159   4.943   5.918   6.964
 7973WAT      O24160   5.064   0.431   7.570
 7973WAT     H124161   5.072   0.391   7.661
 7973WAT     H224162   4.991   0.385   7.520
 7974WAT      O24163   2.987   2.209   6.198
 7974WAT     H124164   2.961   2.297   6.157
 7974WAT     H224165   3.087   2.202   6.201
 7975WAT      O24166   2.870   9.530   5.282
 7975WAT     H124167   2.924   9.547   5.199
 7975WAT     H224168   2.785   9.582   5.278
 7976WAT      O24169   3.853   4.707   7.169
 7976WAT     H124170   3.830   4.748   7.081
 7976WAT     H224171   3.804   4.755   7.242
 7977WAT      O24172   7.030   0.911   3.963
 7977WAT     H124173   7.015   0.962   4.048
 7977WAT     H224174   7.128   0.898   3.948
 7978WAT      O24175   3.988   6.371   6.822
 7978WAT     H124176   3.983   6.281   6.863
 7978WAT     H224177   3.896   6.401   6.795
 7979WAT      O24178   9.384   8.379   9.696
 7979WAT     H124179   9.457   8.441   9.725
 7979WAT     H224180   9.321   8.364   9.772
 7980WAT      O24181   6.331   6.435   3.882
 7980WAT     H124182   6.403   6.492   3.843
 7980WAT     H224183   6.308   6.469   3.974
 7981WAT      O24184   2.164   9.126   2.552
 7981WAT     H124185   2.139   9.212   2.508
 7981WAT     H224186   2.242   9.085   2.505
 7982WAT      O24187   4.074   3.625   3.155
 7982WAT     H124188   3.978   3.606   3.132
 7982WAT     H224189   4.095   3.721   3.136
 7983WAT      O24190   6.885   7.549   7.740
 7983WAT     H124191   6.879   7.649   7.744
 7983WAT     H224192   6.814   7.509   7.798
 7984WAT      O24193   0.676   6.049   9.644
 7984WAT     H124194   0.592   6.089   9.610
 7984WAT     H224195   0.656   5.962   9.689
 7985WAT      O24196   7.913   3.799   4.292
 7985WAT     H124197   7.835   3.859   4.309
 7985WAT     H224198   7.995   3.838   4.334
 7986WAT      O24199   4.559   3.102   8.586
 7986WAT     H124200   4.462   3.081   8.576
 7986WAT     H224201   4.596   3.051   8.664
 7987WAT      O24202   1.584   1.821   6.940
 7987WAT     H124203   1.604   1.847   6.845
 7987WAT     H224204   1.515   1.749   6.942
 7988WAT      O24205   9.833   9.140   1.902
 7988WAT     H124206   9.738   9.172   1.906
 7988WAT     H224207   9.866   9.147   1.808
 7989WAT      O24208   3.972   5.994   4.765
 7989WAT     H124209   3.921   5.947   4.693
 7989WAT     H224210   4.065   5.958   4.769
 7990WAT      O24211   6.211   5.699   2.087
 7990WAT     H124212   6.304   5.667   2.075
 7990WAT     H224213   6.204   5.751   2.172
 7991WAT      O24214   7.159   1.926   8.708
 7991WAT     H124215   7.071   1.894   8.674
 7991WAT     H224216   7.158   2.026   8.717
 7992WAT      O24217   1.631   0.955   6.327
 7992WAT     H124218   1.716   0.911   6.298
 7992WAT     H224219   1.650   1.023   6.397
 7993WAT      O24220   2.151   5.818   4.687
 7993WAT     H124221   2.129   5.727   4.720
 7993WAT     H224222   2.214   5.863   4.749
 7994WAT      O24223   5.364   3.559   8.651
 7994WAT     H124224   5.268   3.531   8.643
 7994WAT     H224225   5.376   3.650   8.612
 7995WAT      O24226   4.452   9.554   4.615
 7995WAT     H124227   4.467   9.460   4.646
 7995WAT     H224228   4.414   9.554   4.523
 7996WAT      O24229   8.497   4.092   9.465
 7996WAT     H124230   8.426   4.148   9.507
 7996WAT     H224231   8.587   4.129   9.489
 7997WAT      O24232   9.813   0.978   9.057
 7997WAT     H124233   9.802   0.987   9.156
 7997WAT     H224234   9.728   1.005   9.011
 7998WAT      O24235   4.941   6.598   1.352
 7998WAT     H124236   5.039   6.618   1.362
 7998WAT     H224237   4.929   6.514   1.299
 7999WAT      O24238   2.946   7.173   4.790
 7999WAT     H124239   2.852   7.144   4.776
 7999WAT     H224240   2.967   7.168   4.888
 8000WAT      O24241   6.949   8.207   2.084
 8000WAT     H124242   6.886   8.172   2.153
 8000WAT     H224243   7.010   8.275   2.126
 8001WAT      O24244   8.105   4.933   9.642
 8001WAT     H124245   8.163   4.964   9.718
 8001WAT     H224246   8.127   4.838   9.620
 8002WAT      O24247   6.236   3.148   9.336
 8002WAT     H124248   6.199   3.191   9.419
 8002WAT     H224249   6.308   3.206   9.297
 8003WAT      O24250   4.628   5.677   0.606
 8003WAT     H124251   4.528   5.686   0.608
 8003WAT     H224252   4.667   5.743   0.542
 8004WAT      O24253   1.201   0.083   0.006
 8004WAT     H124254   1.265   0.008   0.022
 8004WAT     H224255   1.179   0.088  -0.092
 8005WAT      O24256   6.529   9.332   1.612
 8005WAT     H124257   6.513   9.429   1.592
 8005WAT     H224258   6.447   9.291   1.650
 8006WAT      O24259   2.744   9.759   7.457
 8006WAT     H124260   2.761   9.707   7.540
 8006WAT     H224261   2.645   9.774   7.447
 8007WAT      O24262   7.262   2.866   4.338
 8007WAT     H124263   7.336   2.924   4.370
 8007WAT     H224264   7.297   2.803   4.268
 8008WAT      O24265   3.560   3.778   5.021
 8008WAT     H124266   3.490   3.848   5.007
 8008WAT     H224267   3.622   3.777   4.943
 8009WAT      O24268   8.374   5.874   1.464
 8009WAT     H124269   8.452   5.935   1.474
 8009WAT     H224270   8.298   5.923   1.421
 8010WAT      O24271   5.127   2.682   1.888
 8010WAT     H124272   5.080   2.617   1.947
 8010WAT     H224273   5.060   2.739   1.840
 8011WAT      O24274   4.045   5.781   5.845
 8011WAT     H124275   3.984   5.794   5.768
 8011WAT     H224276   3.994   5.792   5.931
 8012WAT      O24277   7.603   9.779   4.808
 8012WAT     H124278   7.548   9.858   4.834
 8012WAT     H224279   7.696   9.808   4.788
 8013WAT      O24280   1.098   9.356   0.806
 8013WAT     H124281   1.045   9.318   0.882
 8013WAT     H224282   1.184   9.305   0.797
 8014WAT      O24283   4.851   4.398   0.412
 8014WAT     H124284   4.934   4.405   0.468
 8014WAT     H224285   4.773   4.434   0.464
 8015WAT      O24286   1.644   7.736   9.025
 8015WAT     H124287   1.650   7.637   9.029
 8015WAT     H224288   1.563   7.766   9.076
 8016WAT      O24289   3.778   0.644   0.335
 8016WAT     H124290   3.839   0.564   0.335
 8016WAT     H224291   3.799   0.701   0.255
 8017WAT      O24292   7.839   5.211   7.476
 8017WAT     H124293   7.784   5.135   7.509
 8017WAT     H224294   7.866   5.269   7.553
 8018WAT      O24295   4.415   4.460   8.289
 8018WAT     H124296   4.335   4.459   8.350
 8018WAT     H224297   4.412   4.543   8.233
 8019WAT      O24298   9.362   3.170   0.189
 8019WAT     H124299   9.398   3.081   0.161
 8019WAT     H224300   9.266   3.177   0.162
 8020WAT      O24301   5.037   2.583   6.814
 8020WAT     H124302   5.002   2.626   6.897
 8020WAT     H224303   5.118   2.632   6.782
 8021WAT      O24304   2.296   6.880   2.839
 8021WAT     H124305   2.362   6.861   2.911
 8021WAT     H224306   2.342   6.880   2.750
 8022WAT      O24307   4.569   8.931   6.562
 8022WAT     H124308   4.666   8.953   6.566
 8022WAT     H224309   4.545   8.869   6.637
 8023WAT      O24310   2.997   8.504   0.889
 8023WAT     H124311   2.940   8.508   0.971
 8023WAT     H224312   3.093   8.498   0.917
 8024WAT      O24313   9.542   0.918   2.797
 8024WAT     H124314   9.631   0.881   2.820
 8024WAT     H224315   9.474   0.845   2.796
 8025WAT      O24316   7.983   4.904   0.125
 8025WAT     H124317   8.050   4.874   0.193
 8025WAT     H224318   7.997   5.001   0.105
 8026WAT      O24319   8.995   6.686   6.391
 8026WAT     H124320   9.065   6.756   6.377
 8026WAT     H224321   8.921   6.700   6.325
 8027WAT      O24322   5.369   7.735   4.977
 8027WAT     H124323   5.313   7.723   5.059
 8027WAT     H224324   5.447   7.672   4.981
 8028WAT      O24325   5.911   7.460   0.777
 8028WAT     H124326   5.926   7.448   0.679
 8028WAT     H224327   5.850   7.538   0.792
 8029WAT      O24328   9.682   0.451   5.725
 8029WAT     H124329   9.683   0.459   5.625
 8029WAT     H224330   9.651   0.537   5.765
 8030WAT      O24331   5.830   8.061   6.683
 8030WAT     H124332   5.811   8.003   6.763
 8030WAT     H224333   5.802   8.155   6.702
 8031WAT      O24334   6.052   1.020   3.489
 8031WAT     H124335   5.976   1.061   3.438
 8031WAT     H224336   6.029   0.926   3.514
 8032WAT      O24337   8.410   8.106   6.749
 8032WAT     H124338   8.499   8.142   6.775
 8032WAT     H224339   8.421   8.014   6.710
 8033WAT      O24340   5.155   3.479   0.287
 8033WAT     H124341   5.180   3.459   0.382
 8033WAT     H224342   5.066   3.523   0.284
 8034WAT      O24343   9.815   6.504   7.484
 8034WAT     H124344   9.835   6.555   7.401
 8034WAT     H224345   9.837   6.407   7.470
 8035WAT      O24346   9.593   4.958   1.934
 8035WAT     H124347   9.637   4.995   2.016
 8035WAT     H224348   9.625   5.008   1.853
 8036WAT      O24349   7.270   7.506   0.832
 8036WAT     H124350   7.296   7.487   0.737
 8036WAT     H224351   7.267   7.420   0.883
 8037WAT      O24352   6.881   0.221   6.738
 8037WAT     H124353   6.872   0.121   6.741
 8037WAT     H224354   6.807   0.259   6.684
 8038WAT      O24355   0.097   9.116   3.821
 8038WAT     H124356   0.007   9.125   3.863
 8038WAT     H224357   0.087   9.109   3.721
 8039WAT      O24358   3.422   1.322   6.636
 8039WAT     H124359   3.375   1.396   6.682
 8039WAT     H224360   3.506   1.356   6.593
 8040WAT      O24361   6.327   4.972   4.792
 8040WAT     H124362   6.409   4.924   4.758
 8040WAT     H224363   6.268   4.907   4.840
 8041WAT      O24364   3.050   7.942   7.448
 8041WAT     H124365   3.075   7.935   7.352
 8041WAT     H224366   3.115   8.002   7.495
 8042WAT      O24367   0.238   7.262   8.499
 8042WAT     H124368   0.209   7.240   8.592
 8042WAT     H224369   0.178   7.333   8.461
 8043WAT      O24370   0.097   4.699   8.579
 8043WAT     H124371   0.184   4.739   8.608
 8043WAT     H224372   0.028   4.771   8.573
 8044WAT      O24373   8.795   2.366   8.615
 8044WAT     H124374   8.853   2.380   8.695
 8044WAT     H224375   8.702   2.396   8.635
 8045WAT      O24376   6.843   8.353   9.226
 8045WAT     H124377   6.757   8.380   9.270
 8045WAT     H224378   6.878   8.270   9.268
 8046WAT      O24379   6.163   0.993   2.366
 8046WAT     H124380   6.084   0.932   2.365
 8046WAT     H224381   6.246   0.940   2.383
 8047WAT      O24382   3.099   4.662   8.380
 8047WAT     H124383   3.086   4.730   8.308
 8047WAT     H224384   3.019   4.602   8.384
 8048WAT      O24385   2.911   5.967   5.284
 8048WAT     H124386   2.902   5.890   5.220
 8048WAT     H224387   2.979   5.946   5.354
 8049WAT      O24388   3.993   5.426   8.382
 8049WAT     H124389   3.902   5.396   8.411
 8049WAT     H224390   3.997   5.526   8.384
 8050WAT      O24391   1.348   7.562   9.401
 8050WAT     H124392   1.428   7.518   9.442
 8050WAT     H224393   1.370   7.591   9.308
 8051WAT      O24394   2.094   5.427   9.213
 8051WAT     H124395   2.069   5.381   9.127
 8051WAT     H224396   2.147   5.364   9.270
 8052WAT      O24397   4.073   2.702   9.356
 8052WAT     H124398   4.051   2.637   9.429
 8052WAT     H224399   3.993   2.759   9.338
 8053WAT      O24400   9.354   7.386   8.763
 8053WAT     H124401   9.331   7.464   8.820
 8053WAT     H224402   9.285   7.375   8.691
 8054WAT      O24403   2.017   7.424   3.872
 8054WAT     H124404   1.944   7.490   3.891
 8054WAT     H224405   2.068   7.407   3.956
 8055WAT      O24406   9.119   7.421   1.002
 8055WAT     H124407   9.164   7.503   0.968
 8055WAT     H224408   9.114   7.353   0.928
 8056WAT      O24409   2.899   3.458   9.379
 8056WAT     H124410   2.925   3.554   9.385
 8056WAT     H224411   2.805   3.451   9.348
 8057WAT      O24412   4.503   5.576   4.702
 8057WAT     H124413   4.426   5.635   4.678
 8057WAT     H224414   4.544   5.539   4.619
 8058WAT      O24415   2.019   7.961   0.091
 8058WAT     H124416   1.922   7.951   0.110
 8058WAT     H224417   2.066   7.996   0.172
 8059WAT      O24418   4.665   2.835   9.808
 8059WAT     H124419   4.656   2.891   9.726
 8059WAT     H224420   4.753   2.789   9.808
 8060WAT      O24421   8.272   4.233   1.188
 8060WAT     H124422   8.245   4.278   1.274
 8060WAT     H224423   8.216   4.151   1.175
 8061WAT      O24424   2.036   2.178   0.803
 8061WAT     H124425   2.112   2.221   0.752
 8061WAT     H224426   1.977   2.130   0.739
 8062WAT      O24427   2.307   8.284   5.722
 8062WAT     H124428   2.216   8.323   5.710
 8062WAT     H224429   2.359   8.293   5.637
 8063WAT      O24430   6.943   2.596   8.111
 8063WAT     H124431   6.847   2.572   8.097
 8063WAT     H224432   6.989   2.604   8.023
 8064WAT      O24433   4.708   4.948   7.873
 8064WAT     H124434   4.619   4.992   7.858
 8064WAT     H224435   4.695   4.851   7.892
 8065WAT      O24436   8.382   1.748   0.835
 8065WAT     H124437   8.421   1.680   0.897
 8065WAT     H224438   8.331   1.816   0.889
 8066WAT      O24439   3.734   3.380   5.777
 8066WAT     H124440   3.818   3.326   5.770
 8066WAT     H224441   3.748   3.455   5.841
 8067WAT      O24442   9.001   3.579   6.223
 8067WAT     H124443   9.063   3.655   6.205
 8067WAT     H224444   9.021   3.540   6.312
 8068WAT      O24445   0.302   4.500   2.423
 8068WAT     H124446   0.296   4.532   2.517
 8068WAT     H224447   0.343   4.572   2.366
 8069WAT      O24448   7.236   0.921   1.372
 8069WAT     H124449   7.164   0.898   1.307
 8069WAT     H224450   7.316   0.954   1.322
 8070WAT      O24451   8.573   1.949   3.706
 8070WAT     H124452   8.612   2.041   3.709
 8070WAT     H224453   8.624   1.890   3.768
 8071WAT      O24454   5.528   9.535   7.788
 8071WAT     H124455   5.623   9.563   7.806
 8071WAT     H224456   5.488   9.498   7.871
 8072WAT      O24457   1.610   7.028   1.320
 8072WAT     H124458   1.525   7.080   1.307
 8072WAT     H224459   1.669   7.041   1.241
 8073WAT      O24460   5.493   5.219   7.889
 8073WAT     H124461   5.505   5.162   7.970
 8073WAT     H224462   5.396   5.236   7.874
 8074WAT      O24463   4.182   5.154   0.177
 8074WAT     H124464   4.168   5.056   0.180
 8074WAT     H224465   4.094   5.201   0.171
 8075WAT      O24466   7.491   0.516   6.695
 8075WAT     H124467   7.572   0.517   6.636
 8075WAT     H224468   7.481   0.605   6.739
 8076WAT      O24469   5.910   6.475   3.481
 8076WAT     H124470   5.884   6.487   3.385
 8076WAT     H224471   5.984   6.538   3.504
 8077WAT      O24472   8.031   7.296   3.242
 8077WAT     H124473   7.992   7.223   3.187
 8077WAT     H224474   7.984   7.300   3.331
 8078WAT      O24475   2.433   6.235   7.369
 8078WAT     H124476   2.336   6.257   7.369
 8078WAT     H224477   2.453   6.170   7.296
 8079WAT      O24478   6.376   3.962   3.439
 8079WAT     H124479   6.396   3.917   3.526
 8079WAT     H224480   6.345   4.055   3.456
 8080WAT      O24481   7.496   1.504   3.889
 8080WAT     H124482   7.539   1.419   3.918
 8080WAT     H224483   7.567   1.570   3.863
 8081WAT      O24484   1.605   9.458   8.654
 8081WAT     H124485   1.620   9.480   8.750
 8081WAT     H224486   1.587   9.360   8.644
 8082WAT      O24487   2.008   7.490   7.269
 8082WAT     H124488   1.959   7.447   7.193
 8082WAT     H224489   1.955   7.567   7.304
 8083WAT      O24490   7.194   8.335   8.851
 8083WAT     H124491   7.103   8.365   8.878
 8083WAT     H224492   7.195   8.235   8.841
 8084WAT      O24493   5.770   8.449   4.485
 8084WAT     H124494   5.727   8.486   4.402
 8084WAT     H224495   5.852   8.502   4.505
 8085WAT      O24496   0.055   2.507   9.142
 8085WAT     H124497   0.049   2.469   9.050
 8085WAT     H224498   0.072   2.606   9.136
 8086WAT      O24499   4.247   8.884   3.625
 8086WAT     H124500   4.188   8.919   3.552
 8086WAT     H224501   4.287   8.797   3.597
 8087WAT      O24502   0.884   7.176   8.732
 8087WAT     H124503   0.951   7.178   8.806
 8087WAT     H224504   0.905   7.247   8.665
 8088WAT      O24505   6.411   7.471   5.657
 8088WAT     H124506   6.387   7.566   5.677
 8088WAT     H224507   6.497   7.449   5.702
 8089WAT      O24508   9.732   5.640   6.808
 8089WAT     H124509   9.715   5.716   6.747
 8089WAT     H224510   9.653   5.627   6.869
 8090WAT      O24511   1.147   2.166   9.043
 8090WAT     H124512   1.128   2.162   8.945
 8090WAT     H224513   1.086   2.234   9.085
 8091WAT      O24514   0.939   8.236   7.611
 8091WAT     H124515   0.901   8.296   7.681
 8091WAT     H224516   0.901   8.260   7.521
 8092WAT      O24517   8.935   2.112   6.914
 8092WAT     H124518   8.947   2.071   6.824
 8092WAT     H224519   8.854   2.170   6.914
 8093WAT      O24520   1.441   1.399   8.786
 8093WAT     H124521   1.389   1.394   8.872
 8093WAT     H224522   1.422   1.486   8.741
 8094WAT      O24523   6.018   5.004   9.519
 8094WAT     H124524   6.050   4.911   9.537
 8094WAT     H224525   5.918   5.006   9.518
 8095WAT      O24526   8.099   1.104   9.804
 8095WAT     H124527   8.151   1.126   9.886
 8095WAT     H224528   8.011   1.151   9.807
 8096WAT      O24529   5.390   1.855   7.316
 8096WAT     H124530   5.298   1.879   7.284
 8096WAT     H224531   5.420   1.771   7.272
 8097WAT      O24532   0.905   6.939   4.090
 8097WAT     H124533   0.858   6.851   4.077
 8097WAT     H224534   0.898   6.967   4.185
 8098WAT      O24535   2.662   9.311   9.067
 8098WAT     H124536   2.681   9.247   8.993
 8098WAT     H224537   2.584   9.278   9.121
 8099WAT      O24538   0.851   7.452   6.470
 8099WAT     H124539   0.904   7.470   6.387
 8099WAT     H224540   0.763   7.499   6.464
 8100WAT      O24541   1.678   4.012   2.050
 8100WAT     H124542   1.649   4.091   1.994
 8100WAT     H224543   1.757   3.969   2.008
 8101WAT      O24544   1.528   0.881   8.276
 8101WAT     H124545   1.467   0.838   8.343
 8101WAT     H224546   1.610   0.825   8.265
 8102WAT      O24547   0.253   2.979   3.853
 8102WAT     H124548   0.169   2.986   3.799
 8102WAT     H224549   0.244   3.037   3.935
 8103WAT      O24550   1.809   5.103   1.701
 8103WAT     H124551   1.864   5.171   1.749
 8103WAT     H224552   1.717   5.139   1.685
 8104WAT      O24553   7.023   8.795   5.308
 8104WAT     H124554   6.934   8.805   5.265
 8104WAT     H224555   7.026   8.711   5.363
 8105WAT      O24556   2.148   3.437   1.015
 8105WAT     H124557   2.150   3.488   0.929
 8105WAT     H224558   2.219   3.366   1.013
 8106WAT      O24559   4.745   4.725   3.817
 8106WAT     H124560   4.778   4.785   3.890
 8106WAT     H224561   4.822   4.699   3.758
 8107WAT      O24562   4.237   2.591   9.118
 8107WAT     H124563   4.177   2.635   9.052
 8107WAT     H224564   4.236   2.644   9.203
 8108WAT      O24565   1.563   9.838   7.947
 8108WAT     H124566   1.477   9.833   7.897
 8108WAT     H224567   1.553   9.795   8.036
 8109WAT      O24568   7.972   6.916   5.915
 8109WAT     H124569   8.061   6.888   5.949
 8109WAT     H224570   7.981   6.952   5.823
 8110WAT      O24571   1.108   4.013   1.799
 8110WAT     H124572   1.128   4.089   1.737
 8110WAT     H224573   1.151   4.030   1.887
 8111WAT      O24574   6.798   5.349   6.536
 8111WAT     H124575   6.897   5.334   6.544
 8111WAT     H224576   6.765   5.397   6.617
 8112WAT      O24577   7.468   4.053   7.934
 8112WAT     H124578   7.393   3.989   7.951
 8112WAT     H224579   7.496   4.095   8.020
 8113WAT      O24580   3.239   9.394   2.996
 8113WAT     H124581   3.184   9.403   2.913
 8113WAT     H224582   3.329   9.360   2.971
 8114WAT      O24583   5.250   3.181   3.854
 8114WAT     H124584   5.327   3.231   3.814
 8114WAT     H224585   5.235   3.097   3.801
 8115WAT      O24586   8.752   6.521   9.210
 8115WAT     H124587   8.774   6.581   9.287
 8115WAT     H224588   8.790   6.430   9.226
 8116WAT      O24589   9.002   8.875   5.970
 8116WAT     H124590   8.983   8.880   6.068
 8116WAT     H224591   8.920   8.843   5.922
 8117WAT      O24592   5.358   7.742   9.132
 8117WAT     H124593   5.272   7.784   9.164
 8117WAT     H224594   5.346   7.711   9.037
 8118WAT      O24595   3.212   5.204   4.674
 8118WAT     H124596   3.195   5.118   4.626
 8118WAT     H224597   3.217   5.187   4.772
 8119WAT      O24598   6.307   5.868   7.898
 8119WAT     H124599   6.270   5.872   7.806
 8119WAT     H224600   6.250   5.809   7.955
 8120WAT      O24601   5.068   1.798   5.033
 8120WAT     H124602   5.150   1.831   5.080
 8120WAT     H224603   5.027   1.873   4.980
 8121WAT      O24604   5.138   6.508   9.501
 8121WAT     H124605   5.065   6.511   9.433
 8121WAT     H224606   5.202   6.435   9.478
 8122WAT      O24607   8.609   6.796   0.479
 8122WAT     H124608   8.609   6.726   0.550
 8122WAT     H224609   8.655   6.761   0.397
 8123WAT      O24610   6.569   3.671   0.431
 8123WAT     H124611   6.598   3.591   0.483
 8123WAT     H224612   6.485   3.650   0.381
 8124WAT      O24613   2.554   0.672   7.336
 8124WAT     H124614   2.488   0.746   7.334
 8124WAT     H224615   2.559   0.633   7.428
 8125WAT      O24616   1.304   2.491   6.606
 8125WAT     H124617   1.274   2.497   6.701
 8125WAT     H224618   1.376   2.421   6.598
 8126WAT      O24619   7.618   7.333   0.200
 8126WAT     H124620   7.522   7.310   0.188
 8126WAT     H224621   7.634   7.428   0.174
 8127WAT      O24622   2.741   7.160   4.437
 8127WAT     H124623   2.821   7.104   4.416
 8127WAT     H224624   2.669   7.102   4.475
 8128WAT      O24625   5.901   3.894   2.849
 8128WAT     H124626   5.976   3.828   2.852
 8128WAT     H224627   5.936   3.983   2.820
 8129WAT      O24628   1.984   8.286   5.982
 8129WAT     H124629   1.932   8.241   5.911
 8129WAT     H224630   1.943   8.267   6.071
 8130WAT      O24631   4.921   8.216   2.603
 8130WAT     H124632   4.938   8.117   2.608
 8130WAT     H224633   4.980   8.263   2.669
 8131WAT      O24634   4.090   4.116   3.269
 8131WAT     H124635   3.991   4.100   3.277
 8131WAT     H224636   4.133   4.038   3.224
 8132WAT      O24637   0.565   8.499   6.970
 8132WAT     H124638   0.506   8.571   7.006
 8132WAT     H224639   0.659   8.514   7.002
 8133WAT      O24640   3.294   5.550   3.917
 8133WAT     H124641   3.297   5.489   3.838
 8133WAT     H224642   3.377   5.536   3.973
 8134WAT      O24643   6.534   7.955   8.916
 8134WAT     H124644   6.457   7.961   8.980
 8134WAT     H224645   6.611   8.007   8.952
 8135WAT      O24646   1.208   9.328   4.678
 8135WAT     H124647   1.263   9.245   4.667
 8135WAT     H224648   1.268   9.407   4.687
 8136WAT      O24649   8.725   1.603   8.312
 8136WAT     H124650   8.689   1.686   8.353
 8136WAT     H224651   8.729   1.614   8.212
 8137WAT      O24652   7.099   8.702   4.795
 8137WAT     H124653   7.120   8.746   4.882
 8137WAT     H224654   7.140   8.754   4.720
 8138WAT      O24655   6.846   2.999   4.808
 8138WAT     H124656   6.829   2.980   4.712
 8138WAT     H224657   6.937   2.965   4.834
 8139WAT      O24658   1.819   8.638   6.483
 8139WAT     H124659   1.785   8.553   6.443
 8139WAT     H224660   1.919   8.637   6.485
 8140WAT      O24661   4.764   0.012   1.059
 8140WAT     H124662   4.862   0.014   1.041
 8140WAT     H224663   4.748   0.017   1.158
 8141WAT      O24664   0.732   6.215   0.867
 8141WAT     H124665   0.692   6.274   0.798
 8141WAT     H224666   0.825   6.247   0.888
 8142WAT      O24667   3.215   0.731   5.360
 8142WAT     H124668   3.142   0.674   5.321
 8142WAT     H224669   3.264   0.778   5.287
 8143WAT      O24670   2.773   1.877   7.337
 8143WAT     H124671   2.798   1.788   7.375
 8143WAT     H224672   2.836   1.947   7.373
 8144WAT      O24673   8.621   6.081   6.565
 8144WAT     H124674   8.640   6.154   6.500
 8144WAT     H224675   8.620   5.993   6.518
 8145WAT      O24676   5.612   0.022   5.329
 8145WAT     H124677   5.535   0.028   5.392
 8145WAT     H224678   5.595  -0.051   5.262
 8146WAT      O24679   9.646   3.133   9.180
 8146WAT     H124680   9.667   3.229   9.161
 8146WAT     H224681   9.596   3.094   9.103
 8147WAT      O24682   6.616   3.220   8.710
 8147WAT     H124683   6.648   3.311   8.683
 8147WAT     H224684   6.680   3.151   8.676
 8148WAT      O24685   6.263   6.993   7.081
 8148WAT     H124686   6.179   6.984   7.135
 8148WAT     H224687   6.279   6.908   7.030
 8149WAT      O24688   9.730   9.518   2.516
 8149WAT     H124689   9.646   9.464   2.509
 8149WAT     H224690   9.794   9.491   2.445
 8150WAT      O24691   0.730   6.815   7.342
 8150WAT     H124692   0.717   6.752   7.265
 8150WAT     H224693   0.641   6.838   7.381
 8151WAT      O24694   1.570   3.939   5.770
 8151WAT     H124695   1.623   3.901   5.846
 8151WAT     H224696   1.579   4.039   5.771
 8152WAT      O24697   2.627   1.106   5.174
 8152WAT     H124698   2.548   1.120   5.115
 8152WAT     H224699   2.676   1.023   5.146
 8153WAT      O24700   9.270   1.457   6.508
 8153WAT     H124701   9.244   1.538   6.561
 8153WAT     H224702   9.348   1.479   6.450
 8154WAT      O24703   5.058   3.569   2.001
 8154WAT     H124704   4.959   3.584   1.992
 8154WAT     H224705   5.088   3.499   1.936
 8155WAT      O24706   7.375   4.393   4.197
 8155WAT     H124707   7.303   4.457   4.225
 8155WAT     H224708   7.369   4.378   4.098
 8156WAT      O24709   3.164   0.181   2.091
 8156WAT     H124710   3.210   0.095   2.069
 8156WAT     H224711   3.204   0.219   2.174
 8157WAT      O24712   0.367   7.723   0.126
 8157WAT     H124713   0.280   7.693   0.166
 8157WAT     H224714   0.349   7.789   0.053
 8158WAT      O24715   4.397   7.271   6.284
 8158WAT     H124716   4.461   7.195   6.271
 8158WAT     H224717   4.329   7.271   6.211
 8159WAT      O24718   0.020   1.292   7.340
 8159WAT     H124719  -0.073   1.316   7.369
 8159WAT     H224720   0.082   1.367   7.363
 8160WAT      O24721   7.414   1.269   3.497
 8160WAT     H124722   7.440   1.362   3.524
 8160WAT     H224723   7.316   1.256   3.511
 8161WAT      O24724   1.281   9.264   3.513
 8161WAT     H124725   1.352   9.333   3.529
 8161WAT     H224726   1.273   9.248   3.414
 8162WAT      O24727   1.200   7.396   3.063
 8162WAT     H124728   1.237   7.309   3.095
 8162WAT     H224729   1.149   7.440   3.136
 8163WAT      O24730   2.822   0.825   8.599
 8163WAT     H124731   2.774   0.752   8.552
 8163WAT     H224732   2.796   0.826   8.696
 8164WAT      O24733   6.434   1.657   8.048
 8164WAT     H124734   6.495   1.600   8.103
 8164WAT     H224735   6.483   1.693   7.969
 8165WAT      O24736   5.618   8.215   6.831
 8165WAT     H124737   5.595   8.307   6.863
 8165WAT     H224738   5.663   8.165   6.905
 8166WAT      O24739   4.051   1.676   9.525
 8166WAT     H124740   4.110   1.751   9.554
 8166WAT     H224741   3.955   1.698   9.546
 8167WAT      O24742   2.992   5.216   4.019
 8167WAT     H124743   2.998   5.231   3.920
 8167WAT     H224744   2.945   5.130   4.037
 8168WAT      O24745   8.327   6.034   4.469
 8168WAT     H124746   8.382   5.962   4.511
 8168WAT     H224747   8.387   6.104   4.431
 8169WAT      O24748   1.884   8.335   4.463
 8169WAT     H124749   1.971   8.334   4.511
 8169WAT     H224750   1.810   8.347   4.529
 8170WAT      O24751   6.169   6.471   8.167
 8170WAT     H124752   6.202   6.465   8.073
 8170WAT     H224753   6.243   6.505   8.226
 8171WAT      O24754   8.778   2.442   2.755
 8171WAT     H124755   8.842   2.402   2.689
 8171WAT     H224756   8.687   2.401   2.743
 8172WAT      O24757   4.000   9.447   3.227
 8172WAT     H124758   3.979   9.501   3.145
 8172WAT     H224759   4.076   9.490   3.276
 8173WAT      O24760   9.604   8.118   5.040
 8173WAT     H124761   9.602   8.119   4.940
 8173WAT     H224762   9.512   8.100   5.075
 8174WAT      O24763   8.554   3.181   0.862
 8174WAT     H124764   8.527   3.085   0.862
 8174WAT     H224765   8.587   3.207   0.953
 8175WAT      O24766   2.214   6.451   7.604
 8175WAT     H124767   2.254   6.441   7.695
 8175WAT     H224768   2.145   6.524   7.605
 8176WAT      O24769   7.357   1.673   2.948
 8176WAT     H124770   7.330   1.578   2.938
 8176WAT     H224771   7.277   1.732   2.938
 8177WAT      O24772   4.960   0.881   3.879
 8177WAT     H124773   4.981   0.820   3.803
 8177WAT     H224774   4.996   0.972   3.861
 8178WAT      O24775   7.753   8.295   5.695
 8178WAT     H124776   7.763   8.247   5.607
 8178WAT     H224777   7.660   8.281   5.730
 8179WAT      O24778   4.636   5.651   9.325
 8179WAT     H124779   4.663   5.635   9.420
 8179WAT     H224780   4.707   5.702   9.278
 8180WAT      O24781   5.437   3.486   9.347
 8180WAT     H124782   5.401   3.400   9.384
 8180WAT     H224783   5.416   3.560   9.411
 8181WAT      O24784   9.581   1.193   8.012
 8181WAT     H124785   9.623   1.105   7.989
 8181WAT     H224786   9.569   1.247   7.929
 8182WAT      O24787   0.279   5.355   8.826
 8182WAT     H124788   0.375   5.357   8.796
 8182WAT     H224789   0.274   5.321   8.920
 8183WAT      O24790   6.096   8.973   9.748
 8183WAT     H124791   6.020   8.918   9.712
 8183WAT     H224792   6.078   8.996   9.844
 8184WAT      O24793   6.068   6.010   6.588
 8184WAT     H124794   6.045   5.941   6.657
 8184WAT     H224795   6.028   6.098   6.615
 8185WAT      O24796   6.731   0.174   8.208
 8185WAT     H124797   6.803   0.244   8.214
 8185WAT     H224798   6.682   0.171   8.295
 8186WAT      O24799   2.816   7.997   0.173
 8186WAT     H124800   2.829   7.899   0.158
 8186WAT     H224801   2.905   8.044   0.169
 8187WAT      O24802   6.687   6.979   7.604
 8187WAT     H124803   6.667   6.991   7.701
 8187WAT     H224804   6.604   6.996   7.550
 8188WAT      O24805   4.470   3.927   3.997
 8188WAT     H124806   4.483   4.016   4.041
 8188WAT     H224807   4.529   3.859   4.040
 8189WAT      O24808   3.285   0.603   4.911
 8189WAT     H124809   3.366   0.654   4.943
 8189WAT     H224810   3.273   0.619   4.813
 8190WAT      O24811   3.794   3.506   0.423
 8190WAT     H124812   3.716   3.562   0.393
 8190WAT     H224813   3.862   3.502   0.349
 8191WAT      O24814   6.743   4.242   7.534
 8191WAT     H124815   6.653   4.198   7.536
 8191WAT     H224816   6.731   4.340   7.518
 8192WAT      O24817   9.694   6.264   2.432
 8192WAT     H124818   9.782   6.222   2.456
 8192WAT     H224819   9.644   6.285   2.516
 8193WAT      O24820   2.381   9.469   6.194
 8193WAT     H124821   2.324   9.420   6.260
 8193WAT     H224822   2.349   9.564   6.186
 8194WAT      O24823   1.034   9.245   0.269
 8194WAT     H124824   1.037   9.251   0.169
 8194WAT     H224825   1.100   9.309   0.308
 8195WAT      O24826   5.762   3.646   3.787
 8195WAT     H124827   5.810   3.665   3.873
 8195WAT     H224828   5.729   3.732   3.748
 8196WAT      O24829   4.538   7.691   6.010
 8196WAT     H124830   4.449   7.719   5.974
 8196WAT     H224831   4.555   7.595   5.987
 8197WAT      O24832   8.091   0.937   8.201
 8197WAT     H124833   8.081   1.026   8.156
 8197WAT     H224834   8.102   0.865   8.132
 8198WAT      O24835   1.410   7.841   0.943
 8198WAT     H124836   1.383   7.801   0.855
 8198WAT     H224837   1.481   7.909   0.928
 8199WAT      O24838   6.338   3.546   0.317
 8199WAT     H124839   6.321   3.460   0.365
 8199WAT     H224840   6.294   3.543   0.228
 8200WAT      O24841   7.434   9.713   6.201
 8200WAT     H124842   7.476   9.801   6.222
 8200WAT     H224843   7.475   9.674   6.119
 8201WAT      O24844   4.631   1.296   8.097
 8201WAT     H124845   4.560   1.326   8.161
 8201WAT     H224846   4.667   1.207   8.126
 8202WAT      O24847   9.697   6.621   1.113
 8202WAT     H124848   9.619   6.574   1.073
 8202WAT     H224849   9.756   6.555   1.159
 8203WAT      O24850   3.122   9.587   3.775
 8203WAT     H124851   3.203   9.630   3.813
 8203WAT     H224852   3.148   9.519   3.707
 8204WAT      O24853   8.788   1.627   6.892
 8204WAT     H124854   8.724   1.702   6.908
 8204WAT     H224855   8.818   1.589   6.980
 8205WAT      O24856   0.797   0.312   8.541
 8205WAT     H124857   0.737   0.282   8.467
 8205WAT     H224858   0.888   0.271   8.529
 8206WAT      O24859   2.647   8.470   8.878
 8206WAT     H124860   2.606   8.381   8.859
 8206WAT     H224861   2.700   8.465   8.962
 8207WAT      O24862   7.581   1.705   6.045
 8207WAT     H124863   7.593   1.735   6.139
 8207WAT     H224864   7.671   1.696   6.001
 8208WAT      O24865   8.737   8.067   4.531
 8208WAT     H124866   8.721   8.055   4.629
 8208WAT     H224867   8.743   8.165   4.510
 8209WAT      O24868   8.331   2.881   5.446
 8209WAT     H124869   8.370   2.882   5.353
 8209WAT     H224870   8.389   2.935   5.507
 8210WAT      O24871   6.141   2.240   0.746
 8210WAT     H124872   6.048   2.216   0.720
 8210WAT     H224873   6.205   2.210   0.675
 8211WAT      O24874   7.436   4.678   3.744
 8211WAT     H124875   7.368   4.641   3.808
 8211WAT     H224876   7.397   4.685   3.653
 8212WAT      O24877   5.939   4.328   8.329
 8212WAT     H124878   5.970   4.377   8.410
 8212WAT     H224879   6.018   4.289   8.281
 8213WAT      O24880   0.842   8.175   4.708
 8213WAT     H124881   0.806   8.082   4.706
 8213WAT     H224882   0.833   8.216   4.617
 8214WAT      O24883   7.985   7.865   0.502
 8214WAT     H124884   8.027   7.788   0.549
 8214WAT     H224885   7.920   7.910   0.564
 8215WAT      O24886   0.669   4.995   0.665
 8215WAT     H124887   0.681   4.999   0.765
 8215WAT     H224888   0.606   4.921   0.642
 8216WAT      O24889   1.513   7.134   9.102
 8216WAT     H124890   1.540   7.137   9.006
 8216WAT     H224891   1.567   7.200   9.154
 8217WAT      O24892   2.924   3.417   9.671
 8217WAT     H124893   3.016   3.452   9.683
 8217WAT     H224894   2.893   3.435   9.577
 8218WAT      O24895   3.791   2.247   3.430
 8218WAT     H124896   3.798   2.266   3.332
 8218WAT     H224897   3.699   2.268   3.461
 8219WAT      O24898   2.109   7.917   1.200
 8219WAT     H124899   2.030   7.978   1.194
 8219WAT     H224900   2.156   7.931   1.288
 8220WAT      O24901   8.551   0.681   8.463
 8220WAT     H124902   8.621   0.737   8.507
 8220WAT     H224903   8.566   0.585   8.485
 8221WAT      O24904   6.790   4.866   0.413
 8221WAT     H124905   6.816   4.799   0.344
 8221WAT     H224906   6.867   4.882   0.474
 8222WAT      O24907   8.149   3.368   6.985
 8222WAT     H124908   8.132   3.284   7.038
 8222WAT     H224909   8.151   3.346   6.888
 8223WAT      O24910   0.323   5.003   4.865
 8223WAT     H124911   0.296   4.955   4.781
 8223WAT     H224912   0.331   4.937   4.939
 8224WAT      O24913   5.672   5.980   2.004
 8224WAT     H124914   5.639   5.887   1.988
 8224WAT     H224915   5.632   6.015   2.089
 8225WAT      O24916   7.838   1.553   8.821
 8225WAT     H124917   7.936   1.536   8.831
 8225WAT     H224918   7.820   1.589   8.729
 8226WAT      O24919   8.972   8.764   6.521
 8226WAT     H124920   9.060   8.749   6.565
 8226WAT     H224921   8.899   8.762   6.590
 8227WAT      O24922   2.299   6.683   8.145
 8227WAT     H124923   2.395   6.659   8.133
 8227WAT     H224924   2.258   6.622   8.213
 8228WAT      O24925   4.977   2.852   6.087
 8228WAT     H124926   4.929   2.898   6.012
 8228WAT     H224927   5.028   2.774   6.051
 8229WAT      O24928   6.430   9.265   8.300
 8229WAT     H124929   6.464   9.273   8.393
 8229WAT     H224930   6.506   9.267   8.236
 8230WAT      O24931   4.904   1.298   1.321
 8230WAT     H124932   4.907   1.253   1.410
 8230WAT     H224933   4.940   1.391   1.329
 8231WAT      O24934   5.003   3.789   5.837
 8231WAT     H124935   5.002   3.803   5.936
 8231WAT     H224936   4.911   3.801   5.800
 8232WAT      O24937   4.539   4.698   8.918
 8232WAT     H124938   4.621   4.729   8.871
 8232WAT     H224939   4.459   4.744   8.879
 8233WAT      O24940   3.600   5.366   7.355
 8233WAT     H124941   3.536   5.340   7.427
 8233WAT     H224942   3.583   5.460   7.327
 8234WAT      O24943   8.098   1.242   0.753
 8234WAT     H124944   8.063   1.189   0.677
 8234WAT     H224945   8.052   1.213   0.838
 8235WAT      O24946   8.708   1.920   3.045
 8235WAT     H124947   8.682   1.841   2.990
 8235WAT     H224948   8.790   1.898   3.098
 8236WAT      O24949   4.443   3.241   0.547
 8236WAT     H124950   4.428   3.275   0.640
 8236WAT     H224951   4.374   3.280   0.486
 8237WAT      O24952   8.828   5.353   7.275
 8237WAT     H124953   8.925   5.334   7.263
 8237WAT     H224954   8.784   5.362   7.186
 8238WAT      O24955   4.490   3.210   0.829
 8238WAT     H124956   4.551   3.130   0.827
 8238WAT     H224957   4.472   3.235   0.924
 8239WAT      O24958   4.602   5.007   0.800
 8239WAT     H124959   4.660   5.067   0.854
 8239WAT     H224960   4.631   4.912   0.811
 8240WAT      O24961   1.612   5.268   8.303
 8240WAT     H124962   1.513   5.257   8.310
 8240WAT     H224963   1.653   5.263   8.394
 8241WAT      O24964   7.215   2.741   7.026
 8241WAT     H124965   7.182   2.799   6.952
 8241WAT     H224966   7.314   2.731   7.020
 8242WAT      O24967   4.356   1.156   0.439
 8242WAT     H124968   4.427   1.108   0.491
 8242WAT     H224969   4.270   1.105   0.445
 8243WAT      O24970   7.994   8.702   5.161
 8243WAT     H124971   8.054   8.734   5.087
 8243WAT     H224972   8.023   8.611   5.191
 8244WAT      O24973   0.120   2.691   0.059
 8244WAT     H124974   0.173   2.641  -0.010
 8244WAT     H224975   0.072   2.626   0.117
 8245WAT      O24976   7.100   8.201   9.215
 8245WAT     H124977   7.054   8.287   9.194
 8245WAT     H224978   7.165   8.179   9.143
 8246WAT      O24979   8.379   3.548   6.898
 8246WAT     H124980   8.389   3.644   6.875
 8246WAT     H224981   8.286   3.531   6.931
 8247WAT      O24982   5.794   9.306   0.478
 8247WAT     H124983   5.892   9.296   0.464
 8247WAT     H224984   5.770   9.403   0.482
 8248WAT      O24985   7.740   8.152   9.787
 8248WAT     H124986   7.726   8.070   9.843
 8248WAT     H224987   7.835   8.182   9.794
 8249WAT      O24988   8.023   4.139   5.248
 8249WAT     H124989   7.943   4.080   5.261
 8249WAT     H224990   8.083   4.100   5.179
 8250WAT      O24991   3.578   3.503   2.952
 8250WAT     H124992   3.503   3.462   3.005
 8250WAT     H224993   3.559   3.600   2.937
 8251WAT      O24994   7.322   3.187   7.587
 8251WAT     H124995   7.397   3.188   7.521
 8251WAT     H224996   7.298   3.281   7.613
 8252WAT      O24997   7.553   0.103   6.169
 8252WAT     H124998   7.485   0.175   6.154
 8252WAT     H224999   7.638   0.127   6.124
 8253WAT      O25000   3.340   6.363   9.153
 8253WAT     H125001   3.295   6.331   9.237
 8253WAT     H225002   3.273   6.369   9.080
 8254WAT      O25003   3.212   0.188   0.279
 8254WAT     H125004   3.134   0.151   0.329
 8254WAT     H225005   3.216   0.287   0.293
 8255WAT      O25006   1.338   7.196   3.146
 8255WAT     H125007   1.389   7.244   3.218
 8255WAT     H225008   1.363   7.099   3.146
 8256WAT      O25009   9.797   3.656   2.916
 8256WAT     H125010   9.812   3.751   2.944
 8256WAT     H225011   9.884   3.613   2.896
 8257WAT      O25012   2.031   4.867   6.981
 8257WAT     H125013   2.084   4.828   7.057
 8257WAT     H225014   1.997   4.793   6.923
 8258WAT      O25015   8.665   2.798   3.007
 8258WAT     H125016   8.641   2.888   3.042
 8258WAT     H225017   8.616   2.780   2.922
 8259WAT      O25018   7.265   8.105   3.018
 8259WAT     H125019   7.244   8.021   2.967
 8259WAT     H225020   7.364   8.118   3.021
 8260WAT      O25021   1.095   6.524   8.155
 8260WAT     H125022   1.038   6.457   8.107
 8260WAT     H225023   1.169   6.554   8.095
 8261WAT      O25024   9.646   2.362   5.468
 8261WAT     H125025   9.657   2.266   5.440
 8261WAT     H225026   9.594   2.411   5.398
 8262WAT      O25027   1.086   7.715   4.191
 8262WAT     H125028   1.069   7.650   4.117
 8262WAT     H225029   1.138   7.792   4.155
 8263WAT      O25030   7.240   8.076   6.372
 8263WAT     H125031   7.182   8.157   6.376
 8263WAT     H225032   7.218   8.015   6.449
 8264WAT      O25033   7.893   7.078   3.141
 8264WAT     H125034   7.951   7.017   3.087
 8264WAT     H225035   7.826   7.121   3.081
 8265WAT      O25036   0.790   4.648   4.058
 8265WAT     H125037   0.858   4.628   4.129
 8265WAT     H225038   0.827   4.717   3.995
 8266WAT      O25039   2.160   9.576   0.694
 8266WAT     H125040   2.166   9.670   0.728
 8266WAT     H225041   2.197   9.514   0.762
 8267WAT      O25042   6.359   2.555   4.169
 8267WAT     H125043   6.404   2.644   4.158
 8267WAT     H225044   6.360   2.507   4.081
 8268WAT      O25045   4.652   6.346   9.433
 8268WAT     H125046   4.681   6.264   9.383
 8268WAT     H225047   4.592   6.401   9.376
 8269WAT      O25048   4.579   9.388   8.635
 8269WAT     H125049   4.553   9.379   8.539
 8269WAT     H225050   4.587   9.297   8.676
 8270WAT      O25051   7.942   7.818   0.019
 8270WAT     H125052   7.977   7.790  -0.070
 8270WAT     H225053   8.018   7.826   0.084
 8271WAT      O25054   0.694   2.143   2.333
 8271WAT     H125055   0.705   2.214   2.403
 8271WAT     H225056   0.640   2.068   2.371
 8272WAT      O25057   5.927   2.220   1.987
 8272WAT     H125058   5.973   2.155   2.049
 8272WAT     H225059   5.829   2.199   1.984
 8273WAT      O25060   8.557   1.614   6.754
 8273WAT     H125061   8.496   1.538   6.777
 8273WAT     H225062   8.642   1.606   6.805
 8274WAT      O25063   3.977   7.606   3.232
 8274WAT     H125064   3.953   7.611   3.135
 8274WAT     H225065   3.998   7.511   3.256
 8275WAT      O25066   0.774   9.075   3.428
 8275WAT     H125067   0.697   9.066   3.491
 8275WAT     H225068   0.761   9.013   3.350
 8276WAT      O25069   1.057   6.133   9.367
 8276WAT     H125070   1.028   6.039   9.384
 8276WAT     H225071   1.057   6.184   9.454
 8277WAT      O25072   9.363   6.224   0.747
 8277WAT     H125073   9.433   6.185   0.687
 8277WAT     H225074   9.318   6.301   0.701
 8278WAT      O25075   8.721   8.751   7.783
 8278WAT     H125076   8.722   8.833   7.725
 8278WAT     H225077   8.708   8.777   7.878
 8279WAT      O25078   1.826   2.827   5.779
 8279WAT     H125079   1.813   2.790   5.871
 8279WAT     H225080   1.871   2.758   5.721
 8280WAT      O25081   6.499   5.750   5.179
 8280WAT     H125082   6.567   5.810   5.139
 8280WAT     H225083   6.470   5.683   5.110
 8281WAT      O25084   9.275   2.373   8.006
 8281WAT     H125085   9.274   2.307   8.081
 8281WAT     H225086   9.205   2.349   7.939
 8282WAT      O25087   8.097   2.463   1.460
 8282WAT     H125088   8.089   2.370   1.494
 8282WAT     H225089   8.179   2.506   1.498
 8283WAT      O25090   2.568   6.207   5.168
 8283WAT     H125091   2.610   6.178   5.254
 8283WAT     H225092   2.555   6.127   5.109
 8284WAT      O25093   7.305   6.423   0.807
 8284WAT     H125094   7.369   6.368   0.860
 8284WAT     H225095   7.350   6.506   0.774
 8285WAT      O25096   7.542   8.682   5.572
 8285WAT     H125097   7.612   8.751   5.590
 8285WAT     H225098   7.465   8.724   5.525
 8286WAT      O25099   1.194   4.009   2.286
 8286WAT     H125100   1.209   3.925   2.234
 8286WAT     H225101   1.275   4.068   2.279
 8287WAT      O25102   1.193   1.476   8.451
 8287WAT     H125103   1.292   1.492   8.454
 8287WAT     H225104   1.175   1.378   8.446
 8288WAT      O25105   3.432   7.753   3.698
 8288WAT     H125106   3.474   7.663   3.715
 8288WAT     H225107   3.505   7.820   3.680
 8289WAT      O25108   3.830   5.813   3.552
 8289WAT     H125109   3.883   5.839   3.471
 8289WAT     H225110   3.827   5.890   3.616
 8290WAT      O25111   9.106   6.985   8.235
 8290WAT     H125112   9.174   6.917   8.262
 8290WAT     H225113   9.142   7.038   8.158
 8291WAT      O25114   7.449   2.011   4.900
 8291WAT     H125115   7.388   2.075   4.947
 8291WAT     H225116   7.538   2.054   4.887
 8292WAT      O25117   3.972   5.241   2.169
 8292WAT     H125118   3.985   5.317   2.233
 8292WAT     H225119   3.925   5.273   2.087
 8293WAT      O25120   1.349   0.092   1.401
 8293WAT     H125121   1.402   0.075   1.318
 8293WAT     H225122   1.339   0.007   1.452
 8294WAT      O25123   4.295   2.380   9.494
 8294WAT     H125124   4.205   2.416   9.519
 8294WAT     H225125   4.347   2.360   9.577
 8295WAT      O25126   4.083   3.614   6.124
 8295WAT     H125127   4.028   3.530   6.121
 8295WAT     H225128   4.116   3.629   6.217
 8296WAT      O25129   5.165   8.083   5.351
 8296WAT     H125130   5.185   8.144   5.275
 8296WAT     H225131   5.130   8.137   5.429
 8297WAT      O25132   1.186   1.426   2.402
 8297WAT     H125133   1.276   1.394   2.431
 8297WAT     H225134   1.197   1.503   2.339
 8298WAT      O25135   3.900   7.133   7.773
 8298WAT     H125136   3.936   7.153   7.682
 8298WAT     H225137   3.967   7.078   7.823
 8299WAT      O25138   9.529   3.651   5.707
 8299WAT     H125139   9.430   3.640   5.714
 8299WAT     H225140   9.564   3.699   5.787
 8300WAT      O25141   4.183   4.689   6.768
 8300WAT     H125142   4.124   4.662   6.844
 8300WAT     H225143   4.193   4.613   6.705
 8301WAT      O25144   1.676   0.476   4.843
 8301WAT     H125145   1.727   0.480   4.757
 8301WAT     H225146   1.578   0.472   4.823
 8302WAT      O25147   2.610   3.891   0.601
 8302WAT     H125148   2.593   3.978   0.554
 8302WAT     H225149   2.695   3.850   0.566
 8303WAT      O25150   8.579   1.069   7.390
 8303WAT     H125151   8.647   1.047   7.320
 8303WAT     H225152   8.604   1.023   7.476
 8304WAT      O25153   8.555   2.530   7.855
 8304WAT     H125154   8.459   2.552   7.869
 8304WAT     H225155   8.593   2.490   7.939
 8305WAT      O25156   4.622   7.113   0.194
 8305WAT     H125157   4.525   7.108   0.217
 8305WAT     H225158   4.632   7.111   0.095
 8306WAT      O25159   0.144   2.046   7.698
 8306WAT     H125160   0.064   2.104   7.681
 8306WAT     H225161   0.180   2.067   7.789
 8307WAT      O25162   8.046   1.066   0.520
 8307WAT     H125163   7.955   1.046   0.483
 8307WAT     H225164   8.074   0.993   0.583
 8308WAT      O25165   5.183   5.333   8.455
 8308WAT     H125166   5.143   5.260   8.400
 8308WAT     H225167   5.140   5.420   8.430
 8309WAT      O25168   1.404   0.993   7.079
 8309WAT     H125169   1.421   0.897   7.058
 8309WAT     H225170   1.314   1.002   7.122
 8310WAT      O25171   7.471   4.133   0.608
 8310WAT     H125172   7.396   4.158   0.546
 8310WAT     H225173   7.472   4.034   0.619
 8311WAT      O25174   2.237   7.776   4.463
 8311WAT     H125175   2.293   7.711   4.412
 8311WAT     H225176   2.149   7.734   4.486
 8312WAT      O25177   7.928   4.736   8.220
 8312WAT     H125178   7.998   4.784   8.167
 8312WAT     H225179   7.873   4.803   8.271
 8313WAT      O25180   3.205   1.564   9.849
 8313WAT     H125181   3.233   1.570   9.945
 8313WAT     H225182   3.105   1.562   9.844
 8314WAT      O25183   8.582   3.449   1.706
 8314WAT     H125184   8.675   3.485   1.706
 8314WAT     H225185   8.528   3.497   1.636
 8315WAT      O25186   6.605   4.828   6.149
 8315WAT     H125187   6.578   4.826   6.245
 8315WAT     H225188   6.679   4.894   6.137
 8316WAT      O25189   6.901   4.858   0.686
 8316WAT     H125190   6.814   4.864   0.637
 8316WAT     H225191   6.884   4.828   0.780
 8317WAT      O25192   4.266   0.734   0.771
 8317WAT     H125193   4.216   0.708   0.854
 8317WAT     H225194   4.210   0.713   0.691
 8318WAT      O25195   4.719   3.198   4.166
 8318WAT     H125196   4.817   3.215   4.174
 8318WAT     H225197   4.672   3.284   4.148
 8319WAT      O25198   8.845   4.489   3.533
 8319WAT     H125199   8.837   4.566   3.469
 8319WAT     H225200   8.885   4.411   3.485
 8320WAT      O25201   6.633   7.041   7.008
 8320WAT     H125202   6.724   7.083   7.011
 8320WAT     H225203   6.601   7.026   7.102
 8321WAT      O25204   1.664   6.061   9.790
 8321WAT     H125205   1.656   6.058   9.890
 8321WAT     H225206   1.592   6.006   9.749
 8322WAT      O25207   5.013   1.613   0.905
 8322WAT     H125208   4.998   1.519   0.873
 8322WAT     H225209   5.017   1.674   0.827
 8323WAT      O25210   6.603   6.019   5.198
 8323WAT     H125211   6.512   6.052   5.222
 8323WAT     H225212   6.644   5.973   5.277
 8324WAT      O25213   7.855   4.581   1.059
 8324WAT     H125214   7.949   4.562   1.089
 8324WAT     H225215   7.794   4.576   1.138
 8325WAT      O25216   3.088   1.284   7.994
 8325WAT     H125217   3.158   1.253   8.059
 8325WAT     H225218   3.028   1.207   7.972
 8326WAT      O25219   3.536   0.290   3.513
 8326WAT     H125220   3.587   0.346   3.447
 8326WAT     H225221   3.600   0.230   3.562
 8327WAT      O25222   9.375   0.169   9.800
 8327WAT     H125223   9.347   0.264   9.807
 8327WAT     H225224   9.391   0.131   9.891
 8328WAT      O25225   1.059   7.758   7.014
 8328WAT     H125226   1.102   7.836   7.059
 8328WAT     H225227   0.960   7.773   7.009
 8329WAT      O25228   8.484   5.219   1.814
 8329WAT     H125229   8.509   5.314   1.797
 8329WAT     H225230   8.509   5.163   1.736
 8330WAT      O25231   9.102   8.341   1.963
 8330WAT     H125232   9.089   8.244   1.987
 8330WAT     H225233   9.016   8.390   1.973
 8331WAT      O25234   0.064   2.728   4.625
 8331WAT     H125235   0.069   2.768   4.716
 8331WAT     H225236   0.128   2.652   4.618
 8332WAT      O25237   1.907   8.112   9.627
 8332WAT     H125238   1.965   8.167   9.567
 8332WAT     H225239   1.958   8.030   9.656
 8333WAT      O25240   8.805   7.584   1.567
 8333WAT     H125241   8.896   7.620   1.588
 8333WAT     H225242   8.743   7.660   1.547
 8334WAT      O25243   1.083   5.548   1.182
 8334WAT     H125244   0.995   5.549   1.230
 8334WAT     H225245   1.156   5.573   1.245
 8335WAT      O25246   1.856   4.711   6.413
 8335WAT     H125247   1.834   4.745   6.321
 8335WAT     H225248   1.828   4.615   6.420
 8336WAT      O25249   8.461   8.425   1.413
 8336WAT     H125250   8.383   8.432   1.351
 8336WAT     H225251   8.428   8.399   1.504
 8337WAT      O25252   1.168   6.745   6.597
 8337WAT     H125253   1.224   6.673   6.556
 8337WAT     H225254   1.086   6.760   6.541
 8338WAT      O25255   9.734   7.516   3.879
 8338WAT     H125256   9.655   7.521   3.817
 8338WAT     H225257   9.815   7.490   3.826
 8339WAT      O25258   2.296   8.744   3.092
 8339WAT     H125259   2.341   8.665   3.135
 8339WAT     H225260   2.247   8.714   3.011
 8340WAT      O25261   2.979   6.895   5.079
 8340WAT     H125262   3.074   6.877   5.107
 8340WAT     H225263   2.972   6.990   5.049
 8341WAT      O25264   0.208   0.812   2.730
 8341WAT     H125265   0.207   0.817   2.830
 8341WAT     H225266   0.117   0.830   2.694
 8342WAT      O25267   0.111   4.306   5.082
 8342WAT     H125268   0.065   4.382   5.128
 8342WAT     H225269   0.044   4.253   5.031
 8343WAT      O25270   7.599   7.926   3.015
 8343WAT     H125271   7.690   7.903   3.047
 8343WAT     H225272   7.536   7.851   3.037
 8344WAT      O25273   1.892   9.092   4.924
 8344WAT     H125274   1.987   9.115   4.947
 8344WAT     H225275   1.870   9.128   4.834
 8345WAT      O25276   7.156   7.420   9.514
 8345WAT     H125277   7.100   7.340   9.493
 8345WAT     H225278   7.185   7.464   9.430
 8346WAT      O25279   5.251   3.236   5.849
 8346WAT     H125280   5.332   3.295   5.846
 8346WAT     H225281   5.171   3.288   5.819
 8347WAT      O25282   4.164   2.990   3.615
 8347WAT     H125283   4.137   3.085   3.633
 8347WAT     H225284   4.264   2.983   3.614
 8348WAT      O25285   7.804   6.574   6.068
 8348WAT     H125286   7.799   6.478   6.040
 8348WAT     H225287   7.715   6.617   6.057
 8349WAT      O25288   4.646   6.886   5.833
 8349WAT     H125289   4.709   6.835   5.891
 8349WAT     H225290   4.583   6.940   5.890
 8350WAT      O25291   8.578   1.303   3.516
 8350WAT     H125292   8.575   1.387   3.570
 8350WAT     H225293   8.575   1.326   3.418
 8351WAT      O25294   4.674   5.055   9.756
 8351WAT     H125295   4.707   5.053   9.661
 8351WAT     H225296   4.580   5.022   9.759
 8352WAT      O25297   2.904   6.502   5.640
 8352WAT     H125298   2.818   6.527   5.594
 8352WAT     H225299   2.944   6.422   5.595
 8353WAT      O25300   3.593   1.458   5.999
 8353WAT     H125301   3.662   1.388   6.020
 8353WAT     H225302   3.632   1.549   6.015
 8354WAT      O25303   2.116   4.690   1.356
 8354WAT     H125304   2.149   4.781   1.332
 8354WAT     H225305   2.148   4.667   1.448
 8355WAT      O25306   6.358   1.283   3.373
 8355WAT     H125307   6.355   1.306   3.471
 8355WAT     H225308   6.268   1.298   3.333
 8356WAT      O25309   0.374   4.437   6.110
 8356WAT     H125310   0.366   4.346   6.152
 8356WAT     H225311   0.362   4.507   6.181
 8357WAT      O25312   3.403   7.921   9.580
 8357WAT     H125313   3.479   7.986   9.572
 8357WAT     H225314   3.346   7.948   9.658
 8358WAT      O25315   1.773   0.269   1.860
 8358WAT     H125316   1.853   0.240   1.807
 8358WAT     H225317   1.789   0.249   1.957
 8359WAT      O25318   2.924   5.500   9.623
 8359WAT     H125319   3.010   5.506   9.674
 8359WAT     H225320   2.848   5.490   9.687
 8360WAT      O25321   0.772   4.015   5.455
 8360WAT     H125322   0.755   4.042   5.550
 8360WAT     H225323   0.688   3.980   5.415
 8361WAT      O25324   2.540   3.568   2.500
 8361WAT     H125325   2.487   3.495   2.542
 8361WAT     H225326   2.572   3.538   2.410
 8362WAT      O25327   3.752   8.045   2.458
 8362WAT     H125328   3.767   8.069   2.362
 8362WAT     H225329   3.654   8.044   2.477
 8363WAT      O25330   5.081   4.631   0.983
 8363WAT     H125331   5.033   4.651   0.898
 8363WAT     H225332   5.049   4.692   1.055
 8364WAT      O25333   9.738   6.533   7.979
 8364WAT     H125334   9.724   6.434   7.981
 8364WAT     H225335   9.773   6.560   7.889
 8365WAT      O25336   1.795   5.400   4.675
 8365WAT     H125337   1.840   5.469   4.732
 8365WAT     H225338   1.862   5.357   4.615
 8366WAT      O25339   9.647   3.828   4.099
 8366WAT     H125340   9.600   3.740   4.084
 8366WAT     H225341   9.719   3.839   4.031
 8367WAT      O25342   7.022   1.575   3.741
 8367WAT     H125343   6.969   1.554   3.659
 8367WAT     H225344   7.118   1.550   3.725
 8368WAT      O25345   5.111   4.013   4.732
 8368WAT     H125346   5.056   4.088   4.769
 8368WAT     H225347   5.187   3.994   4.793
 8369WAT      O25348   2.070   5.796   1.320
 8369WAT     H125349   2.041   5.736   1.395
 8369WAT     H225350   2.085   5.888   1.356
 8370WAT      O25351   8.076   7.934   8.064
 8370WAT     H125352   8.126   7.957   7.981
 8370WAT     H225353   8.042   7.840   8.058
 8371WAT      O25354   9.099   7.585   2.036
 8371WAT     H125355   9.137   7.630   2.116
 8371WAT     H225356   9.165   7.587   1.961
 8372WAT      O25357   0.754   3.662   4.089
 8372WAT     H125358   0.725   3.639   4.182
 8372WAT     H225359   0.704   3.743   4.057
 8373WAT      O25360   7.922   6.171   7.663
 8373WAT     H125361   8.017   6.172   7.632
 8373WAT     H225362   7.886   6.078   7.656
 8374WAT      O25363   9.592   0.685   5.806
 8374WAT     H125364   9.590   0.675   5.906
 8374WAT     H225365   9.626   0.776   5.783
 8375WAT      O25366   8.263   3.070   9.849
 8375WAT     H125367   8.210   2.986   9.853
 8375WAT     H225368   8.272   3.100   9.754
 8376WAT      O25369   5.739   1.602   1.439
 8376WAT     H125370   5.667   1.619   1.506
 8376WAT     H225371   5.769   1.688   1.398
 8377WAT      O25372   1.418   8.912   3.045
 8377WAT     H125373   1.344   8.899   3.112
 8377WAT     H225374   1.504   8.878   3.083
 8378WAT      O25375   0.482   8.297   5.326
 8378WAT     H125376   0.481   8.377   5.386
 8378WAT     H225377   0.390   8.278   5.293
 8379WAT      O25378   6.866   1.243   0.549
 8379WAT     H125379   6.944   1.245   0.487
 8379WAT     H225380   6.855   1.333   0.591
 8380WAT      O25381   7.079   5.082   0.947
 8380WAT     H125382   7.054   5.100   1.042
 8380WAT     H225383   7.166   5.033   0.944
 8381WAT      O25384   0.154   6.688   6.132
 8381WAT     H125385   0.144   6.697   6.033
 8381WAT     H225386   0.077   6.636   6.168
 8382WAT      O25387   0.763   1.171   8.429
 8382WAT     H125388   0.675   1.132   8.453
 8382WAT     H225389   0.751   1.240   8.357
 8383WAT      O25390   5.753   8.137   4.240
 8383WAT     H125391   5.715   8.193   4.167
 8383WAT     H225392   5.820   8.190   4.292
 8384WAT      O25393   8.568   8.801   0.667
 8384WAT     H125394   8.579   8.874   0.734
 8384WAT     H225395   8.470   8.780   0.656
 8385WAT      O25396   4.241   1.776   7.802
 8385WAT     H125397   4.161   1.827   7.835
 8385WAT     H225398   4.234   1.681   7.833
 8386WAT      O25399   6.560   2.627   7.921
 8386WAT     H125400   6.590   2.532   7.931
 8386WAT     H225401   6.474   2.640   7.971
 8387WAT      O25402   3.418   4.237   1.783
 8387WAT     H125403   3.337   4.295   1.787
 8387WAT     H225404   3.393   4.149   1.744
 8388WAT      O25405   9.288   7.674   8.755
 8388WAT     H125406   9.357   7.739   8.725
 8388WAT     H225407   9.236   7.641   8.676
 8389WAT      O25408   6.948   0.476   2.942
 8389WAT     H125409   6.931   0.573   2.926
 8389WAT     H225410   6.869   0.423   2.911
 8390WAT      O25411   9.038   5.388   0.548
 8390WAT     H125412   9.074   5.309   0.597
 8390WAT     H225413   8.939   5.378   0.537
 8391WAT      O25414   1.673   7.464   9.020
 8391WAT     H125415   1.601   7.463   8.950
 8391WAT     H225416   1.757   7.422   8.982
 8392WAT      O25417   8.847   3.602   5.609
 8392WAT     H125418   8.788   3.646   5.541
 8392WAT     H225419   8.868   3.668   5.682
 8393WAT      O25420   0.222   3.145   1.845
 8393WAT     H125421   0.147   3.100   1.796
 8393WAT     H225422   0.285   3.075   1.880
 8394WAT      O25423   5.268   7.942   6.806
 8394WAT     H125424   5.252   7.907   6.898
 8394WAT     H225425   5.267   7.866   6.740
 8395WAT      O25426   6.145   4.516   7.187
 8395WAT     H125427   6.110   4.584   7.252
 8395WAT     H225428   6.232   4.549   7.149
 8396WAT      O25429   3.247   0.656   4.650
 8396WAT     H125430   3.181   0.588   4.618
 8396WAT     H225431   3.222   0.745   4.612
 8397WAT      O25432   2.140   9.325   0.008
 8397WAT     H125433   2.134   9.371  -0.081
 8397WAT     H225434   2.061   9.264   0.020
 8398WAT      O25435   0.174   5.755   4.636
 8398WAT     H125436   0.259   5.805   4.620
 8398WAT     H225437   0.187   5.658   4.617
 8399WAT      O25438   1.079   7.862   4.716
 8399WAT     H125439   1.045   7.893   4.627
 8399WAT     H225440   1.007   7.811   4.764
 8400WAT      O25441   4.122   2.331   5.801
 8400WAT     H125442   4.132   2.426   5.830
 8400WAT     H225443   4.156   2.322   5.707
 8401WAT      O25444   7.266   5.543   5.057
 8401WAT     H125445   7.280   5.616   5.124
 8401WAT     H225446   7.279   5.454   5.102
 8402WAT      O25447   2.259   9.291   9.536
 8402WAT     H125448   2.259   9.318   9.439
 8402WAT     H225449   2.349   9.257   9.561
 8403WAT      O25450   6.167   7.862   5.419
 8403WAT     H125451   6.225   7.841   5.341
 8403WAT     H225452   6.072   7.838   5.398
 8404WAT      O25453   0.200   5.847   3.800
 8404WAT     H125454   0.226   5.764   3.750
 8404WAT     H225455   0.276   5.912   3.798
 8405WAT      O25456   3.910   9.681   6.680
 8405WAT     H125457   3.911   9.755   6.613
 8405WAT     H225458   3.817   9.664   6.711
 8406WAT      O25459   0.978   1.854   2.674
 8406WAT     H125460   0.986   1.908   2.591
 8406WAT     H225461   1.054   1.875   2.735
 8407WAT      O25462   1.131   2.081   6.602
 8407WAT     H125463   1.142   2.094   6.503
 8407WAT     H225464   1.107   1.986   6.621
 8408WAT      O25465   0.961   8.177   2.315
 8408WAT     H125466   0.912   8.215   2.392
 8408WAT     H225467   0.900   8.119   2.261
 8409WAT      O25468   6.904   8.703   4.594
 8409WAT     H125469   6.852   8.619   4.581
 8409WAT     H225470   6.928   8.713   4.690
 8410WAT      O25471   7.059   7.409   8.440
 8410WAT     H125472   7.022   7.474   8.373
 8410WAT     H225473   6.985   7.377   8.499
 8411WAT      O25474   4.957   5.094   7.365
 8411WAT     H125475   4.954   5.010   7.420
 8411WAT     H225476   4.961   5.070   7.268
 8412WAT      O25477   9.385   8.656   4.973
 8412WAT     H125478   9.393   8.573   4.918
 8412WAT     H225479   9.463   8.716   4.953
 8413WAT      O25480   8.824   6.270   2.156
 8413WAT     H125481   8.741   6.262   2.101
 8413WAT     H225482   8.836   6.365   2.184
 8414WAT      O25483   6.837   2.917   5.818
 8414WAT     H125484   6.811   2.883   5.727
 8414WAT     H225485   6.862   2.840   5.876
 8415WAT      O25486   3.660   1.980   7.203
 8415WAT     H125487   3.629   1.994   7.297
 8415WAT     H225488   3.583   1.986   7.140
 8416WAT      O25489   5.162   1.744   6.933
 8416WAT     H125490   5.068   1.749   6.970
 8416WAT     H225491   5.208   1.665   6.973
 8417WAT      O25492   2.993   9.588   9.221
 8417WAT     H125493   2.995   9.488   9.226
 8417WAT     H225494   2.945   9.616   9.138
 8418WAT      O25495   3.733   6.471   8.670
 8418WAT     H125496   3.706   6.429   8.584
 8418WAT     H225497   3.708   6.411   8.746
 8419WAT      O25498   5.526   5.606   1.482
 8419WAT     H125499   5.458   5.641   1.417
 8419WAT     H225500   5.562   5.519   1.449
 8420WAT      O25501   9.035   7.847   0.584
 8420WAT     H125502   8.970   7.799   0.525
 8420WAT     H225503   8.997   7.853   0.676
 8421WAT      O25504   8.008   5.815   5.388
 8421WAT     H125505   7.954   5.826   5.471
 8421WAT     H225506   8.055   5.900   5.366
 8422WAT      O25507   0.528   8.574   8.915
 8422WAT     H125508   0.486   8.643   8.973
 8422WAT     H225509   0.503   8.591   8.819
 8423WAT      O25510   4.459   1.685   1.693
 8423WAT     H125511   4.429   1.700   1.598
 8423WAT     H225512   4.440   1.767   1.747
 8424WAT      O25513   4.401   1.688   4.137
 8424WAT     H125514   4.457   1.639   4.070
 8424WAT     H225515   4.324   1.631   4.164
 8425WAT      O25516   1.753   4.069   6.966
 8425WAT     H125517   1.850   4.084   6.948
 8425WAT     H225518   1.718   4.000   6.903
 8426WAT      O25519   1.803   4.989   8.556
 8426WAT     H125520   1.795   4.892   8.536
 8426WAT     H225521   1.798   5.004   8.655
 8427WAT      O25522   4.987   8.792   7.182
 8427WAT     H125523   5.050   8.714   7.182
 8427WAT     H225524   4.965   8.817   7.277
 8428WAT      O25525   4.150   6.330   2.687
 8428WAT     H125526   4.223   6.314   2.754
 8428WAT     H225527   4.169   6.414   2.637
 8429WAT      O25528   1.989   1.215   6.807
 8429WAT     H125529   2.075   1.167   6.787
 8429WAT     H225530   1.956   1.261   6.725
 8430WAT      O25531   5.172   2.913   7.160
 8430WAT     H125532   5.224   2.991   7.126
 8430WAT     H225533   5.236   2.840   7.187
 8431WAT      O25534   7.365   3.344   8.782
 8431WAT     H125535   7.322   3.343   8.692
 8431WAT     H225536   7.343   3.429   8.829
 8432WAT      O25537   6.445   7.308   7.795
 8432WAT     H125538   6.357   7.321   7.749
 8432WAT     H225539   6.431   7.311   7.894
 8433WAT      O25540   8.909   9.590   6.150
 8433WAT     H125541   8.849   9.527   6.199
 8433WAT     H225542   8.950   9.655   6.215
 8434WAT      O25543   0.950   7.037   7.697
 8434WAT     H125544   0.905   7.102   7.636
 8434WAT     H225545   1.042   7.017   7.662
 8435WAT      O25546   7.340   3.805   6.346
 8435WAT     H125547   7.381   3.888   6.384
 8435WAT     H225548   7.370   3.726   6.399
 8436WAT      O25549   5.126   9.694   4.783
 8436WAT     H125550   5.051   9.722   4.843
 8436WAT     H225551   5.214   9.723   4.823
 8437WAT      O25552   8.908   0.085   0.320
 8437WAT     H125553   8.818   0.124   0.299
 8437WAT     H225554   8.980   0.148   0.292
 8438WAT      O25555   2.474   5.450   1.199
 8438WAT     H125556   2.501   5.449   1.103
 8438WAT     H225557   2.382   5.488   1.207
 8439WAT      O25558   8.297   4.145   5.931
 8439WAT     H125559   8.309   4.057   5.977
 8439WAT     H225560   8.250   4.131   5.844
 8440WAT      O25561   3.292   9.652   6.643
 8440WAT     H125562   3.307   9.682   6.737
 8440WAT     H225563   3.377   9.661   6.592
 8441WAT      O25564   2.676   2.325   6.927
 8441WAT     H125565   2.706   2.245   6.979
 8441WAT     H225566   2.592   2.361   6.968
 8442WAT      O25567   7.444   3.407   6.882
 8442WAT     H125568   7.426   3.422   6.979
 8442WAT     H225569   7.539   3.378   6.870
 8443WAT      O25570   2.096   0.795   4.713
 8443WAT     H125571   2.010   0.809   4.665
 8443WAT     H225572   2.167   0.768   4.648
 8444WAT      O25573   6.468   4.476   0.133
 8444WAT     H125574   6.536   4.533   0.087
 8444WAT     H225575   6.497   4.380   0.130
 8445WAT      O25576   0.638   7.787   4.086
 8445WAT     H125577   0.539   7.772   4.083
 8445WAT     H225578   0.656   7.883   4.109
 8446WAT      O25579   3.110   5.709   3.786
 8446WAT     H125580   3.169   5.654   3.845
 8446WAT     H225581   3.153   5.717   3.696
 8447WAT      O25582   1.925   5.186   3.422
 8447WAT     H125583   2.023   5.193   3.442
 8447WAT     H225584   1.881   5.272   3.444
 8448WAT      O25585   2.367   1.182   4.416
 8448WAT     H125586   2.335   1.139   4.500
 8448WAT     H225587   2.298   1.170   4.344
 8449WAT      O25588   8.099   7.271   0.287
 8449WAT     H125589   8.081   7.369   0.273
 8449WAT     H225590   8.195   7.258   0.311
 8450WAT      O25591   3.979   6.011   9.388
 8450WAT     H125592   3.934   5.924   9.408
 8450WAT     H225593   3.936   6.084   9.441
 8451WAT      O25594   5.379   0.349   0.895
 8451WAT     H125595   5.299   0.307   0.939
 8451WAT     H225596   5.438   0.389   0.965
 8452WAT      O25597   8.076   4.968   0.523
 8452WAT     H125598   8.031   4.931   0.442
 8452WAT     H225599   8.109   5.061   0.503
 8453WAT      O25600   0.589   1.439   5.809
 8453WAT     H125601   0.554   1.519   5.858
 8453WAT     H225602   0.586   1.359   5.869
 8454WAT      O25603   2.371   4.528   3.727
 8454WAT     H125604   2.309   4.552   3.653
 8454WAT     H225605   2.453   4.585   3.722
 8455WAT      O25606   5.423   3.445   4.858
 8455WAT     H125607   5.415   3.538   4.821
 8455WAT     H225608   5.495   3.396   4.809
 8456WAT      O25609   0.885   0.849   9.282
 8456WAT     H125610   0.861   0.911   9.357
 8456WAT     H225611   0.983   0.853   9.266
 8457WAT      O25612   3.820   1.128   2.495
 8457WAT     H125613   3.867   1.063   2.554
 8457WAT     H225614   3.758   1.185   2.549
 8458WAT      O25615   3.635   4.450   8.873
 8458WAT     H125616   3.707   4.489   8.816
 8458WAT     H225617   3.547   4.458   8.827
 8459WAT      O25618   3.731   4.942   8.241
 8459WAT     H125619   3.819   4.987   8.227
 8459WAT     H225620   3.736   4.883   8.322
 8460WAT      O25621   6.664   7.011   8.341
 8460WAT     H125622   6.602   7.088   8.360
 8460WAT     H225623   6.704   7.023   8.250
 8461WAT      O25624   0.274   0.420   8.551
 8461WAT     H125625   0.362   0.413   8.598
 8461WAT     H225626   0.211   0.476   8.604
 8462WAT      O25627   7.774   7.516   5.133
 8462WAT     H125628   7.825   7.599   5.153
 8462WAT     H225629   7.712   7.532   5.056
 8463WAT      O25630   4.960   4.470   1.160
 8463WAT     H125631   5.020   4.505   1.088
 8463WAT     H225632   5.001   4.488   1.249
 8464WAT      O25633   9.802   6.501   2.317
 8464WAT     H125634   9.743   6.457   2.384
 8464WAT     H225635   9.878   6.440   2.294
 8465WAT      O25636   5.642   9.623   3.323
 8465WAT     H125637   5.688   9.653   3.406
 8465WAT     H225638   5.693   9.547   3.282
 8466WAT      O25639   3.796   2.737   6.989
 8466WAT     H125640   3.761   2.692   7.071
 8466WAT     H225641   3.887   2.775   7.007
 8467WAT      O25642   9.315   2.212   1.339
 8467WAT     H125643   9.375   2.253   1.407
 8467WAT     H225644   9.332   2.254   1.250
 8468WAT      O25645   6.416   1.573   5.049
 8468WAT     H125646   6.369   1.591   4.963
 8468WAT     H225647   6.428   1.475   5.060
 8469WAT      O25648   1.684   0.052   5.691
 8469WAT     H125649   1.717   0.120   5.756
 8469WAT     H225650   1.674   0.095   5.601
 8470WAT      O25651   8.523   0.408   4.218
 8470WAT     H125652   8.432   0.438   4.190
 8470WAT     H225653   8.518   0.358   4.304
 8471WAT      O25654   8.319   5.440   9.007
 8471WAT     H125655   8.306   5.526   9.055
 8471WAT     H225656   8.403   5.444   8.953
 8472WAT      O25657   1.849   1.630   6.712
 8472WAT     H125658   1.873   1.655   6.806
 8472WAT     H225659   1.876   1.703   6.650
 8473WAT      O25660   5.952   2.667   8.320
 8473WAT     H125661   6.033   2.696   8.269
 8473WAT     H225662   5.945   2.567   8.317
 8474WAT      O25663   0.583   1.250   5.999
 8474WAT     H125664   0.492   1.252   6.041
 8474WAT     H225665   0.637   1.178   6.043
 8475WAT      O25666   5.216   8.510   7.820
 8475WAT     H125667   5.193   8.573   7.895
 8475WAT     H225668   5.245   8.563   7.740
 8476WAT      O25669   1.488   1.270   0.868
 8476WAT     H125670   1.418   1.254   0.798
 8476WAT     H225671   1.448   1.260   0.959
 8477WAT      O25672   5.632   9.666   4.612
 8477WAT     H125673   5.598   9.698   4.700
 8477WAT     H225674   5.573   9.701   4.539
 8478WAT      O25675   8.930   7.424   1.184
 8478WAT     H125676   8.999   7.412   1.113
 8478WAT     H225677   8.924   7.521   1.209
 8479WAT      O25678   6.983   4.908   7.868
 8479WAT     H125679   6.991   4.889   7.966
 8479WAT     H225680   7.073   4.929   7.831
 8480WAT      O25681   6.943   6.984   6.153
 8480WAT     H125682   6.878   6.910   6.137
 8480WAT     H225683   6.906   7.048   6.220
 8481WAT      O25684   5.909   8.239   2.222
 8481WAT     H125685   5.885   8.316   2.280
 8481WAT     H225686   5.829   8.212   2.168
 8482WAT      O25687   7.432   9.654   9.862
 8482WAT     H125688   7.351   9.595   9.859
 8482WAT     H225689   7.403   9.750   9.857
 8483WAT      O25690   9.613   7.062   7.375
 8483WAT     H125691   9.603   6.964   7.356
 8483WAT     H225692   9.523   7.106   7.372
 8484WAT      O25693   8.410   0.094   0.523
 8484WAT     H125694   8.463   0.014   0.499
 8484WAT     H225695   8.414   0.161   0.449
 8485WAT      O25696   0.977   3.334   6.006
 8485WAT     H125697   0.891   3.282   6.008
 8485WAT     H225698   0.965   3.415   5.948
 8486WAT      O25699   1.431   5.085   6.495
 8486WAT     H125700   1.388   5.149   6.558
 8486WAT     H225701   1.362   5.046   6.435
 8487WAT      O25702   2.702   7.337   4.629
 8487WAT     H125703   2.682   7.281   4.709
 8487WAT     H225704   2.729   7.278   4.553
 8488WAT      O25705   6.703   5.135   7.592
 8488WAT     H125706   6.680   5.219   7.542
 8488WAT     H225707   6.654   5.058   7.552
 8489WAT      O25708   8.626   3.836   3.844
 8489WAT     H125709   8.708   3.868   3.798
 8489WAT     H225710   8.567   3.914   3.866
 8490WAT      O25711   6.354   7.245   2.728
 8490WAT     H125712   6.373   7.329   2.677
 8490WAT     H225713   6.268   7.205   2.697
 8491WAT      O25714   8.372   2.825   7.610
 8491WAT     H125715   8.378   2.877   7.695
 8491WAT     H225716   8.464   2.815   7.571
 8492WAT      O25717   1.117   2.148   4.518
 8492WAT     H125718   1.063   2.229   4.495
 8492WAT     H225719   1.095   2.118   4.610
 8493WAT      O25720   2.062   4.970   9.681
 8493WAT     H125721   2.122   4.991   9.603
 8493WAT     H225722   2.116   4.926   9.753
 8494WAT      O25723   0.663   2.653   0.818
 8494WAT     H125724   0.705   2.701   0.741
 8494WAT     H225725   0.564   2.652   0.807
 8495WAT      O25726   0.216   5.162   8.499
 8495WAT     H125727   0.193   5.067   8.479
 8495WAT     H225728   0.239   5.171   8.596
 8496WAT      O25729   8.065   6.958   2.407
 8496WAT     H125730   7.976   6.929   2.370
 8496WAT     H225731   8.050   7.015   2.488
 8497WAT      O25732   1.648   5.751   4.872
 8497WAT     H125733   1.554   5.738   4.842
 8497WAT     H225734   1.694   5.814   4.809
 8498WAT      O25735   9.576   3.614   8.186
 8498WAT     H125736   9.591   3.647   8.092
 8498WAT     H225737   9.481   3.587   8.197
 8499WAT      O25738   6.695   4.621   2.433
 8499WAT     H125739   6.668   4.531   2.398
 8499WAT     H225740   6.618   4.663   2.481
 8500WAT      O25741   8.983   2.871   9.433
 8500WAT     H125742   9.025   2.781   9.440
 8500WAT     H225743   9.048   2.941   9.460
 8501WAT      O25744   8.439   2.121   5.586
 8501WAT     H125745   8.450   2.022   5.598
 8501WAT     H225746   8.348   2.141   5.550
 8502WAT      O25747   7.412   0.755   6.815
 8502WAT     H125748   7.325   0.744   6.766
 8502WAT     H225749   7.396   0.750   6.913
 8503WAT      O25750   5.802   8.608   6.203
 8503WAT     H125751   5.845   8.656   6.126
 8503WAT     H225752   5.703   8.608   6.191
 8504WAT      O25753   2.335   1.669   6.740
 8504WAT     H125754   2.346   1.576   6.775
 8504WAT     H225755   2.402   1.729   6.783
 8505WAT      O25756   1.365   4.365   1.863
 8505WAT     H125757   1.384   4.304   1.786
 8505WAT     H225758   1.313   4.444   1.832
 8506WAT      O25759   3.669   6.193   6.888
 8506WAT     H125760   3.700   6.155   6.801
 8506WAT     H225761   3.572   6.172   6.902
 8507WAT      O25762   6.673   8.267   1.205
 8507WAT     H125763   6.618   8.258   1.122
 8507WAT     H225764   6.626   8.327   1.270
 8508WAT      O25765   5.986   2.972   9.581
 8508WAT     H125766   5.891   2.995   9.560
 8508WAT     H225767   6.040   3.056   9.588
 8509WAT      O25768   0.727   8.895   3.241
 8509WAT     H125769   0.803   8.837   3.209
 8509WAT     H225770   0.671   8.922   3.163
 8510WAT      O25771   2.655   8.122   2.856
 8510WAT     H125772   2.734   8.093   2.801
 8510WAT     H225773   2.659   8.079   2.946
 8511WAT      O25774   9.333   0.661   7.558
 8511WAT     H125775   9.357   0.573   7.517
 8511WAT     H225776   9.253   0.699   7.510
 8512WAT      O25777   9.841   3.605   3.734
 8512WAT     H125778   9.757   3.577   3.781
 8512WAT     H225779   9.903   3.527   3.728
 8513WAT      O25780   4.261   7.080   7.583
 8513WAT     H125781   4.223   7.170   7.606
 8513WAT     H225782   4.308   7.085   7.495
 8514WAT      O25783   1.350   2.240   4.443
 8514WAT     H125784   1.255   2.220   4.467
 8514WAT     H225785   1.377   2.329   4.480
 8515WAT      O25786   9.009   8.285   2.293
 8515WAT     H125787   8.964   8.321   2.210
 8515WAT     H225788   9.051   8.360   2.343
 8516WAT      O25789   4.619   8.371   0.875
 8516WAT     H125790   4.584   8.303   0.810
 8516WAT     H225791   4.678   8.436   0.826
 8517WAT      O25792   0.799   2.350   1.483
 8517WAT     H125793   0.736   2.301   1.423
 8517WAT     H225794   0.748   2.391   1.559
 8518WAT      O25795   3.035   8.832   0.059
 8518WAT     H125796   3.025   8.839   0.158
 8518WAT     H225797   2.973   8.897   0.015
 8519WAT      O25798   4.632   9.056   6.886
 8519WAT     H125799   4.687   8.985   6.843
 8519WAT     H225800   4.535   9.034   6.876
 8520WAT      O25801   1.833   9.071   0.784
 8520WAT     H125802   1.893   9.004   0.827
 8520WAT     H225803   1.743   9.068   0.828
 8521WAT      O25804   1.028   1.285   4.749
 8521WAT     H125805   0.979   1.206   4.713
 8521WAT     H225806   0.992   1.368   4.707
 8522WAT      O25807   5.098   8.201   8.530
 8522WAT     H125808   5.087   8.105   8.554
 8522WAT     H225809   5.192   8.218   8.501
 8523WAT      O25810   2.387   9.085   8.830
 8523WAT     H125811   2.475   9.080   8.877
 8523WAT     H225812   2.366   8.996   8.790
 8524WAT      O25813   5.246   3.964   9.322
 8524WAT     H125814   5.281   3.875   9.352
 8524WAT     H225815   5.173   3.994   9.383
 8525WAT      O25816   5.977   7.353   4.357
 8525WAT     H125817   5.902   7.389   4.413
 8525WAT     H225818   6.016   7.273   4.402
 8526WAT      O25819   4.032   3.363   6.564
 8526WAT     H125820   4.031   3.309   6.479
 8526WAT     H225821   4.075   3.452   6.546
 8527WAT      O25822   5.197   9.264   1.629
 8527WAT     H125823   5.257   9.186   1.647
 8527WAT     H225824   5.253   9.344   1.608
 8528WAT      O25825   4.718   7.380   2.060
 8528WAT     H125826   4.799   7.340   2.017
 8528WAT     H225827   4.635   7.345   2.015
 8529WAT      O25828   4.849   5.033   8.108
 8529WAT     H125829   4.806   5.022   8.018
 8529WAT     H225830   4.939   4.990   8.106
 8530WAT      O25831   0.395   1.648   5.296
 8530WAT     H125832   0.439   1.727   5.253
 8530WAT     H225833   0.441   1.627   5.383
 8531WAT      O25834   1.967   4.308   7.473
 8531WAT     H125835   1.910   4.226   7.467
 8531WAT     H225836   2.063   4.281   7.482
 8532WAT      O25837   7.586   0.627   5.066
 8532WAT     H125838   7.490   0.626   5.037
 8532WAT     H225839   7.602   0.553   5.131
 8533WAT      O25840   3.328   3.993   1.678
 8533WAT     H125841   3.369   3.999   1.587
 8533WAT     H225842   3.229   3.995   1.671
 8534WAT      O25843   9.882   9.389   6.282
 8534WAT     H125844   9.944   9.415   6.356
 8534WAT     H225845   9.882   9.461   6.212
 8535WAT      O25846   2.966   1.062   4.215
 8535WAT     H125847   2.988   1.090   4.122
 8535WAT     H225848   2.967   0.962   4.221
 8536WAT      O25849   6.582   6.816   4.406
 8536WAT     H125850   6.561   6.829   4.309
 8536WAT     H225851   6.651   6.744   4.416
 8537WAT      O25852   6.932   3.973   6.711
 8537WAT     H125853   6.883   4.038   6.653
 8537WAT     H225854   6.989   3.914   6.654
 8538WAT      O25855   1.716   9.571   0.747
 8538WAT     H125856   1.705   9.471   0.741
 8538WAT     H225857   1.719   9.598   0.843
 8539WAT      O25858   8.759   8.365   1.088
 8539WAT     H125859   8.762   8.369   1.187
 8539WAT     H225860   8.682   8.308   1.059
 8540WAT      O25861   0.258   0.077   7.953
 8540WAT     H125862   0.300   0.085   7.863
 8540WAT     H225863   0.169   0.033   7.945
 8541WAT      O25864   0.478   1.673   7.643
 8541WAT     H125865   0.426   1.687   7.727
 8541WAT     H225866   0.460   1.748   7.579
 8542WAT      O25867   2.612   2.886   2.868
 8542WAT     H125868   2.523   2.841   2.858
 8542WAT     H225869   2.599   2.978   2.904
 8543WAT      O25870   8.235   2.528   8.693
 8543WAT     H125871   8.308   2.518   8.760
 8543WAT     H225872   8.212   2.625   8.683
 8544WAT      O25873   9.698   2.753   0.715
 8544WAT     H125874   9.666   2.672   0.764
 8544WAT     H225875   9.632   2.827   0.727
 8545WAT      O25876   6.562   8.254   6.097
 8545WAT     H125877   6.597   8.171   6.140
 8545WAT     H225878   6.575   8.249   5.998
 8546WAT      O25879   5.232   0.615   6.587
 8546WAT     H125880   5.254   0.553   6.662
 8546WAT     H225881   5.298   0.603   6.513
 8547WAT      O25882   2.243   5.901   4.122
 8547WAT     H125883   2.264   5.877   4.027
 8547WAT     H225884   2.296   5.981   4.148
 8548WAT      O25885   0.321   4.111   3.345
 8548WAT     H125886   0.229   4.150   3.336
 8548WAT     H225887   0.315   4.022   3.390
 8549WAT      O25888   5.170   6.207   2.917
 8549WAT     H125889   5.164   6.230   3.014
 8549WAT     H225890   5.121   6.122   2.899
 8550WAT      O25891   3.196   0.848   6.368
 8550WAT     H125892   3.153   0.797   6.443
 8550WAT     H225893   3.195   0.792   6.285
 8551WAT      O25894   5.948   9.658   9.266
 8551WAT     H125895   6.029   9.711   9.287
 8551WAT     H225896   5.914   9.683   9.175
 8552WAT      O25897   7.292   8.826   0.312
 8552WAT     H125898   7.268   8.881   0.232
 8552WAT     H225899   7.208   8.793   0.356
 8553WAT      O25900   2.655   5.085   7.480
 8553WAT     H125901   2.659   5.182   7.503
 8553WAT     H225902   2.678   5.031   7.561
 8554WAT      O25903   5.123   1.228   1.181
 8554WAT     H125904   5.034   1.242   1.224
 8554WAT     H225905   5.112   1.173   1.098
 8555WAT      O25906   9.179   7.684   0.908
 8555WAT     H125907   9.237   7.714   0.832
 8555WAT     H225908   9.165   7.760   0.971
 8556WAT      O25909   9.196   4.283   6.578
 8556WAT     H125910   9.288   4.293   6.616
 8556WAT     H225911   9.164   4.190   6.594
 8557WAT      O25912   2.318   5.704   0.259
 8557WAT     H125913   2.392   5.657   0.307
 8557WAT     H225914   2.231   5.658   0.278
 8558WAT      O25915   0.578   7.035   2.578
 8558WAT     H125916   0.655   7.033   2.642
 8558WAT     H225917   0.608   7.075   2.492
 8559WAT      O25918   0.944   4.216   1.331
 8559WAT     H125919   0.857   4.216   1.380
 8559WAT     H225920   0.990   4.128   1.344
 8560WAT      O25921   1.864   6.676   3.053
 8560WAT     H125922   1.793   6.653   2.986
 8560WAT     H225923   1.821   6.706   3.138
 8561WAT      O25924   3.282   0.316   2.284
 8561WAT     H125925   3.353   0.265   2.332
 8561WAT     H225926   3.320   0.402   2.250
 8562WAT      O25927   0.379   4.789   5.010
 8562WAT     H125928   0.286   4.760   5.035
 8562WAT     H225929   0.445   4.730   5.055
 8563WAT      O25930   6.998   9.069   6.019
 8563WAT     H125931   7.017   9.032   5.928
 8563WAT     H225932   6.938   9.149   6.010
 8564WAT      O25933   6.105   8.940   0.339
 8564WAT     H125934   6.069   9.017   0.287
 8564WAT     H225935   6.030   8.876   0.360
 8565WAT      O25936   3.439   2.391   0.417
 8565WAT     H125937   3.479   2.333   0.488
 8565WAT     H225938   3.368   2.449   0.457
 8566WAT      O25939   0.891   0.938   8.324
 8566WAT     H125940   0.873   1.005   8.396
 8566WAT     H225941   0.988   0.917   8.322
 8567WAT      O25942   0.847   3.184   5.745
 8567WAT     H125943   0.777   3.246   5.710
 8567WAT     H225944   0.937   3.219   5.721
 8568WAT      O25945   6.327   5.681   0.606
 8568WAT     H125946   6.354   5.758   0.664
 8568WAT     H225947   6.357   5.698   0.512
 8569WAT      O25948   8.273   0.704   2.319
 8569WAT     H125949   8.176   0.728   2.333
 8569WAT     H225950   8.306   0.749   2.236
 8570WAT      O25951   9.163   8.392   4.648
 8570WAT     H125952   9.175   8.492   4.649
 8570WAT     H225953   9.110   8.365   4.568
 8571WAT      O25954   1.614   1.310   0.166
 8571WAT     H125955   1.687   1.245   0.186
 8571WAT     H225956   1.644   1.372   0.093
 8572WAT      O25957   5.104   0.324   7.810
 8572WAT     H125958   5.034   0.253   7.804
 8572WAT     H225959   5.126   0.341   7.906
 8573WAT      O25960   1.330   0.049   8.733
 8573WAT     H125961   1.417   0.004   8.752
 8573WAT     H225962   1.321   0.062   8.634
 8574WAT      O25963   6.038   3.022   0.049
 8574WAT     H125964   6.118   3.017  -0.010
 8574WAT     H225965   6.056   2.973   0.134
 8575WAT      O25966   1.664   0.723   3.851
 8575WAT     H125967   1.630   0.816   3.839
 8575WAT     H225968   1.764   0.723   3.843
 8576WAT      O25969   2.108   8.800   5.903
 8576WAT     H125970   2.127   8.852   5.986
 8576WAT     H225971   2.175   8.726   5.894
 8577WAT      O25972   8.580   1.800   6.492
 8577WAT     H125973   8.488   1.836   6.476
 8577WAT     H225974   8.576   1.701   6.503
 8578WAT      O25975   6.339   0.854   5.146
 8578WAT     H125976   6.301   0.764   5.168
 8578WAT     H225977   6.332   0.913   5.226
 8579WAT      O25978   4.200   7.804   4.310
 8579WAT     H125979   4.214   7.723   4.366
 8579WAT     H225980   4.219   7.783   4.214
 8580WAT      O25981   3.150   4.470   3.011
 8580WAT     H125982   3.111   4.379   3.025
 8580WAT     H225983   3.217   4.490   3.083
 8581WAT      O25984   7.788   0.978   6.159
 8581WAT     H125985   7.816   1.070   6.190
 8581WAT     H225986   7.830   0.909   6.218
 8582WAT      O25987   4.734   1.334   2.418
 8582WAT     H125988   4.676   1.255   2.397
 8582WAT     H225989   4.782   1.363   2.335
 8583WAT      O25990   5.504   4.777   8.716
 8583WAT     H125991   5.541   4.868   8.697
 8583WAT     H225992   5.549   4.710   8.657
 8584WAT      O25993   8.187   7.515   4.967
 8584WAT     H125994   8.121   7.440   4.964
 8584WAT     H225995   8.141   7.601   4.946
 8585WAT      O25996   5.587   1.266   1.909
 8585WAT     H125997   5.514   1.199   1.919
 8585WAT     H225998   5.549   1.358   1.912
 8586WAT      O25999   9.213   2.749   4.007
 8586WAT     H126000   9.214   2.653   3.981
 8586WAT     H226001   9.227   2.805   3.925
 8587WAT      O26002   6.215   4.315   5.297
 8587WAT     H126003   6.257   4.404   5.318
 8587WAT     H226004   6.206   4.262   5.381
 8588WAT      O26005   1.969   8.396   1.448
 8588WAT     H126006   2.038   8.330   1.419
 8588WAT     H226007   1.888   8.348   1.480
 8589WAT      O26008   1.282   7.209   4.183
 8589WAT     H126009   1.321   7.120   4.204
 8589WAT     H226010   1.193   7.197   4.138
 8590WAT      O26011   6.427   8.343   7.468
 8590WAT     H126012   6.337   8.311   7.498
 8590WAT     H226013   6.469   8.273   7.410
 8591WAT      O26014   7.898   5.134   1.062
 8591WAT     H126015   7.811   5.086   1.075
 8591WAT     H226016   7.973   5.069   1.058
 8592WAT      O26017   8.096   8.446   1.549
 8592WAT     H126018   8.170   8.511   1.531
 8592WAT     H226019   8.029   8.488   1.609
 8593WAT      O26020   0.137   9.672   6.902
 8593WAT     H126021   0.066   9.712   6.844
 8593WAT     H226022   0.218   9.653   6.847
 8594WAT      O26023   9.491   0.391   7.188
 8594WAT     H126024   9.505   0.298   7.223
 8594WAT     H226025   9.475   0.386   7.089
 8595WAT      O26026   0.375   1.196   0.291
 8595WAT     H126027   0.398   1.122   0.228
 8595WAT     H226028   0.279   1.190   0.317
 8596WAT      O26029   0.122   2.927   7.745
 8596WAT     H126030   0.078   3.011   7.713
 8596WAT     H226031   0.219   2.928   7.719
 8597WAT      O26032   8.488   8.254   0.814
 8597WAT     H126033   8.412   8.313   0.788
 8597WAT     H226034   8.573   8.290   0.776
 8598WAT      O26035   4.626   8.018   6.409
 8598WAT     H126036   4.615   7.951   6.335
 8598WAT     H226037   4.722   8.022   6.436
 8599WAT      O26038   5.444   6.116   9.053
 8599WAT     H126039   5.413   6.206   9.023
 8599WAT     H226040   5.493   6.071   8.979
 8600WAT      O26041   6.646   4.041   1.130
 8600WAT     H126042   6.733   4.024   1.176
 8600WAT     H226043   6.587   4.095   1.190
 8601WAT      O26044   6.669   9.752   1.479
 8601WAT     H126045   6.716   9.695   1.546
 8601WAT     H226046   6.733   9.818   1.440
 8602WAT      O26047   1.059   1.962   4.297
 8602WAT     H126048   1.011   2.016   4.228
 8602WAT     H226049   1.086   2.021   4.373
 8603WAT      O26050   0.407   6.662   4.880
 8603WAT     H126051   0.479   6.639   4.815
 8603WAT     H226052   0.329   6.701   4.832
 8604WAT      O26053   8.096   7.467   3.598
 8604WAT     H126054   8.052   7.534   3.658
 8604WAT     H226055   8.193   7.488   3.589
 8605WAT      O26056   0.786   1.665   6.447
 8605WAT     H126057   0.831   1.701   6.529
 8605WAT     H226058   0.833   1.583   6.417
 8606WAT      O26059   1.821   8.256   0.623
 8606WAT     H126060   1.844   8.178   0.681
 8606WAT     H226061   1.845   8.341   0.669
 8607WAT      O26062   7.786   8.339   6.057
 8607WAT     H126063   7.711   8.326   5.991
 8607WAT     H226064   7.833   8.425   6.037
 8608WAT      O26065   2.163   1.320   1.548
 8608WAT     H126066   2.171   1.280   1.639
 8608WAT     H226067   2.085   1.281   1.500
 8609WAT      O26068   0.108   1.638   7.367
 8609WAT     H126069   0.144   1.731   7.381
 8609WAT     H226070   0.176   1.584   7.317
 8610WAT      O26071   3.572   5.220   8.910
 8610WAT     H126072   3.527   5.276   8.980
 8610WAT     H226073   3.557   5.123   8.931
 8611WAT      O26074   7.286   9.599   5.086
 8611WAT     H126075   7.286   9.638   5.178
 8611WAT     H226076   7.375   9.557   5.068
 8612WAT      O26077   9.098   1.502   4.803
 8612WAT     H126078   9.087   1.437   4.729
 8612WAT     H226079   9.051   1.469   4.885
 8613WAT      O26080   3.627   7.176   0.961
 8613WAT     H126081   3.609   7.097   1.018
 8613WAT     H226082   3.704   7.157   0.900
 8614WAT      O26083   9.679   0.761   6.940
 8614WAT     H126084   9.643   0.817   7.014
 8614WAT     H226085   9.764   0.717   6.970
 8615WAT      O26086   8.363   3.352   3.864
 8615WAT     H126087   8.430   3.348   3.938
 8615WAT     H226088   8.353   3.447   3.833
 8616WAT      O26089   4.613   8.184   4.046
 8616WAT     H126090   4.707   8.158   4.025
 8616WAT     H226091   4.611   8.282   4.069
 8617WAT      O26092   4.045   1.989   4.932
 8617WAT     H126093   4.001   2.022   5.015
 8617WAT     H226094   4.130   2.040   4.917
 8618WAT      O26095   9.225   3.643   6.493
 8618WAT     H126096   9.143   3.697   6.510
 8618WAT     H226097   9.199   3.555   6.453
 8619WAT      O26098   1.417   2.694   5.019
 8619WAT     H126099   1.457   2.773   5.066
 8619WAT     H226100   1.333   2.666   5.066
 8620WAT      O26101   2.481   0.638   4.970
 8620WAT     H126102   2.403   0.689   5.006
 8620WAT     H226103   2.564   0.663   5.019
 8621WAT      O26104   5.174   6.524   3.070
 8621WAT     H126105   5.216   6.446   3.117
 8621WAT     H226106   5.198   6.520   2.973
 8622WAT      O26107   6.559   1.429   6.103
 8622WAT     H126108   6.462   1.447   6.091
 8622WAT     H226109   6.608   1.516   6.112
 8623WAT      O26110   5.990   5.644   0.939
 8623WAT     H126111   5.978   5.555   0.984
 8623WAT     H226112   6.018   5.712   1.007
 8624WAT      O26113   7.529   5.204   7.742
 8624WAT     H126114   7.556   5.246   7.829
 8624WAT     H226115   7.595   5.134   7.716
 8625WAT      O26116   0.993   9.753   2.942
 8625WAT     H126117   1.057   9.759   3.019
 8625WAT     H226118   0.928   9.679   2.959
 8626WAT      O26119   2.023   2.463   3.369
 8626WAT     H126120   1.928   2.458   3.339
 8626WAT     H226121   2.076   2.515   3.302
 8627WAT      O26122   5.937   3.269   8.354
 8627WAT     H126123   5.874   3.300   8.425
 8627WAT     H226124   5.891   3.203   8.294
 8628WAT      O26125   4.804   5.428   3.775
 8628WAT     H126126   4.760   5.484   3.846
 8628WAT     H226127   4.903   5.432   3.786
 8629WAT      O26128   1.271   3.801   2.795
 8629WAT     H126129   1.174   3.825   2.786
 8629WAT     H226130   1.306   3.769   2.707
 8630WAT      O26131   3.503   2.125   1.934
 8630WAT     H126132   3.529   2.212   1.976
 8630WAT     H226133   3.581   2.086   1.886
 8631WAT      O26134   5.949   2.719   1.218
 8631WAT     H126135   5.933   2.809   1.179
 8631WAT     H226136   5.977   2.729   1.314
 8632WAT      O26137   3.386   5.677   5.447
 8632WAT     H126138   3.465   5.618   5.466
 8632WAT     H226139   3.380   5.749   5.517
 8633WAT      O26140   5.711   8.375   8.434
 8633WAT     H126141   5.738   8.401   8.527
 8633WAT     H226142   5.788   8.388   8.372
 8634WAT      O26143   7.030   2.698   9.166
 8634WAT     H126144   6.979   2.732   9.087
 8634WAT     H226145   7.124   2.734   9.163
 8635WAT      O26146   3.457   7.525   4.316
 8635WAT     H126147   3.499   7.487   4.233
 8635WAT     H226148   3.359   7.539   4.300
 8636WAT      O26149   3.286   1.015   2.906
 8636WAT     H126150   3.215   1.086   2.911
 8636WAT     H226151   3.285   0.961   2.991
 8637WAT      O26152   6.441   8.145   2.086
 8637WAT     H126153   6.423   8.244   2.091
 8637WAT     H226154   6.371   8.096   2.137
 8638WAT      O26155   6.615   8.215   5.815
 8638WAT     H126156   6.700   8.195   5.766
 8638WAT     H226157   6.544   8.239   5.749
 8639WAT      O26158   3.700   9.032   8.202
 8639WAT     H126159   3.737   8.940   8.212
 8639WAT     H226160   3.672   9.067   8.291
 8640WAT      O26161   1.738   5.697   4.221
 8640WAT     H126162   1.717   5.787   4.259
 8640WAT     H226163   1.774   5.638   4.293
 8641WAT      O26164   4.269   5.560   5.410
 8641WAT     H126165   4.183   5.508   5.407
 8641WAT     H226166   4.344   5.501   5.377
 8642WAT      O26167   5.158   2.782   4.598
 8642WAT     H126168   5.147   2.853   4.528
 8642WAT     H226169   5.070   2.738   4.615
 8643WAT      O26170   1.974   8.511   5.172
 8643WAT     H126171   1.881   8.510   5.136
 8643WAT     H226172   2.035   8.463   5.109
 8644WAT      O26173   9.182   7.044   4.516
 8644WAT     H126174   9.196   7.003   4.426
 8644WAT     H226175   9.212   6.981   4.587
 8645WAT      O26176   7.990   5.425   1.729
 8645WAT     H126177   7.959   5.349   1.671
 8645WAT     H226178   8.047   5.486   1.675
 8646WAT      O26179   4.173   6.654   2.185
 8646WAT     H126180   4.215   6.745   2.183
 8646WAT     H226181   4.243   6.585   2.170
 8647WAT      O26182   0.337   5.049   5.270
 8647WAT     H126183   0.402   5.032   5.196
 8647WAT     H226184   0.357   4.989   5.347
 8648WAT      O26185   2.555   4.203   9.849
 8648WAT     H126186   2.630   4.235   9.791
 8648WAT     H226187   2.477   4.264   9.840
 8649WAT      O26188   5.079   4.650   1.338
 8649WAT     H126189   5.164   4.702   1.348
 8649WAT     H226190   5.017   4.698   1.277
 8650WAT      O26191   2.753   0.806   4.009
 8650WAT     H126192   2.690   0.765   3.943
 8650WAT     H226193   2.717   0.797   4.101
 8651WAT      O26194   0.075   3.573   5.840
 8651WAT     H126195   0.174   3.579   5.827
 8651WAT     H226196   0.030   3.571   5.751
 8652WAT      O26197   9.381   7.855   2.005
 8652WAT     H126198   9.468   7.820   2.038
 8652WAT     H226199   9.355   7.806   1.922
 8653WAT      O26200   1.659   3.950   0.554
 8653WAT     H126201   1.696   3.879   0.614
 8653WAT     H226202   1.592   4.005   0.604
 8654WAT      O26203   7.526   1.679   8.935
 8654WAT     H126204   7.625   1.682   8.943
 8654WAT     H226205   7.485   1.692   9.026
 8655WAT      O26206   1.501   1.159   5.852
 8655WAT     H126207   1.409   1.122   5.852
 8655WAT     H226208   1.567   1.084   5.844
 8656WAT      O26209   0.124   7.502   4.795
 8656WAT     H126210   0.136   7.574   4.864
 8656WAT     H226211   0.213   7.480   4.755
 8657WAT      O26212   4.065   3.160   9.309
 8657WAT     H126213   4.126   3.082   9.290
 8657WAT     H226214   3.978   3.145   9.261
 8658WAT      O26215   8.533   6.117   1.118
 8658WAT     H126216   8.548   6.198   1.062
 8658WAT     H226217   8.494   6.044   1.061
 8659WAT      O26218   5.294   0.575   3.303
 8659WAT     H126219   5.263   0.610   3.215
 8659WAT     H226220   5.370   0.511   3.288
 8660WAT      O26221   8.736   2.600   3.208
 8660WAT     H126222   8.731   2.682   3.151
 8660WAT     H226223   8.668   2.605   3.281
 8661WAT      O26224   9.296   2.383   4.137
 8661WAT     H126225   9.272   2.430   4.052
 8661WAT     H226226   9.225   2.316   4.159
 8662WAT      O26227   2.939   0.216   5.972
 8662WAT     H126228   3.019   0.227   6.031
 8662WAT     H226229   2.879   0.145   6.010
 8663WAT      O26230   2.097   9.661   5.076
 8663WAT     H126231   2.030   9.659   5.150
 8663WAT     H226232   2.082   9.582   5.016
 8664WAT      O26233   0.068   8.930   6.164
 8664WAT     H126234   0.000   8.858   6.180
 8664WAT     H226235   0.024   9.008   6.120
 8665WAT      O26236   5.159   9.702   0.622
 8665WAT     H126237   5.229   9.763   0.659
 8665WAT     H226238   5.109   9.748   0.549
 8666WAT      O26239   6.300   5.848   8.708
 8666WAT     H126240   6.225   5.905   8.675
 8666WAT     H226241   6.263   5.764   8.748
 8667WAT      O26242   3.873   0.929   4.467
 8667WAT     H126243   3.891   1.000   4.536
 8667WAT     H226244   3.919   0.953   4.382
 8668WAT      O26245   6.672   0.627   2.331
 8668WAT     H126246   6.631   0.709   2.373
 8668WAT     H226247   6.631   0.612   2.241
 8669WAT      O26248   1.322   8.978   7.445
 8669WAT     H126249   1.332   9.049   7.514
 8669WAT     H226250   1.379   8.899   7.469
 8670WAT      O26251   0.473   7.600   9.534
 8670WAT     H126252   0.430   7.588   9.624
 8670WAT     H226253   0.542   7.529   9.520
 8671WAT      O26254   1.984   9.712   1.937
 8671WAT     H126255   2.051   9.773   1.979
 8671WAT     H226256   1.948   9.650   2.007
 8672WAT      O26257   7.401   1.130   6.717
 8672WAT     H126258   7.385   1.107   6.622
 8672WAT     H226259   7.475   1.073   6.754
 8673WAT      O26260   2.703   6.836   6.385
 8673WAT     H126261   2.716   6.746   6.345
 8673WAT     H226262   2.791   6.873   6.414
 8674WAT      O26263   7.457   7.054   2.169
 8674WAT     H126264   7.364   7.020   2.175
 8674WAT     H226265   7.457   7.154   2.180
 8675WAT      O26266   9.747   0.512   4.047
 8675WAT     H126267   9.782   0.419   4.035
 8675WAT     H226268   9.699   0.519   4.134
 8676WAT      O26269   6.942   6.522   2.336
 8676WAT     H126270   6.861   6.581   2.345
 8676WAT     H226271   6.946   6.484   2.244
 8677WAT      O26272   3.395   4.861   6.813
 8677WAT     H126273   3.359   4.902   6.730
 8677WAT     H226274   3.456   4.925   6.859
 8678WAT      O26275   1.922   1.139   0.631
 8678WAT     H126276   1.840   1.115   0.578
 8678WAT     H226277   1.895   1.192   0.711
 8679WAT      O26278   8.706   5.014   1.217
 8679WAT     H126279   8.744   5.083   1.278
 8679WAT     H226280   8.685   5.056   1.128
 8680WAT      O26281   9.710   4.403   4.337
 8680WAT     H126282   9.779   4.332   4.355
 8680WAT     H226283   9.635   4.363   4.284
 8681WAT      O26284   8.689   2.662   6.482
 8681WAT     H126285   8.592   2.640   6.492
 8681WAT     H226286   8.745   2.585   6.512
 8682WAT      O26287   8.813   7.808   4.126
 8682WAT     H126288   8.767   7.773   4.044
 8682WAT     H226289   8.912   7.795   4.117
 8683WAT      O26290   6.484   7.839   6.953
 8683WAT     H126291   6.525   7.921   6.994
 8683WAT     H226292   6.386   7.840   6.970
 8684WAT      O26293   8.157   9.486   8.546
 8684WAT     H126294   8.202   9.533   8.622
 8684WAT     H226295   8.137   9.391   8.572
 8685WAT      O26296   9.631   1.524   8.059
 8685WAT     H126297   9.620   1.462   7.982
 8685WAT     H226298   9.559   1.506   8.126
 8686WAT      O26299   8.535   7.131   0.058
 8686WAT     H126300   8.485   7.112   0.142
 8686WAT     H226301   8.626   7.091   0.063
 8687WAT      O26302   0.935   1.101   4.951
 8687WAT     H126303   0.966   1.182   4.900
 8687WAT     H226304   0.899   1.130   5.039
 8688WAT      O26305   0.002   5.352   3.309
 8688WAT     H126306   0.041   5.314   3.393
 8688WAT     H226307   0.010   5.285   3.235
 8689WAT      O26308   0.876   9.118   1.720
 8689WAT     H126309   0.877   9.039   1.659
 8689WAT     H226310   0.968   9.158   1.724
 8690WAT      O26311   3.198   7.854   4.845
 8690WAT     H126312   3.208   7.768   4.794
 8690WAT     H226313   3.113   7.851   4.897
 8691WAT      O26314   2.821   2.833   4.541
 8691WAT     H126315   2.835   2.822   4.442
 8691WAT     H226316   2.904   2.872   4.582
 8692WAT      O26317   1.645   1.336   3.370
 8692WAT     H126318   1.622   1.383   3.285
 8692WAT     H226319   1.586   1.368   3.443
 8693WAT      O26320   3.976   3.803   2.614
 8693WAT     H126321   4.003   3.708   2.597
 8693WAT     H226322   4.031   3.840   2.689
 8694WAT      O26323   4.797   3.274   5.223
 8694WAT     H126324   4.775   3.319   5.137
 8694WAT     H226325   4.720   3.283   5.287
 8695WAT      O26326   0.239   2.038   9.585
 8695WAT     H126327   0.234   2.136   9.566
 8695WAT     H226328   0.147   2.002   9.602
 8696WAT      O26329   1.988   6.404   0.909
 8696WAT     H126330   2.054   6.474   0.882
 8696WAT     H226331   2.033   6.339   0.970
 8697WAT      O26332   5.699   2.686   9.575
 8697WAT     H126333   5.620   2.626   9.590
 8697WAT     H226334   5.699   2.717   9.480
 8698WAT      O26335   0.949   1.724   2.387
 8698WAT     H126336   0.943   1.767   2.477
 8698WAT     H226337   1.042   1.731   2.352
 8699WAT      O26338   1.033   0.593   2.794
 8699WAT     H126339   0.965   0.644   2.740
 8699WAT     H226340   1.124   0.631   2.777
 8700WAT      O26341   5.389   5.305   8.616
 8700WAT     H126342   5.308   5.308   8.558
 8700WAT     H226343   5.384   5.377   8.685
 8701WAT      O26344   4.924   1.763   1.128
 8701WAT     H126345   4.945   1.704   1.051
 8701WAT     H226346   4.825   1.761   1.146
 8702WAT      O26347   4.257   6.818   2.958
 8702WAT     H126348   4.347   6.818   3.002
 8702WAT     H226349   4.261   6.874   2.876
 8703WAT      O26350   5.430   4.635   2.578
 8703WAT     H126351   5.498   4.645   2.505
 8703WAT     H226352   5.390   4.544   2.574
 8704WAT      O26353   8.435   9.479   6.196
 8704WAT     H126354   8.489   9.479   6.280
 8704WAT     H226355   8.491   9.447   6.120
 8705WAT      O26356   9.396   5.174   6.234
 8705WAT     H126357   9.381   5.239   6.308
 8705WAT     H226358   9.325   5.103   6.237
 8706WAT      O26359   9.037   6.751   8.936
 8706WAT     H126360   9.032   6.793   8.845
 8706WAT     H226361   9.025   6.821   9.006
 8707WAT      O26362   5.901   1.312   8.728
 8707WAT     H126363   5.824   1.336   8.787
 8707WAT     H226364   5.984   1.303   8.784
 8708WAT      O26365   7.166   9.037   8.192
 8708WAT     H126366   7.177   9.135   8.176
 8708WAT     H226367   7.152   9.020   8.289
 8709WAT      O26368   2.678   1.899   6.195
 8709WAT     H126369   2.613   1.886   6.269
 8709WAT     H226370   2.723   1.988   6.204
 8710WAT      O26371   5.812   6.656   7.503
 8710WAT     H126372   5.890   6.637   7.443
 8710WAT     H226373   5.742   6.586   7.489
 8711WAT      O26374   3.114   0.144   3.179
 8711WAT     H126375   3.092   0.083   3.255
 8711WAT     H226376   3.212   0.165   3.180
 8712WAT      O26377   2.714   4.809   7.550
 8712WAT     H126378   2.623   4.767   7.548
 8712WAT     H226379   2.746   4.824   7.457
 8713WAT      O26380   6.952   6.309   6.658
 8713WAT     H126381   6.860   6.329   6.691
 8713WAT     H226382   6.987   6.387   6.607
 8714WAT      O26383   5.202   6.640   7.439
 8714WAT     H126384   5.187   6.637   7.340
 8714WAT     H226385   5.116   6.625   7.486
 8715WAT      O26386   4.018   6.331   1.054
 8715WAT     H126387   3.928   6.374   1.067
 8715WAT     H226388   4.019   6.242   1.099
 8716WAT      O26389   8.745   9.311   3.142
 8716WAT     H126390   8.810   9.296   3.217
 8716WAT     H226391   8.795   9.327   3.057
 8717WAT      O26392   7.143   4.239   6.771
 8717WAT     H126393   7.096   4.273   6.690
 8717WAT     H226394   7.139   4.309   6.843
 8718WAT      O26395   0.705   4.759   8.726
 8718WAT     H126396   0.725   4.854   8.701
 8718WAT     H226397   0.713   4.748   8.825
 8719WAT      O26398   5.214   5.408   2.044
 8719WAT     H126399   5.148   5.473   2.081
 8719WAT     H226400   5.195   5.391   1.948
 8720WAT      O26401   2.649   4.519   7.766
 8720WAT     H126402   2.605   4.581   7.701
 8720WAT     H226403   2.638   4.556   7.859
 8721WAT      O26404   5.297   3.100   5.444
 8721WAT     H126405   5.342   3.088   5.355
 8721WAT     H226406   5.366   3.108   5.516
 8722WAT      O26407   0.708   5.275   3.097
 8722WAT     H126408   0.738   5.361   3.056
 8722WAT     H226409   0.699   5.286   3.195
 8723WAT      O26410   2.416   7.604   5.254
 8723WAT     H126411   2.503   7.570   5.220
 8723WAT     H226412   2.346   7.593   5.184
 8724WAT      O26413   4.227   3.701   7.205
 8724WAT     H126414   4.324   3.696   7.185
 8724WAT     H226415   4.193   3.609   7.227
 8725WAT      O26416   9.552   6.000   1.489
 8725WAT     H126417   9.499   6.085   1.486
 8725WAT     H226418   9.498   5.930   1.536
 8726WAT      O26419   7.600   0.038   4.425
 8726WAT     H126420   7.502   0.021   4.414
 8726WAT     H226421   7.641   0.056   4.336
 8727WAT      O26422   6.549   2.212   9.480
 8727WAT     H126423   6.516   2.124   9.447
 8727WAT     H226424   6.646   2.205   9.504
 8728WAT      O26425   3.896   4.669   9.408
 8728WAT     H126426   3.956   4.590   9.398
 8728WAT     H226427   3.908   4.730   9.330
 8729WAT      O26428   4.975   1.418   1.941
 8729WAT     H126429   5.041   1.344   1.926
 8729WAT     H226430   4.985   1.486   1.868
 8730WAT      O26431   5.542   7.851   6.874
 8730WAT     H126432   5.543   7.767   6.820
 8730WAT     H226433   5.454   7.898   6.860
 8731WAT      O26434   8.068   9.247   4.240
 8731WAT     H126435   8.080   9.321   4.174
 8731WAT     H226436   7.973   9.245   4.270
 8732WAT      O26437   7.057   6.612   7.738
 8732WAT     H126438   7.140   6.557   7.741
 8732WAT     H226439   7.023   6.626   7.831
 8733WAT      O26440   4.482   6.853   3.099
 8733WAT     H126441   4.543   6.812   3.167
 8733WAT     H226442   4.510   6.948   3.083
 8734WAT      O26443   3.429   7.736   6.579
 8734WAT     H126444   3.358   7.721   6.510
 8734WAT     H226445   3.518   7.737   6.535
 8735WAT      O26446   4.814   2.078   2.985
 8735WAT     H126447   4.802   2.151   3.051
 8735WAT     H226448   4.905   2.036   2.996
 8736WAT      O26449   6.475   0.763   2.959
 8736WAT     H126450   6.382   0.797   2.945
 8736WAT     H226451   6.511   0.725   2.874
 8737WAT      O26452   1.391   3.538   8.882
 8737WAT     H126453   1.416   3.618   8.827
 8737WAT     H226454   1.415   3.455   8.833
 8738WAT      O26455   7.935   3.101   8.006
 8738WAT     H126456   7.919   3.034   8.079
 8738WAT     H226457   7.972   3.054   7.925
 8739WAT      O26458   2.171   2.296   3.501
 8739WAT     H126459   2.260   2.333   3.529
 8739WAT     H226460   2.115   2.369   3.462
 8740WAT      O26461   6.859   4.181   0.697
 8740WAT     H126462   6.851   4.228   0.610
 8740WAT     H226463   6.917   4.100   0.686
 8741WAT      O26464   7.103   4.404   2.365
 8741WAT     H126465   7.061   4.443   2.447
 8741WAT     H226466   7.083   4.461   2.286
 8742WAT      O26467   5.057   2.626   5.074
 8742WAT     H126468   5.029   2.535   5.104
 8742WAT     H226469   5.127   2.617   5.004
 8743WAT      O26470   5.407   6.937   0.210
 8743WAT     H126471   5.360   6.908   0.294
 8743WAT     H226472   5.391   7.035   0.196
 8744WAT      O26473   6.014   9.194   0.196
 8744WAT     H126474   5.926   9.209   0.151
 8744WAT     H226475   6.088   9.230   0.138
 8745WAT      O26476   7.428   2.619   9.639
 8745WAT     H126477   7.453   2.676   9.561
 8745WAT     H226478   7.508   2.608   9.699
 8746WAT      O26479   8.729   3.004   2.704
 8746WAT     H126480   8.777   3.032   2.787
 8746WAT     H226481   8.638   2.972   2.728
 8747WAT      O26482   7.427   9.678   3.899
 8747WAT     H126483   7.332   9.658   3.919
 8747WAT     H226484   7.433   9.737   3.819
 8748WAT      O26485   8.409   2.807   4.631
 8748WAT     H126486   8.435   2.874   4.700
 8748WAT     H226487   8.467   2.818   4.550
 8749WAT      O26488   1.637   3.154   5.151
 8749WAT     H126489   1.712   3.198   5.102
 8749WAT     H226490   1.599   3.217   5.219
 8750WAT      O26491   2.673   8.418   1.036
 8750WAT     H126492   2.683   8.435   0.938
 8750WAT     H226493   2.685   8.321   1.055
 8751WAT      O26494   2.528   7.487   3.042
 8751WAT     H126495   2.428   7.496   3.043
 8751WAT     H226496   2.567   7.541   3.117
 8752WAT      O26497   5.611   9.383   8.007
 8752WAT     H126498   5.660   9.405   8.091
 8752WAT     H226499   5.555   9.302   8.021
 8753WAT      O26500   3.415   5.230   0.577
 8753WAT     H126501   3.496   5.174   0.594
 8753WAT     H226502   3.363   5.239   0.662
 8754WAT      O26503   3.733   9.280   5.228
 8754WAT     H126504   3.735   9.183   5.206
 8754WAT     H226505   3.642   9.307   5.258
 8755WAT      O26506   1.323   3.766   4.457
 8755WAT     H126507   1.397   3.822   4.494
 8755WAT     H226508   1.235   3.804   4.486
 8756WAT      O26509   9.577   7.179   9.102
 8756WAT     H126510   9.550   7.107   9.039
 8756WAT     H226511   9.645   7.144   9.166
 8757WAT      O26512   7.531   5.686   2.714
 8757WAT     H126513   7.610   5.658   2.658
 8757WAT     H226514   7.556   5.766   2.769
 8758WAT      O26515   9.586   9.834   0.850
 8758WAT     H126516   9.499   9.784   0.848
 8758WAT     H226517   9.618   9.841   0.945
 8759WAT      O26518   3.470   6.497   3.784
 8759WAT     H126519   3.416   6.501   3.699
 8759WAT     H226520   3.424   6.439   3.851
 8760WAT      O26521   9.394   4.466   6.960
 8760WAT     H126522   9.340   4.524   7.021
 8760WAT     H226523   9.430   4.522   6.885
 8761WAT      O26524   8.097   4.875   1.764
 8761WAT     H126525   8.114   4.964   1.805
 8761WAT     H226526   8.025   4.828   1.815
 8762WAT      O26527   9.387   4.332   8.852
 8762WAT     H126528   9.486   4.338   8.840
 8762WAT     H226529   9.356   4.405   8.912
 8763WAT      O26530   2.312   2.845   1.826
 8763WAT     H126531   2.340   2.882   1.737
 8763WAT     H226532   2.220   2.877   1.848
 8764WAT      O26533   5.240   8.316   2.091
 8764WAT     H126534   5.241   8.312   1.991
 8764WAT     H226535   5.215   8.409   2.121
 8765WAT      O26536   1.529   9.092   8.741
 8765WAT     H126537   1.442   9.106   8.694
 8765WAT     H226538   1.593   9.044   8.680
 8766WAT      O26539   2.834   5.366   4.216
 8766WAT     H126540   2.821   5.463   4.196
 8766WAT     H226541   2.896   5.326   4.148
 8767WAT      O26542   7.099   8.054   1.440
 8767WAT     H126543   7.091   7.954   1.441
 8767WAT     H226544   7.158   8.081   1.364
 8768WAT      O26545   5.301   1.628   9.782
 8768WAT     H126546   5.216   1.627   9.835
 8768WAT     H226547   5.300   1.552   9.717
 8769WAT      O26548   7.020   3.884   9.785
 8769WAT     H126549   7.070   3.873   9.871
 8769WAT     H226550   7.081   3.863   9.708
 8770WAT      O26551   9.432   7.437   5.166
 8770WAT     H126552   9.446   7.471   5.259
 8770WAT     H226553   9.473   7.347   5.157
 8771WAT      O26554   9.621   2.386   3.429
 8771WAT     H126555   9.632   2.287   3.438
 8771WAT     H226556   9.652   2.431   3.513
 8772WAT      O26557   2.039   5.936   3.420
 8772WAT     H126558   1.964   5.897   3.473
 8772WAT     H226559   2.006   6.016   3.370
 8773WAT      O26560   0.459   5.049   0.018
 8773WAT     H126561   0.448   5.069  -0.079
 8773WAT     H226562   0.503   4.960   0.029
 8774WAT      O26563   7.559   0.739   4.682
 8774WAT     H126564   7.658   0.727   4.685
 8774WAT     H226565   7.523   0.705   4.595
 8775WAT      O26566   4.206   7.553   6.970
 8775WAT     H126567   4.264   7.512   7.041
 8775WAT     H226568   4.262   7.573   6.890
 8776WAT      O26569   0.455   0.984   2.926
 8776WAT     H126570   0.387   0.926   2.970
 8776WAT     H226571   0.509   0.930   2.862
 8777WAT      O26572   8.485   3.039   5.248
 8777WAT     H126573   8.386   3.052   5.241
 8777WAT     H226574   8.525   3.118   5.294
 8778WAT      O26575   5.230   5.658   0.245
 8778WAT     H126576   5.330   5.645   0.244
 8778WAT     H226577   5.186   5.569   0.260
 8779WAT      O26578   5.367   7.909   8.802
 8779WAT     H126579   5.340   7.928   8.707
 8779WAT     H226580   5.329   7.979   8.862
 8780WAT      O26581   8.225   1.358   2.488
 8780WAT     H126582   8.158   1.399   2.426
 8780WAT     H226583   8.179   1.291   2.547
 8781WAT      O26584   9.534   8.422   1.241
 8781WAT     H126585   9.440   8.451   1.260
 8781WAT     H226586   9.591   8.503   1.224
 8782WAT      O26587   8.529   1.668   3.946
 8782WAT     H126588   8.621   1.693   3.918
 8782WAT     H226589   8.510   1.574   3.918
 8783WAT      O26590   1.056   3.122   1.156
 8783WAT     H126591   1.144   3.153   1.191
 8783WAT     H226592   1.050   3.142   1.058
 8784WAT      O26593   6.606   9.294   0.022
 8784WAT     H126594   6.525   9.258  -0.024
 8784WAT     H226595   6.613   9.252   0.113
 8785WAT      O26596   2.679   8.683   4.162
 8785WAT     H126597   2.683   8.769   4.111
 8785WAT     H226598   2.764   8.632   4.149
 8786WAT      O26599   9.402   1.399   7.588
 8786WAT     H126600   9.319   1.399   7.643
 8786WAT     H226601   9.413   1.488   7.544
 8787WAT      O26602   8.090   6.330   9.740
 8787WAT     H126603   8.167   6.278   9.776
 8787WAT     H226604   8.104   6.427   9.757
 8788WAT      O26605   8.058   0.605   1.911
 8788WAT     H126606   8.146   0.650   1.894
 8788WAT     H226607   8.072   0.529   1.974
 8789WAT      O26608   8.173   8.508   3.589
 8789WAT     H126609   8.165   8.606   3.572
 8789WAT     H226610   8.136   8.486   3.679
 8790WAT      O26611   6.819   4.423   0.282
 8790WAT     H126612   6.853   4.353   0.345
 8790WAT     H226613   6.747   4.476   0.328
 8791WAT      O26614   6.652   4.861   1.117
 8791WAT     H126615   6.560   4.900   1.115
 8791WAT     H226616   6.650   4.776   1.170
 8792WAT      O26617   8.654   3.249   1.897
 8792WAT     H126618   8.743   3.223   1.859
 8792WAT     H226619   8.606   3.307   1.832
 8793WAT      O26620   2.834   7.406   0.175
 8793WAT     H126621   2.845   7.499   0.210
 8793WAT     H226622   2.751   7.365   0.215
 8794WAT      O26623   7.209   3.892   5.669
 8794WAT     H126624   7.190   3.970   5.609
 8794WAT     H226625   7.183   3.915   5.762
 8795WAT      O26626   0.418   9.420   8.312
 8795WAT     H126627   0.422   9.361   8.231
 8795WAT     H226628   0.466   9.375   8.388
 8796WAT      O26629   9.391   0.877   9.634
 8796WAT     H126630   9.456   0.875   9.710
 8796WAT     H226631   9.397   0.965   9.588
 8797WAT      O26632   3.909   4.847   9.182
 8797WAT     H126633   3.864   4.763   9.149
 8797WAT     H226634   3.840   4.918   9.196
 8798WAT      O26635   8.927   8.588   7.686
 8798WAT     H126636   8.870   8.570   7.766
 8798WAT     H226637   8.903   8.677   7.646
 8799WAT      O26638   6.082   1.416   4.597
 8799WAT     H126639   6.179   1.419   4.618
 8799WAT     H226640   6.068   1.436   4.500
 8800WAT      O26641   3.181   5.856   0.547
 8800WAT     H126642   3.086   5.857   0.579
 8800WAT     H226643   3.242   5.862   0.626
 8801WAT      O26644   4.083   4.919   8.954
 8801WAT     H126645   4.003   4.864   8.978
 8801WAT     H226646   4.112   4.972   9.033
 8802WAT      O26647   6.875   2.252   2.450
 8802WAT     H126648   6.800   2.312   2.480
 8802WAT     H226649   6.848   2.204   2.367
 8803WAT      O26650   2.668   2.150   7.717
 8803WAT     H126651   2.659   2.249   7.711
 8803WAT     H226652   2.649   2.121   7.811
 8804WAT      O26653   9.582   4.559   0.812
 8804WAT     H126654   9.493   4.514   0.819
 8804WAT     H226655   9.591   4.626   0.885
 8805WAT      O26656   7.756   0.454   7.483
 8805WAT     H126657   7.667   0.420   7.452
 8805WAT     H226658   7.790   0.523   7.418
 8806WAT      O26659   0.381   9.650   8.062
 8806WAT     H126660   0.384   9.603   8.150
 8806WAT     H226661   0.292   9.635   8.020
 8807WAT      O26662   1.735   2.549   3.002
 8807WAT     H126663   1.772   2.485   2.934
 8807WAT     H226664   1.640   2.571   2.979
 8808WAT      O26665   8.721   0.478   6.089
 8808WAT     H126666   8.694   0.531   6.169
 8808WAT     H226667   8.820   0.463   6.091
 8809WAT      O26668   2.988   2.769   9.513
 8809WAT     H126669   2.950   2.687   9.554
 8809WAT     H226670   2.999   2.839   9.583
 8810WAT      O26671   6.341   3.284   7.129
 8810WAT     H126672   6.327   3.325   7.039
 8810WAT     H226673   6.427   3.233   7.130
 8811WAT      O26674   0.092   7.694   8.998
 8811WAT     H126675   0.011   7.693   8.941
 8811WAT     H226676   0.109   7.602   9.034
 8812WAT      O26677   6.545   5.785   7.994
 8812WAT     H126678   6.548   5.720   8.069
 8812WAT     H226679   6.449   5.809   7.974
 8813WAT      O26680   9.123   6.644   3.224
 8813WAT     H126681   9.023   6.651   3.219
 8813WAT     H226682   9.151   6.549   3.212
 8814WAT      O26683   5.999   5.195   7.640
 8814WAT     H126684   5.915   5.238   7.607
 8814WAT     H226685   6.046   5.151   7.563
 8815WAT      O26686   9.193   4.395   1.790
 8815WAT     H126687   9.209   4.451   1.871
 8815WAT     H226688   9.177   4.300   1.816
 8816WAT      O26689   3.895   6.357   5.451
 8816WAT     H126690   3.835   6.362   5.531
 8816WAT     H226691   3.879   6.272   5.402
 8817WAT      O26692   1.569   7.379   0.285
 8817WAT     H126693   1.601   7.440   0.212
 8817WAT     H226694   1.470   7.383   0.291
 8818WAT      O26695   8.357   8.307   1.651
 8818WAT     H126696   8.361   8.219   1.698
 8818WAT     H226697   8.263   8.342   1.654
 8819WAT      O26698   1.375   4.598   9.712
 8819WAT     H126699   1.372   4.645   9.624
 8819WAT     H226700   1.316   4.518   9.710
 8820WAT      O26701   9.100   0.899   1.665
 8820WAT     H126702   9.191   0.866   1.689
 8820WAT     H226703   9.069   0.853   1.581
 8821WAT      O26704   7.718   1.181   7.324
 8821WAT     H126705   7.642   1.243   7.307
 8821WAT     H226706   7.804   1.227   7.306
 8822WAT      O26707   3.591   4.487   2.814
 8822WAT     H126708   3.582   4.491   2.913
 8822WAT     H226709   3.506   4.454   2.773
 8823WAT      O26710   4.329   1.427   9.691
 8823WAT     H126711   4.301   1.382   9.606
 8823WAT     H226712   4.399   1.495   9.671
 8824WAT      O26713   6.147   7.044   5.130
 8824WAT     H126714   6.087   6.990   5.188
 8824WAT     H226715   6.118   7.036   5.035
 8825WAT      O26716   9.157   7.720   0.299
 8825WAT     H126717   9.123   7.661   0.226
 8825WAT     H226718   9.194   7.663   0.373
 8826WAT      O26719   2.197   8.263   4.252
 8826WAT     H126720   2.230   8.172   4.276
 8826WAT     H226721   2.114   8.255   4.196
 8827WAT      O26722   2.951   5.499   3.375
 8827WAT     H126723   2.879   5.434   3.397
 8827WAT     H226724   2.915   5.592   3.384
 8828WAT      O26725   1.442   2.250   6.657
 8828WAT     H126726   1.361   2.237   6.715
 8828WAT     H226727   1.517   2.193   6.692
 8829WAT      O26728   4.397   7.129   9.433
 8829WAT     H126729   4.495   7.109   9.437
 8829WAT     H226730   4.351   7.063   9.373
 8830WAT      O26731   6.464   9.176   5.179
 8830WAT     H126732   6.514   9.099   5.139
 8830WAT     H226733   6.526   9.254   5.191
 8831WAT      O26734   9.215   3.983   7.397
 8831WAT     H126735   9.211   4.072   7.352
 8831WAT     H226736   9.239   3.913   7.329
 8832WAT      O26737   7.833   5.355   2.180
 8832WAT     H126738   7.885   5.274   2.208
 8832WAT     H226739   7.892   5.415   2.126
 8833WAT      O26740   7.807   1.155   2.104
 8833WAT     H126741   7.818   1.164   2.203
 8833WAT     H226742   7.811   1.245   2.061
 8834WAT      O26743   8.043   0.352   4.705
 8834WAT     H126744   8.097   0.268   4.699
 8834WAT     H226745   8.083   0.412   4.775
 8835WAT      O26746   4.143   9.153   1.844
 8835WAT     H126747   4.143   9.125   1.940
 8835WAT     H226748   4.225   9.207   1.826
 8836WAT      O26749   4.752   6.640   8.697
 8836WAT     H126750   4.730   6.702   8.772
 8836WAT     H226751   4.676   6.638   8.632
 8837WAT      O26752   4.445   8.110   1.890
 8837WAT     H126753   4.526   8.086   1.836
 8837WAT     H226754   4.460   8.085   1.986
 8838WAT      O26755   2.278   1.853   7.060
 8838WAT     H126756   2.218   1.923   7.099
 8838WAT     H226757   2.223   1.788   7.008
 8839WAT      O26758   1.708   1.281   6.936
 8839WAT     H126759   1.800   1.256   6.905
 8839WAT     H226760   1.703   1.271   7.036
 8840WAT      O26761   6.850   0.549   5.438
 8840WAT     H126762   6.793   0.501   5.505
 8840WAT     H226763   6.793   0.589   5.368
 8841WAT      O26764   6.453   6.728   7.599
 8841WAT     H126765   6.447   6.818   7.555
 8841WAT     H226766   6.546   6.692   7.588
 8842WAT      O26767   9.300   6.596   5.785
 8842WAT     H126768   9.365   6.656   5.831
 8842WAT     H226769   9.211   6.642   5.779
 8843WAT      O26770   9.466   2.965   1.504
 8843WAT     H126771   9.380   3.009   1.533
 8843WAT     H226772   9.543   3.025   1.527
 8844WAT      O26773   3.164   0.709   2.638
 8844WAT     H126774   3.226   0.653   2.583
 8844WAT     H226775   3.168   0.804   2.608
 8845WAT      O26776   8.601   2.962   1.311
 8845WAT     H126777   8.653   3.033   1.359
 8845WAT     H226778   8.619   2.968   1.213
 8846WAT      O26779   7.323   1.037   2.112
 8846WAT     H126780   7.373   1.080   2.187
 8846WAT     H226781   7.237   0.999   2.146
 8847WAT      O26782   0.698   3.833   1.577
 8847WAT     H126783   0.617   3.799   1.625
 8847WAT     H226784   0.751   3.893   1.638
 8848WAT      O26785   0.908   7.262   5.545
 8848WAT     H126786   1.005   7.240   5.538
 8848WAT     H226787   0.862   7.238   5.459
 8849WAT      O26788   6.479   3.001   1.308
 8849WAT     H126789   6.546   2.959   1.247
 8849WAT     H226790   6.504   3.097   1.324
 8850WAT      O26791   0.293   8.975   5.804
 8850WAT     H126792   0.280   9.067   5.767
 8850WAT     H226793   0.336   8.982   5.895
 8851WAT      O26794   7.262   0.283   0.525
 8851WAT     H126795   7.262   0.275   0.425
 8851WAT     H226796   7.287   0.376   0.551
 8852WAT      O26797   7.538   1.671   9.254
 8852WAT     H126798   7.624   1.621   9.254
 8852WAT     H226799   7.488   1.654   9.339
 8853WAT      O26800   0.092   6.052   0.482
 8853WAT     H126801   0.116   6.027   0.576
 8853WAT     H226802  -0.006   6.036   0.467
 8854WAT      O26803   5.470   0.479   3.522
 8854WAT     H126804   5.481   0.451   3.427
 8854WAT     H226805   5.551   0.452   3.574
 8855WAT      O26806   0.946   9.236   5.877
 8855WAT     H126807   0.953   9.294   5.958
 8855WAT     H226808   0.884   9.278   5.811
 8856WAT      O26809   4.490   8.927   8.906
 8856WAT     H126810   4.442   8.942   8.992
 8856WAT     H226811   4.478   8.832   8.877
 8857WAT      O26812   2.269   0.101   4.206
 8857WAT     H126813   2.219   0.156   4.138
 8857WAT     H226814   2.326   0.162   4.262
 8858WAT      O26815   7.621   1.304   0.308
 8858WAT     H126816   7.626   1.403   0.301
 8858WAT     H226817   7.594   1.266   0.219
 8859WAT      O26818   8.375   2.878   4.360
 8859WAT     H126819   8.355   2.967   4.319
 8859WAT     H226820   8.410   2.817   4.289
 8860WAT      O26821   2.965   4.617   2.095
 8860WAT     H126822   2.986   4.714   2.110
 8860WAT     H226823   2.975   4.596   1.998
 8861WAT      O26824   1.958   0.459   2.691
 8861WAT     H126825   2.040   0.412   2.724
 8861WAT     H226826   1.945   0.439   2.594
 8862WAT      O26827   9.040   0.385   6.598
 8862WAT     H126828   9.125   0.428   6.567
 8862WAT     H226829   8.978   0.373   6.520
 8863WAT      O26830   5.089   9.447   0.099
 8863WAT     H126831   5.163   9.502   0.139
 8863WAT     H226832   5.126   9.358   0.072
 8864WAT      O26833   4.566   1.690   5.436
 8864WAT     H126834   4.576   1.763   5.504
 8864WAT     H226835   4.484   1.637   5.457
 8865WAT      O26836   8.431   4.854   0.913
 8865WAT     H126837   8.524   4.870   0.882
 8865WAT     H226838   8.429   4.849   1.012
 8866WAT      O26839   7.714   4.478   6.448
 8866WAT     H126840   7.733   4.383   6.473
 8866WAT     H226841   7.667   4.524   6.523
 8867WAT      O26842   8.656   0.719   7.183
 8867WAT     H126843   8.703   0.676   7.106
 8867WAT     H226844   8.560   0.733   7.159
 8868WAT      O26845   2.673   0.106   7.827
 8868WAT     H126846   2.683   0.151   7.916
 8868WAT     H226847   2.755   0.121   7.772
 8869WAT      O26848   2.195   8.438   2.175
 8869WAT     H126849   2.197   8.484   2.264
 8869WAT     H226850   2.162   8.502   2.105
 8870WAT      O26851   8.706   2.520   8.893
 8870WAT     H126852   8.750   2.458   8.958
 8870WAT     H226853   8.666   2.597   8.942
 8871WAT      O26854   9.000   2.798   4.164
 8871WAT     H126855   9.085   2.789   4.111
 8871WAT     H226856   8.956   2.885   4.141
 8872WAT      O26857   0.764   9.019   4.096
 8872WAT     H126858   0.795   9.114   4.088
 8872WAT     H226859   0.827   8.968   4.154
 8873WAT      O26860   6.553   4.230   9.745
 8873WAT     H126861   6.596   4.224   9.835
 8873WAT     H226862   6.466   4.279   9.753
 8874WAT      O26863   9.610   6.756   1.339
 8874WAT     H126864   9.676   6.820   1.376
 8874WAT     H226865   9.657   6.686   1.286
 8875WAT      O26866   8.564   7.261   1.660
 8875WAT     H126867   8.485   7.300   1.613
 8875WAT     H226868   8.601   7.328   1.723
 8876WAT      O26869   9.823   7.244   0.027
 8876WAT     H126870   9.760   7.305  -0.022
 8876WAT     H226871   9.772   7.189   0.093
 8877WAT      O26872   4.212   9.046   8.749
 8877WAT     H126873   4.297   9.026   8.797
 8877WAT     H226874   4.203   8.986   8.670
 8878WAT      O26875   8.790   4.819   3.647
 8878WAT     H126876   8.881   4.859   3.640
 8878WAT     H226877   8.769   4.771   3.562
 8879WAT      O26878   5.663   1.211   2.743
 8879WAT     H126879   5.745   1.238   2.794
 8879WAT     H226880   5.676   1.230   2.646
 8880WAT      O26881   4.116   6.697   7.962
 8880WAT     H126882   4.088   6.658   8.050
 8880WAT     H226883   4.216   6.698   7.956
 8881WAT      O26884   3.095   4.421   5.076
 8881WAT     H126885   3.032   4.485   5.032
 8881WAT     H226886   3.122   4.456   5.166
 8882WAT      O26887   7.510   0.975   7.160
 8882WAT     H126888   7.492   1.073   7.166
 8882WAT     H226889   7.608   0.959   7.152
 8883WAT      O26890   1.578   5.041   9.146
 8883WAT     H126891   1.623   5.061   9.233
 8883WAT     H226892   1.576   4.942   9.132
 8884WAT      O26893   4.016   4.181   2.460
 8884WAT     H126894   3.996   4.087   2.434
 8884WAT     H226895   4.092   4.216   2.405
 8885WAT      O26896   4.550   6.144   1.538
 8885WAT     H126897   4.645   6.157   1.566
 8885WAT     H226898   4.502   6.091   1.607
 8886WAT      O26899   1.318   0.577   5.436
 8886WAT     H126900   1.293   0.554   5.342
 8886WAT     H226901   1.237   0.576   5.494
 8887WAT      O26902   5.561   6.002   1.425
 8887WAT     H126903   5.555   6.078   1.490
 8887WAT     H226904   5.491   6.013   1.354
 8888WAT      O26905   2.075   3.550   7.196
 8888WAT     H126906   1.995   3.610   7.191
 8888WAT     H226907   2.155   3.599   7.161
 8889WAT      O26908   6.567   7.655   8.472
 8889WAT     H126909   6.613   7.744   8.475
 8889WAT     H226910   6.486   7.662   8.413
 8890WAT      O26911   8.680   7.661   0.656
 8890WAT     H126912   8.582   7.644   0.642
 8890WAT     H226913   8.727   7.664   0.568
 8891WAT      O26914   3.734   3.000   3.312
 8891WAT     H126915   3.727   2.958   3.403
 8891WAT     H226916   3.668   2.959   3.250
 8892WAT      O26917   9.614   3.986   9.858
 8892WAT     H126918   9.570   4.048   9.792
 8892WAT     H226919   9.625   4.033   9.946
 8893WAT      O26920   8.507   0.224   1.086
 8893WAT     H126921   8.496   0.323   1.091
 8893WAT     H226922   8.496   0.194   0.991
 8894WAT      O26923   5.240   0.834   4.824
 8894WAT     H126924   5.328   0.791   4.807
 8894WAT     H226925   5.178   0.814   4.748
 8895WAT      O26926   4.966   2.025   8.434
 8895WAT     H126927   4.871   1.995   8.435
 8895WAT     H226928   5.005   2.008   8.343
 8896WAT      O26929   8.140   4.751   1.239
 8896WAT     H126930   8.232   4.760   1.277
 8896WAT     H226931   8.075   4.743   1.315
 8897WAT      O26932   5.556   6.345   0.205
 8897WAT     H126933   5.510   6.300   0.282
 8897WAT     H226934   5.513   6.433   0.188
 8898WAT      O26935   8.920   3.885   1.677
 8898WAT     H126936   8.942   3.871   1.774
 8898WAT     H226937   9.003   3.906   1.626
 8899WAT      O26938   1.669   5.329   9.530
 8899WAT     H126939   1.612   5.410   9.536
 8899WAT     H226940   1.631   5.257   9.587
 8900WAT      O26941   6.658   5.850   6.536
 8900WAT     H126942   6.616   5.855   6.446
 8900WAT     H226943   6.713   5.932   6.552
 8901WAT      O26944   6.319   4.920   2.910
 8901WAT     H126945   6.337   4.826   2.880
 8901WAT     H226946   6.398   4.977   2.891
 8902WAT      O26947   1.814   2.425   6.760
 8902WAT     H126948   1.822   2.448   6.857
 8902WAT     H226949   1.826   2.326   6.748
 8903WAT      O26950   0.429   4.165   5.636
 8903WAT     H126951   0.443   4.120   5.547
 8903WAT     H226952   0.336   4.148   5.667
 8904WAT      O26953   5.379   6.565   3.674
 8904WAT     H126954   5.339   6.655   3.694
 8904WAT     H226955   5.422   6.529   3.757
 8905WAT      O26956   8.090   3.130   8.988
 8905WAT     H126957   8.026   3.161   8.918
 8905WAT     H226958   8.153   3.205   9.011
 8906WAT      O26959   1.235   7.891   1.343
 8906WAT     H126960   1.146   7.912   1.304
 8906WAT     H226961   1.250   7.947   1.424
 8907WAT      O26962   9.575   0.509   0.331
 8907WAT     H126963   9.502   0.460   0.379
 8907WAT     H226964   9.662   0.492   0.377
 8908WAT      O26965   6.620   1.548   9.192
 8908WAT     H126966   6.615   1.643   9.161
 8908WAT     H226967   6.715   1.518   9.190
 8909WAT      O26968   1.708   7.179   5.215
 8909WAT     H126969   1.641   7.105   5.220
 8909WAT     H226970   1.769   7.163   5.137
 8910WAT      O26971   1.486   9.566   0.936
 8910WAT     H126972   1.418   9.616   0.990
 8910WAT     H226973   1.455   9.472   0.922
 8911WAT      O26974   5.606   4.893   8.352
 8911WAT     H126975   5.604   4.981   8.400
 8911WAT     H226976   5.609   4.819   8.419
 8912WAT      O26977   9.867   2.847   3.625
 8912WAT     H126978   9.814   2.825   3.543
 8912WAT     H226979   9.893   2.763   3.672
 8913WAT      O26980   2.747   9.033   3.578
 8913WAT     H126981   2.743   9.043   3.478
 8913WAT     H226982   2.777   8.941   3.601
 8914WAT      O26983   8.946   4.232   8.329
 8914WAT     H126984   8.897   4.209   8.413
 8914WAT     H226985   9.044   4.238   8.348
 8915WAT      O26986   0.278   1.370   6.331
 8915WAT     H126987   0.327   1.325   6.406
 8915WAT     H226988   0.179   1.359   6.344
 8916WAT      O26989   7.482   0.580   2.263
 8916WAT     H126990   7.498   0.511   2.334
 8916WAT     H226991   7.539   0.660   2.280
 8917WAT      O26992   0.380   0.206   6.719
 8917WAT     H126993   0.411   0.115   6.693
 8917WAT     H226994   0.445   0.246   6.784
 8918WAT      O26995   8.781   9.047   1.542
 8918WAT     H126996   8.741   9.139   1.548
 8918WAT     H226997   8.774   9.001   1.631
 8919WAT      O26998   7.281   6.711   1.189
 8919WAT     H126999   7.260   6.632   1.130
 8919WAT     H227000   7.369   6.750   1.161
 8920WAT      O27001   6.730   9.450   1.070
 8920WAT     H127002   6.686   9.508   1.001
 8920WAT     H227003   6.807   9.498   1.110
 8921WAT      O27004   4.916   7.675   2.597
 8921WAT     H127005   4.834   7.627   2.629
 8921WAT     H227006   4.984   7.609   2.567
 8922WAT      O27007   6.308   8.424   0.871
 8922WAT     H127008   6.246   8.468   0.935
 8922WAT     H227009   6.371   8.365   0.920
 8923WAT      O27010   4.146   9.002   3.401
 8923WAT     H127011   4.151   8.919   3.345
 8923WAT     H227012   4.111   9.077   3.345
 8924WAT      O27013   7.797   7.404   7.164
 8924WAT     H127014   7.721   7.346   7.194
 8924WAT     H227015   7.848   7.436   7.244
 8925WAT      O27016   8.125   5.664   9.369
 8925WAT     H127017   8.064   5.708   9.434
 8925WAT     H227018   8.072   5.608   9.306
 8926WAT      O27019   0.676   0.875   3.280
 8926WAT     H127020   0.625   0.931   3.215
 8926WAT     H227021   0.769   0.911   3.290
 8927WAT      O27022   2.169   1.196   3.139
 8927WAT     H127023   2.090   1.135   3.139
 8927WAT     H227024   2.209   1.199   3.230
 8928WAT      O27025   2.671   5.890   9.886
 8928WAT     H127026   2.593   5.907   9.946
 8928WAT     H227027   2.692   5.974   9.836
 8929WAT      O27028   2.231   8.691   2.314
 8929WAT     H127029   2.154   8.741   2.355
 8929WAT     H227030   2.284   8.753   2.257
 8930WAT      O27031   8.093   6.204   5.192
 8930WAT     H127032   8.018   6.267   5.210
 8930WAT     H227033   8.130   6.171   5.279
 8931WAT      O27034   6.437   0.522   7.967
 8931WAT     H127035   6.513   0.465   7.999
 8931WAT     H227036   6.442   0.532   7.868
 8932WAT      O27037   0.498   2.318   3.371
 8932WAT     H127038   0.578   2.376   3.357
 8932WAT     H227039   0.501   2.240   3.308
 8933WAT      O27040   1.116   4.658   5.597
 8933WAT     H127041   1.215   4.664   5.601
 8933WAT     H227042   1.076   4.717   5.667
 8934WAT      O27043   9.108   3.671   1.818
 8934WAT     H127044   9.206   3.651   1.809
 8934WAT     H227045   9.059   3.631   1.740
 8935WAT      O27046   6.438   3.410   5.922
 8935WAT     H127047   6.480   3.472   5.856
 8935WAT     H227048   6.506   3.385   5.992
 8936WAT      O27049   5.574   5.677   4.672
 8936WAT     H127050   5.476   5.663   4.660
 8936WAT     H227051   5.589   5.754   4.734
 8937WAT      O27052   7.095   8.419   2.203
 8937WAT     H127053   7.046   8.496   2.243
 8937WAT     H227054   7.133   8.446   2.115
 8938WAT      O27055   9.850   0.144   3.686
 8938WAT     H127056   9.806   0.055   3.677
 8938WAT     H227057   9.900   0.148   3.772
 8939WAT      O27058   0.150   3.035   9.328
 8939WAT     H127059   0.139   2.958   9.390
 8939WAT     H227060   0.244   3.070   9.333
 8940WAT      O27061   4.680   3.974   1.222
 8940WAT     H127062   4.686   4.073   1.230
 8940WAT     H227063   4.610   3.950   1.154
 8941WAT      O27064   3.080   3.721   7.095
 8941WAT     H127065   3.076   3.735   6.996
 8941WAT     H227066   3.122   3.801   7.138
 8942WAT      O27067   9.662   2.785   9.811
 8942WAT     H127068   9.703   2.872   9.836
 8942WAT     H227069   9.620   2.793   9.720
 8943WAT      O27070   2.732   3.659   8.993
 8943WAT     H127071   2.803   3.621   9.052
 8943WAT     H227072   2.704   3.749   9.027
 8944WAT      O27073   9.574   0.142   2.088
 8944WAT     H127074   9.652   0.079   2.086
 8944WAT     H227075   9.514   0.124   2.010
 8945WAT      O27076   5.440   8.695   2.203
 8945WAT     H127077   5.480   8.778   2.243
 8945WAT     H227078   5.466   8.689   2.107
 8946WAT      O27079   9.760   8.613   3.653
 8946WAT     H127080   9.858   8.603   3.672
 8946WAT     H227081   9.738   8.710   3.647
 8947WAT      O27082   3.055   8.536   0.432
 8947WAT     H127083   2.999   8.462   0.395
 8947WAT     H227084   3.134   8.497   0.480
 8948WAT      O27085   5.234   3.818   2.886
 8948WAT     H127086   5.148   3.773   2.912
 8948WAT     H227087   5.252   3.802   2.790
 8949WAT      O27088   3.625   3.472   0.634
 8949WAT     H127089   3.702   3.463   0.572
 8949WAT     H227090   3.646   3.539   0.705
 8950WAT      O27091   9.084   4.172   9.198
 8950WAT     H127092   9.096   4.257   9.146
 8950WAT     H227093   8.987   4.159   9.218
 8951WAT      O27094   6.444   2.429   4.662
 8951WAT     H127095   6.418   2.332   4.667
 8951WAT     H227096   6.468   2.462   4.753
 8952WAT      O27097   4.715   1.958   8.372
 8952WAT     H127098   4.658   1.905   8.308
 8952WAT     H227099   4.658   1.992   8.446
 8953WAT      O27100   7.717   0.199   1.171
 8953WAT     H127101   7.716   0.177   1.073
 8953WAT     H227102   7.751   0.292   1.184
 8954WAT      O27103   9.630   4.367   8.708
 8954WAT     H127104   9.728   4.346   8.712
 8954WAT     H227105   9.616   4.454   8.660
 8955WAT      O27106   6.908   9.089   5.099
 8955WAT     H127107   6.931   9.064   5.193
 8955WAT     H227108   6.822   9.045   5.073
 8956WAT      O27109   8.368   0.569   5.577
 8956WAT     H127110   8.316   0.643   5.619
 8956WAT     H227111   8.350   0.568   5.478
 8957WAT      O27112   6.967   2.402   4.813
 8957WAT     H127113   6.928   2.456   4.888
 8957WAT     H227114   6.918   2.315   4.807
 8958WAT      O27115   0.952   3.787   6.527
 8958WAT     H127116   0.918   3.779   6.433
 8958WAT     H227117   1.046   3.820   6.526
 8959WAT      O27118   1.924   2.829   2.234
 8959WAT     H127119   1.857   2.896   2.202
 8959WAT     H227120   2.013   2.874   2.243
 8960WAT      O27121   3.878   4.048   9.678
 8960WAT     H127122   3.925   4.135   9.663
 8960WAT     H227123   3.790   4.050   9.632
 8961WAT      O27124   8.117   0.720   9.210
 8961WAT     H127125   8.098   0.694   9.305
 8961WAT     H227126   8.047   0.784   9.178
 8962WAT      O27127   0.258   7.927   9.850
 8962WAT     H127128   0.240   7.998   9.919
 8962WAT     H227129   0.175   7.912   9.796
 8963WAT      O27130   9.706   5.228   0.672
 8963WAT     H127131   9.658   5.253   0.756
 8963WAT     H227132   9.759   5.144   0.687
 8964WAT      O27133   1.836   4.080   3.493
 8964WAT     H127134   1.790   4.093   3.406
 8964WAT     H227135   1.860   3.983   3.505
 8965WAT      O27136   8.086   9.714   9.255
 8965WAT     H127137   8.030   9.732   9.175
 8965WAT     H227138   8.137   9.796   9.279
 8966WAT      O27139   1.824   6.520   8.066
 8966WAT     H127140   1.842   6.619   8.067
 8966WAT     H227141   1.756   6.498   8.136
 8967WAT      O27142   7.638   4.599   7.910
 8967WAT     H127143   7.544   4.568   7.894
 8967WAT     H227144   7.700   4.522   7.898
 8968WAT      O27145   5.030   8.079   6.665
 8968WAT     H127146   5.114   8.037   6.697
 8968WAT     H227147   4.988   8.020   6.596
 8969WAT      O27148   8.297   9.499   4.967
 8969WAT     H127149   8.384   9.512   5.015
 8969WAT     H227150   8.314   9.452   4.880
 8970WAT      O27151   9.379   1.858   2.688
 8970WAT     H127152   9.457   1.853   2.751
 8970WAT     H227153   9.360   1.767   2.651
 8971WAT      O27154   9.404   8.953   9.866
 8971WAT     H127155   9.319   8.964   9.814
 8971WAT     H227156   9.458   9.036   9.860
 8972WAT      O27157   7.872   2.020   1.029
 8972WAT     H127158   7.791   2.031   0.971
 8972WAT     H227159   7.918   1.935   1.006
 8973WAT      O27160   9.589   1.045   8.908
 8973WAT     H127161   9.568   1.142   8.922
 8973WAT     H227162   9.518   1.004   8.851
 8974WAT      O27163   2.672   7.378   6.764
 8974WAT     H127164   2.620   7.384   6.678
 8974WAT     H227165   2.609   7.375   6.841
 8975WAT      O27166   0.497   6.899   3.404
 8975WAT     H127167   0.500   6.812   3.454
 8975WAT     H227168   0.562   6.962   3.446
 8976WAT      O27169   7.658   8.971   0.599
 8976WAT     H127170   7.634   8.905   0.528
 8976WAT     H227171   7.755   8.961   0.622
 8977WAT      O27172   0.828   3.512   3.655
 8977WAT     H127173   0.797   3.571   3.580
 8977WAT     H227174   0.841   3.567   3.737
 8978WAT      O27175   3.655   6.054   3.000
 8978WAT     H127176   3.686   5.974   3.050
 8978WAT     H227177   3.577   6.029   2.942
 8979WAT      O27178   4.460   7.663   6.444
 8979WAT     H127179   4.365   7.639   6.458
 8979WAT     H227180   4.508   7.666   6.532
 8980WAT      O27181   3.055   5.127   7.093
 8980WAT     H127182   3.063   5.116   6.994
 8980WAT     H227183   3.044   5.037   7.136
 8981WAT      O27184   5.801   0.867   3.186
 8981WAT     H127185   5.877   0.817   3.144
 8981WAT     H227186   5.749   0.805   3.244
 8982WAT      O27187   6.309   8.652   2.801
 8982WAT     H127188   6.288   8.620   2.894
 8982WAT     H227189   6.349   8.577   2.748
 8983WAT      O27190   1.017   5.286   2.021
 8983WAT     H127191   1.014   5.350   2.099
 8983WAT     H227192   0.924   5.272   1.986
 8984WAT      O27193   1.740   7.728   0.198
 8984WAT     H127194   1.747   7.826   0.178
 8984WAT     H227195   1.806   7.703   0.269
 8985WAT      O27196   1.735   8.924   6.407
 8985WAT     H127197   1.798   8.998   6.386
 8985WAT     H227198   1.786   8.842   6.433
 8986WAT      O27199   3.786   4.346   6.810
 8986WAT     H127200   3.761   4.377   6.718
 8986WAT     H227201   3.703   4.338   6.866
 8987WAT      O27202   1.510   7.998   2.492
 8987WAT     H127203   1.534   7.904   2.516
 8987WAT     H227204   1.533   8.015   2.396
 8988WAT      O27205   2.644   7.411   8.154
 8988WAT     H127206   2.546   7.400   8.168
 8988WAT     H227207   2.674   7.350   8.080
 8989WAT      O27208   0.160   0.980   9.366
 8989WAT     H127209   0.215   1.047   9.317
 8989WAT     H227210   0.063   1.006   9.363
 8990WAT      O27211   4.923   8.913   6.512
 8990WAT     H127212   4.870   8.924   6.428
 8990WAT     H227213   4.997   8.981   6.514
 8991WAT      O27214   5.674   9.073   9.712
 8991WAT     H127215   5.654   9.042   9.620
 8991WAT     H227216   5.590   9.074   9.766
 8992WAT      O27217   0.045   5.049   5.617
 8992WAT     H127218   0.048   5.048   5.517
 8992WAT     H227219   0.067   4.958   5.651
 8993WAT      O27220   4.157   4.067   6.198
 8993WAT     H127221   4.156   4.167   6.187
 8993WAT     H227222   4.062   4.034   6.202
 8994WAT      O27223   5.946   7.596   4.895
 8994WAT     H127224   5.952   7.593   4.795
 8994WAT     H227225   5.977   7.509   4.933
 8995WAT      O27226   3.219   6.778   5.625
 8995WAT     H127227   3.199   6.875   5.639
 8995WAT     H227228   3.222   6.759   5.527
 8996WAT      O27229   9.327   5.846   4.187
 8996WAT     H127230   9.310   5.753   4.156
 8996WAT     H227231   9.240   5.892   4.208
 8997WAT      O27232   2.166   5.205   0.679
 8997WAT     H127233   2.202   5.258   0.603
 8997WAT     H227234   2.067   5.197   0.670
 8998WAT      O27235   5.058   4.328   5.739
 8998WAT     H127236   4.980   4.366   5.688
 8998WAT     H227237   5.042   4.231   5.757
 8999WAT      O27238   6.510   2.149   1.569
 8999WAT     H127239   6.567   2.231   1.577
 8999WAT     H227240   6.424   2.163   1.620
 9000WAT      O27241   8.512   1.061   0.154
 9000WAT     H127242   8.598   1.108   0.133
 9000WAT     H227243   8.517   1.020   0.245
 9001WAT      O27244   4.731   4.763   6.444
 9001WAT     H127245   4.735   4.685   6.381
 9001WAT     H227246   4.742   4.848   6.392
 9002WAT      O27247   2.156   6.561   2.263
 9002WAT     H127248   2.124   6.472   2.296
 9002WAT     H227249   2.242   6.549   2.213
 9003WAT      O27250   3.150   2.482   0.425
 9003WAT     H127251   3.072   2.446   0.475
 9003WAT     H227252   3.196   2.552   0.480
 9004WAT      O27253   3.250   0.739   1.166
 9004WAT     H127254   3.196   0.712   1.087
 9004WAT     H227255   3.344   0.760   1.137
 9005WAT      O27256   9.249   2.265   2.226
 9005WAT     H127257   9.336   2.306   2.252
 9005WAT     H227258   9.240   2.175   2.271
 9006WAT      O27259   9.441   9.833   3.850
 9006WAT     H127260   9.379   9.912   3.855
 9006WAT     H227261   9.387   9.750   3.839
 9007WAT      O27262   0.656   1.774   8.923
 9007WAT     H127263   0.700   1.791   8.835
 9007WAT     H227264   0.578   1.713   8.911
 9008WAT      O27265   4.713   7.719   5.194
 9008WAT     H127266   4.749   7.725   5.287
 9008WAT     H227267   4.788   7.729   5.128
 9009WAT      O27268   5.481   4.071   9.618
 9009WAT     H127269   5.503   4.025   9.704
 9009WAT     H227270   5.399   4.127   9.630
 9010WAT      O27271   4.675   9.268   7.458
 9010WAT     H127272   4.622   9.236   7.379
 9010WAT     H227273   4.762   9.220   7.461
 9011WAT      O27274   0.450   9.285   8.910
 9011WAT     H127275   0.454   9.186   8.903
 9011WAT     H227276   0.541   9.323   8.893
 9012WAT      O27277   6.685   3.530   3.299
 9012WAT     H127278   6.695   3.562   3.394
 9012WAT     H227279   6.767   3.553   3.247
 9013WAT      O27280   6.781   8.376   3.128
 9013WAT     H127281   6.832   8.342   3.050
 9013WAT     H227282   6.708   8.438   3.096
 9014WAT      O27283   6.314   1.930   6.752
 9014WAT     H127284   6.344   1.874   6.828
 9014WAT     H227285   6.392   1.954   6.694
 9015WAT      O27286   5.469   2.428   1.620
 9015WAT     H127287   5.385   2.457   1.666
 9015WAT     H227288   5.546   2.480   1.657
 9016WAT      O27289   4.044   1.456   5.483
 9016WAT     H127290   4.082   1.509   5.407
 9016WAT     H227291   3.968   1.506   5.524
 9017WAT      O27292   5.467   0.804   3.189
 9017WAT     H127293   5.459   0.755   3.102
 9017WAT     H227294   5.384   0.856   3.207
 9018WAT      O27295   2.371   1.884   3.268
 9018WAT     H127296   2.327   1.832   3.340
 9018WAT     H227297   2.400   1.973   3.304
 9019WAT      O27298   8.024   1.579   7.474
 9019WAT     H127299   8.114   1.593   7.515
 9019WAT     H227300   7.979   1.667   7.462
 9020WAT      O27301   1.711   2.346   9.082
 9020WAT     H127302   1.700   2.310   8.990
 9020WAT     H227303   1.774   2.424   9.080
 9021WAT      O27304   9.093   8.776   3.996
 9021WAT     H127305   9.076   8.695   3.939
 9021WAT     H227306   9.070   8.858   3.944
 9022WAT      O27307   2.053   1.239   1.165
 9022WAT     H127308   2.118   1.315   1.153
 9022WAT     H227309   1.992   1.260   1.242
 9023WAT      O27310   5.990   1.934   0.511
 9023WAT     H127311   5.948   1.999   0.575
 9023WAT     H227312   5.951   1.947   0.420
 9024WAT      O27313   5.166   6.941   4.624
 9024WAT     H127314   5.237   6.878   4.592
 9024WAT     H227315   5.136   6.999   4.549
 9025WAT      O27316   9.855   9.355   1.305
 9025WAT     H127317   9.800   9.367   1.388
 9025WAT     H227318   9.800   9.311   1.235
 9026WAT      O27319   0.531   1.671   3.844
 9026WAT     H127320   0.584   1.658   3.928
 9026WAT     H227321   0.433   1.674   3.868
 9027WAT      O27322   8.163   9.090   0.501
 9027WAT     H127323   8.065   9.095   0.482
 9027WAT     H227324   8.210   9.041   0.427
 9028WAT      O27325   2.262   1.157   2.068
 9028WAT     H127326   2.359   1.179   2.058
 9028WAT     H227327   2.249   1.060   2.050
 9029WAT      O27328   9.610   3.932   5.135
 9029WAT     H127329   9.514   3.938   5.162
 9029WAT     H227330   9.668   3.925   5.216
 9030WAT      O27331   3.799   2.533   9.244
 9030WAT     H127332   3.832   2.555   9.336
 9030WAT     H227333   3.765   2.616   9.200
 9031WAT      O27334   9.348   4.789   4.210
 9031WAT     H127335   9.251   4.796   4.231
 9031WAT     H227336   9.398   4.862   4.258
 9032WAT      O27337   8.909   9.598   7.252
 9032WAT     H127338   8.996   9.555   7.226
 9032WAT     H227339   8.848   9.530   7.293
 9033WAT      O27340   8.694   8.117   8.232
 9033WAT     H127341   8.623   8.169   8.185
 9033WAT     H227342   8.782   8.133   8.187
 9034WAT      O27343   0.746   1.056   7.960
 9034WAT     H127344   0.686   1.060   8.040
 9034WAT     H227345   0.721   1.128   7.895
 9035WAT      O27346   8.422   8.542   0.269
 9035WAT     H127347   8.440   8.533   0.367
 9035WAT     H227348   8.332   8.583   0.255
 9036WAT      O27349   4.229   6.806   3.263
 9036WAT     H127350   4.273   6.832   3.177
 9036WAT     H227351   4.180   6.719   3.252
 9037WAT      O27352   9.740   8.220   6.603
 9037WAT     H127353   9.673   8.165   6.653
 9037WAT     H227354   9.765   8.173   6.519
 9038WAT      O27355   6.487   5.822   8.930
 9038WAT     H127356   6.427   5.843   8.853
 9038WAT     H227357   6.562   5.763   8.899
 9039WAT      O27358   3.078   3.904   1.732
 9039WAT     H127359   3.080   3.812   1.693
 9039WAT     H227360   2.983   3.935   1.738
 9040WAT      O27361   1.884   7.970   1.456
 9040WAT     H127362   1.956   7.934   1.515
 9040WAT     H227363   1.796   7.928   1.481
 9041WAT      O27364   2.955   7.750   5.852
 9041WAT     H127365   2.888   7.819   5.882
 9041WAT     H227366   2.910   7.661   5.848
 9042WAT      O27367   7.941   0.325   8.956
 9042WAT     H127368   7.897   0.414   8.972
 9042WAT     H227369   8.011   0.336   8.885
 9043WAT      O27370   2.792   5.307   6.436
 9043WAT     H127371   2.712   5.313   6.496
 9043WAT     H227372   2.856   5.241   6.474
 9044WAT      O27373   3.345   3.606   4.665
 9044WAT     H127374   3.297   3.680   4.713
 9044WAT     H227375   3.280   3.554   4.610
 9045WAT      O27376   5.033   9.007   1.710
 9045WAT     H127377   5.105   9.049   1.764
 9045WAT     H227378   5.067   8.923   1.668
 9046WAT      O27379   5.734   5.289   7.817
 9046WAT     H127380   5.811   5.233   7.846
 9046WAT     H227381   5.649   5.249   7.849
 9047WAT      O27382   7.994   7.684   7.939
 9047WAT     H127383   7.905   7.729   7.942
 9047WAT     H227384   7.998   7.622   7.861
 9048WAT      O27385   7.794   9.252   6.889
 9048WAT     H127386   7.840   9.332   6.925
 9048WAT     H227387   7.710   9.280   6.842
 9049WAT      O27388   4.732   7.205   7.983
 9049WAT     H127389   4.642   7.238   7.955
 9049WAT     H227390   4.802   7.248   7.925
 9050WAT      O27391   8.459   8.214   6.288
 9050WAT     H127392   8.456   8.130   6.234
 9050WAT     H227393   8.405   8.202   6.371
 9051WAT      O27394   3.573   4.920   3.859
 9051WAT     H127395   3.640   4.864   3.908
 9051WAT     H227396   3.611   5.011   3.843
 9052WAT      O27397   6.814   7.036   2.837
 9052WAT     H127398   6.732   7.093   2.834
 9052WAT     H227399   6.819   6.990   2.926
 9053WAT      O27400   2.065   7.549   5.461
 9053WAT     H127401   2.036   7.521   5.370
 9053WAT     H227402   2.022   7.635   5.485
 9054WAT      O27403   5.328   1.055   1.237
 9054WAT     H127404   5.240   1.100   1.224
 9054WAT     H227405   5.381   1.061   1.152
 9055WAT      O27406   5.058   1.998   2.399
 9055WAT     H127407   4.960   1.984   2.383
 9055WAT     H227408   5.071   2.081   2.454
 9056WAT      O27409   7.515   5.565   4.725
 9056WAT     H127410   7.534   5.467   4.729
 9056WAT     H227411   7.425   5.583   4.763
 9057WAT      O27412   0.022   1.559   9.587
 9057WAT     H127413   0.117   1.541   9.614
 9057WAT     H227414   0.018   1.576   9.489
 9058WAT      O27415   4.364   5.295   7.270
 9058WAT     H127416   4.420   5.240   7.331
 9058WAT     H227417   4.282   5.243   7.244
 9059WAT      O27418   8.900   0.899   6.078
 9059WAT     H127419   8.975   0.965   6.071
 9059WAT     H227420   8.917   0.837   6.154
 9060WAT      O27421   6.830   4.803   0.922
 9060WAT     H127422   6.911   4.830   0.975
 9060WAT     H227423   6.749   4.811   0.980
 9061WAT      O27424   1.121   9.830   6.373
 9061WAT     H127425   1.116   9.732   6.393
 9061WAT     H227426   1.118   9.881   6.459
 9062WAT      O27427   9.834   0.665   3.708
 9062WAT     H127428   9.799   0.736   3.646
 9062WAT     H227429   9.799   0.576   3.680
 9063WAT      O27430   6.874   0.106   1.396
 9063WAT     H127431   6.837   0.198   1.410
 9063WAT     H227432   6.951   0.110   1.332
 9064WAT      O27433   4.157   7.824   7.575
 9064WAT     H127434   4.162   7.834   7.476
 9064WAT     H227435   4.231   7.765   7.607
 9065WAT      O27436   4.968   3.351   4.226
 9065WAT     H127437   5.019   3.339   4.141
 9065WAT     H227438   5.025   3.399   4.293
 9066WAT      O27439   2.907   7.563   5.023
 9066WAT     H127440   2.912   7.532   4.928
 9066WAT     H227441   2.944   7.493   5.083
 9067WAT      O27442   0.335   6.115   5.714
 9067WAT     H127443   0.283   6.034   5.686
 9067WAT     H227444   0.274   6.193   5.725
 9068WAT      O27445   0.790   9.509   7.613
 9068WAT     H127446   0.785   9.608   7.627
 9068WAT     H227447   0.882   9.484   7.585
 9069WAT      O27448   9.583   4.613   4.763
 9069WAT     H127449   9.511   4.579   4.702
 9069WAT     H227450   9.591   4.713   4.752
 9070WAT      O27451   3.690   6.349   1.369
 9070WAT     H127452   3.609   6.323   1.421
 9070WAT     H227453   3.734   6.428   1.413
 9071WAT      O27454   8.134   0.286   5.752
 9071WAT     H127455   8.174   0.236   5.676
 9071WAT     H227456   8.048   0.329   5.722
 9072WAT      O27457   0.504   9.670   2.950
 9072WAT     H127458   0.542   9.760   2.931
 9072WAT     H227459   0.485   9.622   2.864
 9073WAT      O27460   0.764   2.177   5.733
 9073WAT     H127461   0.786   2.204   5.639
 9073WAT     H227462   0.665   2.170   5.743
 9074WAT      O27463   7.285   5.688   7.434
 9074WAT     H127464   7.216   5.615   7.440
 9074WAT     H227465   7.239   5.776   7.426
 9075WAT      O27466   2.164   2.621   3.197
 9075WAT     H127467   2.112   2.688   3.144
 9075WAT     H227468   2.238   2.583   3.141
 9076WAT      O27469   5.361   9.217   7.043
 9076WAT     H127470   5.370   9.228   7.141
 9076WAT     H227471   5.337   9.122   7.022
 9077WAT      O27472   2.762   2.936   5.522
 9077WAT     H127473   2.677   2.937   5.575
 9077WAT     H227474   2.763   2.854   5.465
 9078WAT      O27475   0.992   5.463   6.319
 9078WAT     H127476   0.968   5.559   6.333
 9078WAT     H227477   1.076   5.442   6.368
 9079WAT      O27478   6.894   5.647   0.726
 9079WAT     H127479   6.827   5.640   0.652
 9079WAT     H227480   6.847   5.644   0.814
 9080WAT      O27481   8.289   7.731   4.704
 9080WAT     H127482   8.277   7.710   4.607
 9080WAT     H227483   8.214   7.692   4.756
 9081WAT      O27484   7.736   3.699   6.236
 9081WAT     H127485   7.699   3.627   6.177
 9081WAT     H227486   7.835   3.695   6.237
 9082WAT      O27487   1.624   0.034   2.771
 9082WAT     H127488   1.706   0.002   2.723
 9082WAT     H227489   1.652   0.095   2.846
 9083WAT      O27490   7.772   1.706   4.169
 9083WAT     H127491   7.751   1.705   4.267
 9083WAT     H227492   7.808   1.795   4.143
 9084WAT      O27493   5.078   8.922   3.893
 9084WAT     H127494   5.062   8.990   3.964
 9084WAT     H227495   5.076   8.966   3.803
 9085WAT      O27496   0.459   1.535   1.936
 9085WAT     H127497   0.532   1.467   1.926
 9085WAT     H227498   0.403   1.512   2.016
 9086WAT      O27499   4.995   9.493   6.895
 9086WAT     H127500   4.939   9.429   6.842
 9086WAT     H227501   4.956   9.504   6.986
 9087WAT      O27502   6.969   9.585   1.170
 9087WAT     H127503   6.946   9.681   1.152
 9087WAT     H227504   6.994   9.574   1.266
 9088WAT      O27505   7.797   3.569   0.373
 9088WAT     H127506   7.845   3.484   0.350
 9088WAT     H227507   7.717   3.578   0.315
 9089WAT      O27508   9.624   6.670   6.068
 9089WAT     H127509   9.722   6.674   6.087
 9089WAT     H227510   9.601   6.734   5.995
 9090WAT      O27511   2.222   0.735   2.441
 9090WAT     H127512   2.241   0.765   2.347
 9090WAT     H227513   2.123   0.735   2.456
 9091WAT      O27514   7.105   1.312   5.332
 9091WAT     H127515   7.131   1.275   5.421
 9091WAT     H227516   7.009   1.340   5.335
 9092WAT      O27517   6.991   9.596   0.675
 9092WAT     H127518   6.953   9.535   0.744
 9092WAT     H227519   6.979   9.691   0.704
 9093WAT      O27520   5.040   2.999   7.382
 9093WAT     H127521   4.993   2.923   7.428
 9093WAT     H227522   5.087   2.964   7.301
 9094WAT      O27523   0.535   1.174   5.700
 9094WAT     H127524   0.621   1.164   5.650
 9094WAT     H227525   0.554   1.180   5.798
 9095WAT      O27526   5.302   9.730   2.447
 9095WAT     H127527   5.308   9.722   2.347
 9095WAT     H227528   5.373   9.674   2.489
 9096WAT      O27529   9.733   7.628   1.838
 9096WAT     H127530   9.800   7.603   1.768
 9096WAT     H227531   9.643   7.595   1.811
 9097WAT      O27532   7.100   7.898   3.690
 9097WAT     H127533   7.124   7.971   3.754
 9097WAT     H227534   7.184   7.856   3.654
 9098WAT      O27535   4.641   3.332   4.509
 9098WAT     H127536   4.675   3.374   4.424
 9098WAT     H227537   4.619   3.404   4.575
 9099WAT      O27538   4.076   7.623   8.325
 9099WAT     H127539   4.068   7.642   8.227
 9099WAT     H227540   4.172   7.624   8.352
 9100WAT      O27541   4.663   7.601   2.728
 9100WAT     H127542   4.593   7.565   2.666
 9100WAT     H227543   4.717   7.526   2.765
 9101WAT      O27544   8.527   7.863   5.090
 9101WAT     H127545   8.575   7.893   5.007
 9101WAT     H227546   8.487   7.773   5.073
 9102WAT      O27547   7.158   4.723   0.250
 9102WAT     H127548   7.237   4.728   0.188
 9102WAT     H227549   7.153   4.806   0.305
 9103WAT      O27550   1.577   7.986   1.206
 9103WAT     H127551   1.487   8.019   1.178
 9103WAT     H227552   1.572   7.952   1.300
 9104WAT      O27553   4.600   2.545   4.096
 9104WAT     H127554   4.515   2.584   4.131
 9104WAT     H227555   4.671   2.615   4.096
 9105WAT      O27556   5.407   8.146   6.684
 9105WAT     H127557   5.493   8.177   6.725
 9105WAT     H227558   5.352   8.101   6.754
 9106WAT      O27559   4.391   0.529   0.033
 9106WAT     H127560   4.488   0.525   0.058
 9106WAT     H227561   4.381   0.515  -0.065
 9107WAT      O27562   6.698   0.111   0.690
 9107WAT     H127563   6.720   0.021   0.652
 9107WAT     H227564   6.639   0.100   0.770
 9108WAT      O27565   5.174   0.576   8.225
 9108WAT     H127566   5.201   0.524   8.306
 9108WAT     H227567   5.080   0.608   8.236
 9109WAT      O27568   8.560   9.766   1.658
 9109WAT     H127569   8.623   9.772   1.580
 9109WAT     H227570   8.501   9.686   1.647
 9110WAT      O27571   2.593   5.335   6.614
 9110WAT     H127572   2.545   5.421   6.593
 9110WAT     H227573   2.526   5.261   6.623
 9111WAT      O27574   5.832   9.026   1.007
 9111WAT     H127575   5.901   9.001   0.939
 9111WAT     H227576   5.741   9.015   0.967
 9112WAT      O27577   0.971   6.765   8.554
 9112WAT     H127578   0.989   6.837   8.487
 9112WAT     H227579   0.999   6.676   8.516
 9113WAT      O27580   0.806   0.583   8.509
 9113WAT     H127581   0.794   0.490   8.543
 9113WAT     H227582   0.751   0.596   8.426
 9114WAT      O27583   4.710   9.134   9.710
 9114WAT     H127584   4.652   9.210   9.739
 9114WAT     H227585   4.775   9.111   9.783
 9115WAT      O27586   3.396   6.694   1.454
 9115WAT     H127587   3.403   6.636   1.373
 9115WAT     H227588   3.303   6.729   1.462
 9116WAT      O27589   2.303   8.574   0.557
 9116WAT     H127590   2.244   8.503   0.595
 9116WAT     H227591   2.264   8.607   0.471
 9117WAT      O27592   3.252   7.395   9.173
 9117WAT     H127593   3.162   7.371   9.136
 9117WAT     H227594   3.305   7.312   9.191
 9118WAT      O27595   0.615   0.005   1.556
 9118WAT     H127596   0.637   0.102   1.545
 9118WAT     H227597   0.555  -0.024   1.482
 9119WAT      O27598   2.077   1.368   5.806
 9119WAT     H127599   2.100   1.460   5.839
 9119WAT     H227600   1.996   1.373   5.747
 9120WAT      O27601   2.491   7.268   1.635
 9120WAT     H127602   2.438   7.296   1.555
 9120WAT     H227603   2.507   7.169   1.632
 9121WAT      O27604   1.513   0.433   0.534
 9121WAT     H127605   1.593   0.423   0.476
 9121WAT     H227606   1.454   0.353   0.524
 9122WAT      O27607   0.696   0.286   1.550
 9122WAT     H127608   0.646   0.294   1.463
 9122WAT     H227609   0.651   0.342   1.619
 9123WAT      O27610   5.335   3.466   9.719
 9123WAT     H127611   5.354   3.473   9.816
 9123WAT     H227612   5.405   3.516   9.667
 9124WAT      O27613   0.606   4.449   5.352
 9124WAT     H127614   0.642   4.361   5.323
 9124WAT     H227615   0.605   4.512   5.273
 9125WAT      O27616   5.388   6.082   6.100
 9125WAT     H127617   5.341   6.171   6.100
 9125WAT     H227618   5.464   6.085   6.035
 9126WAT      O27619   6.695   5.742   1.727
 9126WAT     H127620   6.672   5.647   1.709
 9126WAT     H227621   6.754   5.777   1.654
 9127WAT      O27622   5.882   8.206   4.491
 9127WAT     H127623   5.833   8.121   4.510
 9127WAT     H227624   5.823   8.284   4.511
 9128WAT      O27625   6.856   1.260   4.360
 9128WAT     H127626   6.891   1.346   4.397
 9128WAT     H227627   6.812   1.277   4.272
 9129WAT      O27628   3.150   7.811   1.332
 9129WAT     H127629   3.219   7.740   1.319
 9129WAT     H227630   3.091   7.787   1.408
 9130WAT      O27631   7.604   1.522   3.485
 9130WAT     H127632   7.575   1.612   3.516
 9130WAT     H227633   7.703   1.513   3.497
 9131WAT      O27634   6.140   3.547   0.887
 9131WAT     H127635   6.112   3.486   0.961
 9131WAT     H227636   6.163   3.637   0.924
 9132WAT      O27637   4.173   8.267   8.509
 9132WAT     H127638   4.132   8.358   8.515
 9132WAT     H227639   4.229   8.261   8.426
 9133WAT      O27640   0.398   5.398   3.198
 9133WAT     H127641   0.408   5.421   3.295
 9133WAT     H227642   0.375   5.301   3.189
 9134WAT      O27643   5.273   4.239   5.057
 9134WAT     H127644   5.308   4.271   5.145
 9134WAT     H227645   5.175   4.259   5.050
 9135WAT      O27646   3.524   3.420   4.754
 9135WAT     H127647   3.496   3.335   4.710
 9135WAT     H227648   3.447   3.483   4.758
 9136WAT      O27649   2.962   4.651   5.045
 9136WAT     H127650   2.874   4.694   5.025
 9136WAT     H227651   3.028   4.721   5.071
 9137WAT      O27652   3.186   7.413   1.576
 9137WAT     H127653   3.123   7.469   1.630
 9137WAT     H227654   3.279   7.448   1.586
 9138WAT      O27655   7.405   9.054   4.627
 9138WAT     H127656   7.379   9.130   4.686
 9138WAT     H227657   7.452   9.089   4.545
 9139WAT      O27658   0.204   4.951   0.836
 9139WAT     H127659   0.247   5.041   0.824
 9139WAT     H227660   0.223   4.895   0.755
 9140WAT      O27661   7.222   8.113   6.759
 9140WAT     H127662   7.141   8.159   6.724
 9140WAT     H227663   7.258   8.051   6.690
 9141WAT      O27664   9.819   0.264   0.841
 9141WAT     H127665   9.916   0.285   0.826
 9141WAT     H227666   9.805   0.234   0.935
 9142WAT      O27667   9.581   9.188   6.103
 9142WAT     H127668   9.681   9.185   6.098
 9142WAT     H227669   9.553   9.252   6.174
 9143WAT      O27670   7.847   8.994   5.943
 9143WAT     H127671   7.900   8.928   5.890
 9143WAT     H227672   7.865   8.980   6.041
 9144WAT      O27673   2.302   3.442   8.879
 9144WAT     H127674   2.346   3.354   8.869
 9144WAT     H227675   2.361   3.514   8.842
 9145WAT      O27676   0.522   4.876   2.808
 9145WAT     H127677   0.513   4.834   2.898
 9145WAT     H227678   0.446   4.939   2.792
 9146WAT      O27679   0.687   9.742   0.261
 9146WAT     H127680   0.665   9.790   0.346
 9146WAT     H227681   0.749   9.666   0.280
 9147WAT      O27682   7.725   2.182   8.094
 9147WAT     H127683   7.760   2.252   8.031
 9147WAT     H227684   7.625   2.175   8.083
 9148WAT      O27685   9.559   8.529   2.387
 9148WAT     H127686   9.522   8.619   2.362
 9148WAT     H227687   9.508   8.493   2.466
 9149WAT      O27688   0.187   4.646   5.889
 9149WAT     H127689   0.171   4.548   5.885
 9149WAT     H227690   0.277   4.667   5.849
 9150WAT      O27691   1.726   0.813   7.533
 9150WAT     H127692   1.787   0.857   7.468
 9150WAT     H227693   1.775   0.742   7.583
 9151WAT      O27694   9.028   0.111   0.620
 9151WAT     H127695   9.021   0.126   0.719
 9151WAT     H227696   8.974   0.181   0.572
 9152WAT      O27697   9.772   9.152   4.000
 9152WAT     H127698   9.860   9.182   4.037
 9152WAT     H227699   9.728   9.088   4.064
 9153WAT      O27700   6.309   9.571   1.840
 9153WAT     H127701   6.271   9.549   1.750
 9153WAT     H227702   6.300   9.491   1.899
 9154WAT      O27703   5.212   3.457   0.578
 9154WAT     H127704   5.273   3.458   0.658
 9154WAT     H227705   5.193   3.362   0.552
 9155WAT      O27706   5.669   0.848   0.919
 9155WAT     H127707   5.674   0.749   0.906
 9155WAT     H227708   5.734   0.892   0.857
 9156WAT      O27709   6.192   4.075   4.726
 9156WAT     H127710   6.277   4.104   4.769
 9156WAT     H227711   6.118   4.136   4.756
 9157WAT      O27712   6.461   5.492   5.317
 9157WAT     H127713   6.508   5.466   5.401
 9157WAT     H227714   6.493   5.583   5.287
 9158WAT      O27715   7.908   6.710   3.976
 9158WAT     H127716   7.846   6.683   3.902
 9158WAT     H227717   8.000   6.719   3.940
 9159WAT      O27718   1.225   9.361   5.131
 9159WAT     H127719   1.247   9.442   5.077
 9159WAT     H227720   1.309   9.311   5.152
 9160WAT      O27721   1.814   2.910   2.612
 9160WAT     H127722   1.804   2.989   2.552
 9160WAT     H227723   1.800   2.938   2.707
 9161WAT      O27724   2.107   9.368   4.332
 9161WAT     H127725   2.008   9.369   4.347
 9161WAT     H227726   2.126   9.391   4.236
 9162WAT      O27727   0.566   6.605   1.099
 9162WAT     H127728   0.621   6.558   1.168
 9162WAT     H227729   0.623   6.627   1.020
 9163WAT      O27730   0.248   0.714   8.130
 9163WAT     H127731   0.318   0.707   8.059
 9163WAT     H227732   0.284   0.679   8.217
 9164WAT      O27733   9.697   2.582   8.002
 9164WAT     H127734   9.691   2.499   8.058
 9164WAT     H227735   9.609   2.629   8.002
 9165WAT      O27736   5.785   6.096   7.309
 9165WAT     H127737   5.701   6.145   7.285
 9165WAT     H227738   5.861   6.132   7.254
 9166WAT      O27739   6.848   7.218   7.039
 9166WAT     H127740   6.870   7.235   7.135
 9166WAT     H227741   6.921   7.253   6.981
 9167WAT      O27742   0.907   3.491   9.591
 9167WAT     H127743   0.888   3.517   9.497
 9167WAT     H227744   0.983   3.427   9.594
 9168WAT      O27745   7.838   7.835   4.719
 9168WAT     H127746   7.883   7.902   4.661
 9168WAT     H227747   7.903   7.765   4.747
 9169WAT      O27748   6.246   2.074   0.517
 9169WAT     H127749   6.245   2.139   0.441
 9169WAT     H227750   6.160   2.023   0.519
 9170WAT      O27751   6.951   1.824   0.631
 9170WAT     H127752   6.986   1.747   0.577
 9170WAT     H227753   6.865   1.856   0.592
 9171WAT      O27754   7.450   2.804   5.611
 9171WAT     H127755   7.547   2.822   5.627
 9171WAT     H227756   7.440   2.739   5.536
 9172WAT      O27757   2.568   2.953   2.536
 9172WAT     H127758   2.641   3.022   2.539
 9172WAT     H227759   2.504   2.968   2.611
 9173WAT      O27760   3.979   4.626   2.625
 9173WAT     H127761   4.022   4.535   2.628
 9173WAT     H227762   3.881   4.617   2.638
 9174WAT      O27763   2.320   0.119   6.017
 9174WAT     H127764   2.266   0.203   6.023
 9174WAT     H227765   2.376   0.110   6.099
 9175WAT      O27766   6.162   4.650   5.319
 9175WAT     H127767   6.101   4.572   5.304
 9175WAT     H227768   6.194   4.685   5.232
 9176WAT      O27769   4.616   0.407   9.115
 9176WAT     H127770   4.668   0.356   9.184
 9176WAT     H227771   4.545   0.461   9.159
 9177WAT      O27772   4.962   5.755   1.872
 9177WAT     H127773   4.918   5.804   1.947
 9177WAT     H227774   4.940   5.658   1.879
 9178WAT      O27775   3.293   0.227   4.132
 9178WAT     H127776   3.321   0.135   4.161
 9178WAT     H227777   3.321   0.294   4.200
 9179WAT      O27778   4.018   7.346   3.257
 9179WAT     H127779   4.026   7.274   3.189
 9179WAT     H227780   3.926   7.345   3.296
 9180WAT      O27781   3.203   6.394   6.644
 9180WAT     H127782   3.257   6.466   6.600
 9180WAT     H227783   3.240   6.375   6.735
 9181WAT      O27784   5.814   2.941   4.816
 9181WAT     H127785   5.745   2.884   4.860
 9181WAT     H227786   5.786   3.037   4.821
 9182WAT      O27787   6.018   4.458   8.533
 9182WAT     H127788   6.103   4.494   8.495
 9182WAT     H227789   5.969   4.532   8.580
 9183WAT      O27790   4.725   6.445   2.989
 9183WAT     H127791   4.686   6.375   2.929
 9183WAT     H227792   4.754   6.402   3.075
 9184WAT      O27793   4.353   4.087   0.476
 9184WAT     H127794   4.315   4.113   0.387
 9184WAT     H227795   4.452   4.103   0.476
 9185WAT      O27796   9.138   4.457   2.645
 9185WAT     H127797   9.236   4.459   2.625
 9185WAT     H227798   9.096   4.544   2.620
 9186WAT      O27799   3.079   9.502   8.121
 9186WAT     H127800   3.131   9.429   8.077
 9186WAT     H227801   3.097   9.503   8.219
 9187WAT      O27802   3.267   8.204   3.375
 9187WAT     H127803   3.322   8.132   3.416
 9187WAT     H227804   3.174   8.171   3.361
 9188WAT      O27805   9.728   1.350   3.931
 9188WAT     H127806   9.738   1.405   3.848
 9188WAT     H227807   9.795   1.276   3.931
 9189WAT      O27808   1.373   2.361   0.193
 9189WAT     H127809   1.427   2.345   0.111
 9189WAT     H227810   1.310   2.284   0.207
 9190WAT      O27811   8.775   4.216   1.326
 9190WAT     H127812   8.788   4.214   1.425
 9190WAT     H227813   8.677   4.224   1.305
 9191WAT      O27814   0.559   2.036   1.381
 9191WAT     H127815   0.568   2.126   1.339
 9191WAT     H227816   0.468   2.027   1.421
 9192WAT      O27817   6.394   4.157   4.146
 9192WAT     H127818   6.340   4.088   4.099
 9192WAT     H227819   6.416   4.126   4.239
 9193WAT      O27820   3.248   5.098   2.520
 9193WAT     H127821   3.292   5.038   2.587
 9193WAT     H227822   3.151   5.074   2.513
 9194WAT      O27823   9.065   5.938   4.249
 9194WAT     H127824   9.029   6.005   4.315
 9194WAT     H227825   9.002   5.860   4.243
 9195WAT      O27826   2.095   7.035   1.208
 9195WAT     H127827   2.163   7.035   1.135
 9195WAT     H227828   2.132   7.081   1.289
 9196WAT      O27829   9.634   2.457   9.311
 9196WAT     H127830   9.696   2.391   9.352
 9196WAT     H227831   9.639   2.449   9.211
 9197WAT      O27832   5.712   2.393   9.122
 9197WAT     H127833   5.800   2.428   9.153
 9197WAT     H227834   5.668   2.343   9.197
 9198WAT      O27835   5.984   6.883   7.618
 9198WAT     H127836   5.921   6.828   7.563
 9198WAT     H227837   5.962   6.873   7.715
 9199WAT      O27838   3.992   5.559   3.249
 9199WAT     H127839   4.039   5.634   3.298
 9199WAT     H227840   3.917   5.525   3.306
 9200WAT      O27841   4.913   6.048   3.648
 9200WAT     H127842   4.895   6.019   3.554
 9200WAT     H227843   4.985   5.991   3.687
 9201WAT      O27844   4.244   5.114   4.930
 9201WAT     H127845   4.182   5.188   4.958
 9201WAT     H227846   4.334   5.130   4.970
 9202WAT      O27847   8.362   0.571   5.308
 9202WAT     H127848   8.440   0.633   5.304
 9202WAT     H227849   8.284   0.612   5.261
 9203WAT      O27850   1.952   8.228   9.894
 9203WAT     H127851   1.984   8.147   9.944
 9203WAT     H227852   1.933   8.202   9.799
 9204WAT      O27853   7.418   8.484   2.913
 9204WAT     H127854   7.359   8.426   2.856
 9204WAT     H227855   7.413   8.578   2.880
 9205WAT      O27856   6.887   3.152   8.420
 9205WAT     H127857   6.827   3.073   8.433
 9205WAT     H227858   6.980   3.129   8.450
 9206WAT      O27859   3.323   1.250   1.214
 9206WAT     H127860   3.388   1.280   1.284
 9206WAT     H227861   3.372   1.226   1.131
 9207WAT      O27862   2.472   7.868   8.961
 9207WAT     H127863   2.563   7.843   8.995
 9207WAT     H227864   2.443   7.955   9.003
 9208WAT      O27865   8.399   6.762   3.763
 9208WAT     H127866   8.437   6.677   3.800
 9208WAT     H227867   8.474   6.826   3.745
 9209WAT      O27868   7.089   5.683   0.342
 9209WAT     H127869   7.184   5.655   0.337
 9209WAT     H227870   7.036   5.613   0.390
 9210WAT      O27871   3.999   7.015   9.853
 9210WAT     H127872   3.950   6.931   9.830
 9210WAT     H227873   3.933   7.085   9.882
 9211WAT      O27874   5.553   5.527   7.787
 9211WAT     H127875   5.641   5.556   7.750
 9211WAT     H227876   5.566   5.452   7.852
 9212WAT      O27877   1.481   1.585   2.682
 9212WAT     H127878   1.580   1.588   2.700
 9212WAT     H227879   1.464   1.553   2.589
 9213WAT      O27880   8.579   1.512   6.481
 9213WAT     H127881   8.661   1.455   6.477
 9213WAT     H227882   8.550   1.523   6.576
 9214WAT      O27883   5.733   7.348   5.963
 9214WAT     H127884   5.782   7.405   6.029
 9214WAT     H227885   5.642   7.326   5.999
 9215WAT      O27886   8.812   0.499   0.956
 9215WAT     H127887   8.824   0.560   1.035
 9215WAT     H227888   8.802   0.554   0.873
 9216WAT      O27889   7.571   8.296   0.581
 9216WAT     H127890   7.630   8.225   0.543
 9216WAT     H227891   7.479   8.259   0.596
 9217WAT      O27892   5.542   2.759   6.807
 9217WAT     H127893   5.604   2.829   6.772
 9217WAT     H227894   5.551   2.754   6.906
 9218WAT      O27895   3.881   0.745   9.231
 9218WAT     H127896   3.836   0.812   9.171
 9218WAT     H227897   3.949   0.693   9.179
 9219WAT      O27898   2.258   4.579   0.513
 9219WAT     H127899   2.324   4.539   0.449
 9219WAT     H227900   2.290   4.669   0.543
 9220WAT      O27901   6.867   5.888   8.211
 9220WAT     H127902   6.816   5.924   8.133
 9220WAT     H227903   6.884   5.961   8.277
 9221WAT      O27904   1.605   6.958   5.895
 9221WAT     H127905   1.652   7.018   5.959
 9221WAT     H227906   1.508   6.982   5.892
 9222WAT      O27907   8.740   9.587   4.345
 9222WAT     H127908   8.749   9.508   4.405
 9222WAT     H227909   8.779   9.566   4.255
 9223WAT      O27910   6.235   2.886   7.969
 9223WAT     H127911   6.271   2.792   7.971
 9223WAT     H227912   6.270   2.936   8.048
 9224WAT      O27913   1.296   7.886   6.566
 9224WAT     H127914   1.261   7.851   6.653
 9224WAT     H227915   1.394   7.903   6.574
 9225WAT      O27916   6.738   7.484   7.115
 9225WAT     H127917   6.786   7.412   7.065
 9225WAT     H227918   6.647   7.451   7.142
 9226WAT      O27919   2.808   8.942   9.324
 9226WAT     H127920   2.775   8.950   9.418
 9226WAT     H227921   2.731   8.954   9.261
 9227WAT      O27922   6.703   1.321   8.476
 9227WAT     H127923   6.641   1.398   8.491
 9227WAT     H227924   6.786   1.352   8.430
 9228WAT      O27925   4.051   7.813   9.529
 9228WAT     H127926   3.984   7.869   9.578
 9228WAT     H227927   4.010   7.778   9.445
 9229WAT      O27928   3.236   4.676   1.772
 9229WAT     H127929   3.217   4.639   1.681
 9229WAT     H227930   3.248   4.600   1.837
 9230WAT      O27931   8.760   8.088   0.123
 9230WAT     H127932   8.858   8.083   0.141
 9230WAT     H227933   8.727   8.181   0.142
 9231WAT      O27934   8.896   3.982   3.434
 9231WAT     H127935   8.856   4.068   3.401
 9231WAT     H227936   8.936   3.932   3.358
 9232WAT      O27937   1.064   0.495   3.169
 9232WAT     H127938   1.040   0.413   3.118
 9232WAT     H227939   0.981   0.544   3.195
 9233WAT      O27940   2.902   0.195   2.041
 9233WAT     H127941   3.001   0.189   2.048
 9233WAT     H227942   2.875   0.289   2.024
 9234WAT      O27943   8.309   9.678   3.510
 9234WAT     H127944   8.291   9.760   3.456
 9234WAT     H227945   8.315   9.703   3.607
 9235WAT      O27946   4.199   6.746   8.545
 9235WAT     H127947   4.226   6.671   8.484
 9235WAT     H227948   4.169   6.709   8.633
 9236WAT      O27949   2.411   5.878   2.818
 9236WAT     H127950   2.395   5.969   2.780
 9236WAT     H227951   2.483   5.883   2.888
 9237WAT      O27952   3.864   5.014   0.799
 9237WAT     H127953   3.917   5.057   0.727
 9237WAT     H227954   3.906   4.927   0.825
 9238WAT      O27955   5.399   4.870   0.018
 9238WAT     H127956   5.349   4.937   0.073
 9238WAT     H227957   5.476   4.833   0.071
 9239WAT      O27958   0.812   0.417   2.215
 9239WAT     H127959   0.804   0.342   2.281
 9239WAT     H227960   0.772   0.500   2.253
 9240WAT      O27961   5.048   5.865   0.288
 9240WAT     H127962   5.120   5.804   0.257
 9240WAT     H227963   4.997   5.900   0.210
 9241WAT      O27964   3.048   9.188   2.270
 9241WAT     H127965   3.120   9.118   2.272
 9241WAT     H227966   2.971   9.156   2.216
 9242WAT      O27967   1.188   8.864   5.123
 9242WAT     H127968   1.138   8.842   5.207
 9242WAT     H227969   1.127   8.853   5.044
 9243WAT      O27970   2.553   1.883   5.954
 9243WAT     H127971   2.575   1.947   5.880
 9243WAT     H227972   2.620   1.894   6.027
 9244WAT      O27973   1.321   6.934   2.012
 9244WAT     H127974   1.232   6.916   2.056
 9244WAT     H227975   1.332   7.032   1.999
 9245WAT      O27976   1.039   6.050   3.743
 9245WAT     H127977   1.057   5.982   3.814
 9245WAT     H227978   0.983   6.124   3.781
 9246WAT      O27979   9.844   6.921   4.763
 9246WAT     H127980   9.861   6.947   4.858
 9246WAT     H227981   9.798   6.997   4.716
 9247WAT      O27982   9.497   4.432   1.182
 9247WAT     H127983   9.541   4.518   1.208
 9247WAT     H227984   9.414   4.452   1.130
 9248WAT      O27985   2.259   6.084   0.946
 9248WAT     H127986   2.217   5.995   0.936
 9248WAT     H227987   2.242   6.139   0.864
 9249WAT      O27988   2.088   4.849   3.342
 9249WAT     H127989   2.061   4.764   3.297
 9249WAT     H227990   2.079   4.925   3.278
 9250WAT      O27991   7.240   7.512   9.282
 9250WAT     H127992   7.206   7.578   9.215
 9250WAT     H227993   7.340   7.515   9.284
 9251WAT      O27994   2.787   5.268   1.124
 9251WAT     H127995   2.793   5.243   1.027
 9251WAT     H227996   2.879   5.271   1.163
 9252WAT      O27997   4.390   2.869   8.404
 9252WAT     H127998   4.487   2.846   8.393
 9252WAT     H227999   4.346   2.800   8.462
 9253WAT      O28000   2.504   8.566   8.635
 9253WAT     H128001   2.557   8.532   8.712
 9253WAT     H228002   2.531   8.518   8.551
 9254WAT      O28003   0.235   8.909   8.999
 9254WAT     H128004   0.217   8.970   9.076
 9254WAT     H228005   0.149   8.871   8.965
 9255WAT      O28006   0.907   7.419   2.207
 9255WAT     H128007   0.811   7.395   2.217
 9255WAT     H228008   0.952   7.413   2.296
 9256WAT      O28009   9.368   6.894   2.278
 9256WAT     H128010   9.442   6.919   2.215
 9256WAT     H228011   9.405   6.883   2.370
 9257WAT      O28012   1.624   0.020   2.389
 9257WAT     H128013   1.597  -0.070   2.423
 9257WAT     H228014   1.723   0.030   2.398
 9258WAT      O28015   1.206   2.157   0.229
 9258WAT     H128016   1.202   2.067   0.186
 9258WAT     H228017   1.163   2.153   0.319
 9259WAT      O28018   0.111   3.147   6.449
 9259WAT     H128019   0.023   3.119   6.490
 9259WAT     H228020   0.120   3.106   6.359
 9260WAT      O28021   0.883   0.165   4.736
 9260WAT     H128022   0.854   0.181   4.830
 9260WAT     H228023   0.812   0.196   4.673
 9261WAT      O28024   6.513   6.201   8.571
 9261WAT     H128025   6.531   6.130   8.503
 9261WAT     H228026   6.587   6.201   8.639
 9262WAT      O28027   4.405   5.415   3.705
 9262WAT     H128028   4.387   5.513   3.712
 9262WAT     H228029   4.420   5.378   3.797
 9263WAT      O28030   6.646   5.100   3.453
 9263WAT     H128031   6.627   5.009   3.415
 9263WAT     H228032   6.701   5.152   3.387
 9264WAT      O28033   3.302   7.420   0.276
 9264WAT     H128034   3.354   7.396   0.194
 9264WAT     H228035   3.223   7.359   0.284
 9265WAT      O28036   6.028   1.246   6.577
 9265WAT     H128037   6.070   1.208   6.659
 9265WAT     H228038   6.041   1.346   6.576
 9266WAT      O28039   3.222   2.977   8.152
 9266WAT     H128040   3.195   2.909   8.220
 9266WAT     H228041   3.223   3.068   8.193
 9267WAT      O28042   4.099   7.454   4.747
 9267WAT     H128043   4.151   7.488   4.826
 9267WAT     H228044   4.125   7.358   4.730
 9268WAT      O28045   4.156   6.513   1.437
 9268WAT     H128046   4.106   6.443   1.488
 9268WAT     H228047   4.197   6.578   1.501
 9269WAT      O28048   1.096   8.182   1.078
 9269WAT     H128049   1.144   8.241   1.013
 9269WAT     H228050   1.043   8.113   1.029
 9270WAT      O28051   9.596   0.759   6.685
 9270WAT     H128052   9.566   0.667   6.662
 9270WAT     H228053   9.626   0.762   6.780
 9271WAT      O28054   2.435   8.391   4.865
 9271WAT     H128055   2.363   8.431   4.808
 9271WAT     H228056   2.466   8.459   4.932
 9272WAT      O28057   7.141   2.744   2.215
 9272WAT     H128058   7.156   2.801   2.295
 9272WAT     H228059   7.214   2.676   2.207
 9273WAT      O28060   0.788   5.098   2.002
 9273WAT     H128061   0.720   5.027   1.990
 9273WAT     H228062   0.789   5.128   2.098
 9274WAT      O28063   4.679   5.218   3.108
 9274WAT     H128064   4.745   5.271   3.055
 9274WAT     H228065   4.609   5.180   3.047
 9275WAT      O28066   0.532   1.015   8.540
 9275WAT     H128067   0.439   1.049   8.559
 9275WAT     H228068   0.534   0.976   8.448
 9276WAT      O28069   8.697   0.022   5.535
 9276WAT     H128070   8.675  -0.075   5.547
 9276WAT     H228071   8.671   0.072   5.617
 9277WAT      O28072   6.707   7.433   7.894
 9277WAT     H128073   6.616   7.403   7.865
 9277WAT     H228074   6.731   7.386   7.980
 9278WAT      O28075   8.357   1.885   5.740
 9278WAT     H128076   8.363   1.934   5.827
 9278WAT     H228077   8.265   1.849   5.728
 9279WAT      O28078   2.935   1.637   0.150
 9279WAT     H128079   2.970   1.728   0.128
 9279WAT     H228080   2.866   1.610   0.083
 9280WAT      O28081   5.548   7.931   0.505
 9280WAT     H128082   5.555   7.831   0.514
 9280WAT     H228083   5.562   7.956   0.409
 9281WAT      O28084   2.788   9.137   4.039
 9281WAT     H128085   2.718   9.112   4.107
 9281WAT     H228086   2.821   9.230   4.058
 9282WAT      O28087   3.832   1.833   1.313
 9282WAT     H128088   3.863   1.902   1.379
 9282WAT     H228089   3.755   1.783   1.352
 9283WAT      O28090   8.855   6.827   7.123
 9283WAT     H128091   8.898   6.916   7.108
 9283WAT     H228092   8.912   6.755   7.084
 9284WAT      O28093   7.225   6.553   2.199
 9284WAT     H128094   7.155   6.592   2.260
 9284WAT     H228095   7.181   6.491   2.134
 9285WAT      O28096   1.744   2.029   2.442
 9285WAT     H128097   1.827   2.026   2.385
 9285WAT     H228098   1.755   2.100   2.512
 9286WAT      O28099   1.789   4.442   3.069
 9286WAT     H128100   1.879   4.403   3.045
 9286WAT     H228101   1.719   4.400   3.011
 9287WAT      O28102   0.672   7.945   4.702
 9287WAT     H128103   0.701   7.874   4.638
 9287WAT     H228104   0.609   8.007   4.656
 9288WAT      O28105   9.429   7.052   3.463
 9288WAT     H128106   9.448   6.978   3.398
 9288WAT     H228107   9.332   7.077   3.457
 9289WAT      O28108   1.104   1.890   1.877
 9289WAT     H128109   1.170   1.966   1.871
 9289WAT     H228110   1.011   1.927   1.880
 9290WAT      O28111   0.647   4.591   5.580
 9290WAT     H128112   0.733   4.553   5.614
 9290WAT     H228113   0.623   4.546   5.494
 9291WAT      O28114   7.354   7.225   8.913
 9291WAT     H128115   7.285   7.192   8.978
 9291WAT     H228116   7.396   7.309   8.949
 9292WAT      O28117   4.138   3.770   9.428
 9292WAT     H128118   4.100   3.836   9.364
 9292WAT     H228119   4.066   3.740   9.492
 9293WAT      O28120   8.208   6.835   6.661
 9293WAT     H128121   8.263   6.879   6.590
 9293WAT     H228122   8.213   6.889   6.745
 9294WAT      O28123   8.522   8.093   3.689
 9294WAT     H128124   8.458   8.169   3.699
 9294WAT     H228125   8.612   8.129   3.665
 9295WAT      O28126   8.596   6.943   5.874
 9295WAT     H128127   8.561   7.009   5.807
 9295WAT     H228128   8.535   6.939   5.953
 9296WAT      O28129   6.258   6.148   9.536
 9296WAT     H128130   6.173   6.099   9.518
 9296WAT     H228131   6.334   6.103   9.488
 9297WAT      O28132   4.773   4.178   8.793
 9297WAT     H128133   4.750   4.272   8.818
 9297WAT     H228134   4.823   4.179   8.706
 9298WAT      O28135   8.229   3.348   7.924
 9298WAT     H128136   8.242   3.279   7.854
 9298WAT     H228137   8.227   3.304   8.014
 9299WAT      O28138   8.138   4.290   4.926
 9299WAT     H128139   8.052   4.241   4.915
 9299WAT     H228140   8.155   4.347   4.846
 9300WAT      O28141   6.331   7.083   3.691
 9300WAT     H128142   6.309   7.069   3.788
 9300WAT     H228143   6.429   7.065   3.676
 9301WAT      O28144   8.781   3.399   3.761
 9301WAT     H128145   8.796   3.424   3.857
 9301WAT     H228146   8.740   3.476   3.713
 9302WAT      O28147   0.811   8.460   8.839
 9302WAT     H128148   0.790   8.449   8.936
 9302WAT     H228149   0.795   8.373   8.792
 9303WAT      O28150   0.905   5.885   6.638
 9303WAT     H128151   0.905   5.983   6.622
 9303WAT     H228152   0.996   5.856   6.668
 9304WAT      O28153   0.166   7.772   3.861
 9304WAT     H128154   0.237   7.731   3.803
 9304WAT     H228155   0.081   7.779   3.810
 9305WAT      O28156   1.651   7.300   6.700
 9305WAT     H128157   1.585   7.237   6.660
 9305WAT     H228158   1.604   7.372   6.750
 9306WAT      O28159   8.129   4.488   8.057
 9306WAT     H128160   8.152   4.431   7.978
 9306WAT     H228161   8.097   4.430   8.132
 9307WAT      O28162   8.098   1.076   9.454
 9307WAT     H128163   8.154   1.133   9.514
 9307WAT     H228164   8.047   1.010   9.509
 9308WAT      O28165   6.182   3.036   6.902
 9308WAT     H128166   6.260   3.011   6.845
 9308WAT     H228167   6.146   3.125   6.873
 9309WAT      O28168   6.718   6.194   6.273
 9309WAT     H128169   6.632   6.241   6.293
 9309WAT     H228170   6.795   6.254   6.297
 9310WAT      O28171   5.884   6.153   3.313
 9310WAT     H128172   5.799   6.130   3.267
 9310WAT     H228173   5.933   6.222   3.261
 9311WAT      O28174   8.463   8.379   4.728
 9311WAT     H128175   8.496   8.460   4.777
 9311WAT     H228176   8.522   8.301   4.747
 9312WAT      O28177   5.217   5.183   3.023
 9312WAT     H128178   5.216   5.243   2.943
 9312WAT     H228179   5.129   5.138   3.033
 9313WAT      O28180   2.641   7.692   6.674
 9313WAT     H128181   2.669   7.684   6.769
 9313WAT     H228182   2.558   7.748   6.668
 9314WAT      O28183   7.444   9.444   3.137
 9314WAT     H128184   7.527   9.392   3.157
 9314WAT     H228185   7.452   9.536   3.176
 9315WAT      O28186   0.073   2.094   6.053
 9315WAT     H128187   0.146   2.111   6.119
 9315WAT     H228188   0.111   2.094   5.961
 9316WAT      O28189   5.573   8.937   1.767
 9316WAT     H128190   5.583   8.968   1.862
 9316WAT     H228191   5.592   8.838   1.763
 9317WAT      O28192   2.266   3.352   4.430
 9317WAT     H128193   2.182   3.305   4.405
 9317WAT     H228194   2.257   3.449   4.411
 9318WAT      O28195   0.684   0.660   2.008
 9318WAT     H128196   0.765   0.626   1.960
 9318WAT     H228197   0.677   0.759   1.996
 9319WAT      O28198   0.350   5.844   6.222
 9319WAT     H128199   0.406   5.765   6.196
 9319WAT     H228200   0.297   5.875   6.144
 9320WAT      O28201   4.057   6.245   5.978
 9320WAT     H128202   3.979   6.305   5.995
 9320WAT     H228203   4.032   6.179   5.906
 9321WAT      O28204   7.172   6.332   4.306
 9321WAT     H128205   7.137   6.271   4.377
 9321WAT     H228206   7.148   6.295   4.216
 9322WAT      O28207   8.518   5.535   0.913
 9322WAT     H128208   8.429   5.514   0.873
 9322WAT     H228209   8.589   5.533   0.842
 9323WAT      O28210   6.089   8.370   2.777
 9323WAT     H128211   6.162   8.305   2.753
 9323WAT     H228212   6.012   8.319   2.815
 9324WAT      O28213   2.132   1.368   9.647
 9324WAT     H128214   2.112   1.405   9.737
 9324WAT     H228215   2.046   1.343   9.601
 9325WAT      O28216   4.402   2.284   1.842
 9325WAT     H128217   4.404   2.310   1.939
 9325WAT     H228218   4.466   2.341   1.791
 9326WAT      O28219   8.939   4.535   3.004
 9326WAT     H128220   8.854   4.497   3.042
 9326WAT     H228221   8.918   4.583   2.919
 9327WAT      O28222   4.071   3.112   2.174
 9327WAT     H128223   4.027   3.154   2.095
 9327WAT     H228224   4.005   3.101   2.248
 9328WAT      O28225   5.923   3.539   0.250
 9328WAT     H128226   5.911   3.518   0.347
 9328WAT     H228227   5.909   3.637   0.235
 9329WAT      O28228   1.045   9.574   6.413
 9329WAT     H128229   1.112   9.501   6.413
 9329WAT     H228230   0.986   9.566   6.494
 9330WAT      O28231   3.334   0.249   2.765
 9330WAT     H128232   3.380   0.163   2.746
 9330WAT     H228233   3.237   0.241   2.740
 9331WAT      O28234   1.470   1.025   0.015
 9331WAT     H128235   1.515   1.113   0.003
 9331WAT     H228236   1.452   1.009   0.112
 9332WAT      O28237   2.206   4.495   7.988
 9332WAT     H128238   2.224   4.459   7.897
 9332WAT     H228239   2.265   4.574   8.006
 9333WAT      O28240   1.824   6.935   8.851
 9333WAT     H128241   1.796   6.842   8.825
 9333WAT     H228242   1.914   6.954   8.811
 9334WAT      O28243   9.790   7.874   0.154
 9334WAT     H128244   9.813   7.898   0.248
 9334WAT     H228245   9.741   7.787   0.153
 9335WAT      O28246   1.649   7.699   1.464
 9335WAT     H128247   1.620   7.788   1.498
 9335WAT     H228248   1.749   7.695   1.462
 9336WAT      O28249   9.378   9.034   0.432
 9336WAT     H128250   9.389   8.990   0.521
 9336WAT     H228251   9.357   8.964   0.364
 9337WAT      O28252   1.251   5.387   7.249
 9337WAT     H128253   1.342   5.348   7.261
 9337WAT     H228254   1.183   5.329   7.294
 9338WAT      O28255   5.602   9.763   3.665
 9338WAT     H128256   5.550   9.826   3.608
 9338WAT     H228257   5.571   9.771   3.760
 9339WAT      O28258   3.629   8.519   3.709
 9339WAT     H128259   3.716   8.568   3.705
 9339WAT     H228260   3.623   8.455   3.632
 9340WAT      O28261   1.900   2.789   3.022
 9340WAT     H128262   1.836   2.712   3.023
 9340WAT     H228263   1.962   2.780   2.945
 9341WAT      O28264   9.037   7.347   4.389
 9341WAT     H128265   8.989   7.434   4.399
 9341WAT     H228266   8.972   7.272   4.406
 9342WAT      O28267   8.138   6.856   7.069
 9342WAT     H128268   8.185   6.770   7.086
 9342WAT     H228269   8.195   6.932   7.099
 9343WAT      O28270   6.652   8.300   4.450
 9343WAT     H128271   6.693   8.213   4.423
 9343WAT     H228272   6.558   8.284   4.481
 9344WAT      O28273   7.273   1.233   7.904
 9344WAT     H128274   7.344   1.247   7.836
 9344WAT     H228275   7.218   1.316   7.914
 9345WAT      O28276   5.349   9.091   2.720
 9345WAT     H128277   5.423   9.030   2.693
 9345WAT     H228278   5.315   9.065   2.810
 9346WAT      O28279   4.013   2.624   0.144
 9346WAT     H128280   4.096   2.575   0.116
 9346WAT     H228281   4.015   2.637   0.243
 9347WAT      O28282   4.056   7.404   6.248
 9347WAT     H128283   4.015   7.392   6.157
 9347WAT     H228284   4.092   7.496   6.257
 9348WAT      O28285   4.741   0.392   8.033
 9348WAT     H128286   4.701   0.399   7.942
 9348WAT     H228287   4.706   0.466   8.091
 9349WAT      O28288   7.370   2.912   6.205
 9349WAT     H128289   7.416   2.832   6.165
 9349WAT     H228290   7.369   2.904   6.305
 9350WAT      O28291   7.062   5.596   2.714
 9350WAT     H128292   7.029   5.512   2.756
 9350WAT     H228293   7.144   5.576   2.660
 9351WAT      O28294   0.220   4.959   4.584
 9351WAT     H128295   0.132   5.006   4.583
 9351WAT     H228296   0.292   5.021   4.555
 9352WAT      O28297   5.143   3.360   4.019
 9352WAT     H128298   5.220   3.397   4.072
 9352WAT     H228299   5.174   3.283   3.965
 9353WAT      O28300   1.296   9.393   2.216
 9353WAT     H128301   1.316   9.394   2.314
 9353WAT     H228302   1.201   9.363   2.202
 9354WAT      O28303   6.354   1.880   8.972
 9354WAT     H128304   6.451   1.864   8.954
 9354WAT     H228305   6.338   1.883   9.070
 9355WAT      O28306   7.935   4.677   1.881
 9355WAT     H128307   7.977   4.634   1.960
 9355WAT     H228308   7.867   4.616   1.841
 9356WAT      O28309   8.078   1.833   4.304
 9356WAT     H128310   8.103   1.751   4.253
 9356WAT     H228311   8.142   1.847   4.379
 9357WAT      O28312   9.294   3.799   0.608
 9357WAT     H128313   9.270   3.702   0.595
 9357WAT     H228314   9.325   3.812   0.702
 9358WAT      O28315   8.502   8.422   6.949
 9358WAT     H128316   8.435   8.365   6.998
 9358WAT     H228317   8.456   8.474   6.878
 9359WAT      O28318   3.235   8.699   5.737
 9359WAT     H128319   3.137   8.686   5.725
 9359WAT     H228320   3.255   8.797   5.743
 9360WAT      O28321   7.968   4.587   3.867
 9360WAT     H128322   7.876   4.568   3.902
 9360WAT     H228323   8.033   4.524   3.907
 9361WAT      O28324   9.813   3.963   3.251
 9361WAT     H128325   9.735   3.975   3.313
 9361WAT     H228326   9.838   3.867   3.248
 9362WAT      O28327   3.544   4.371   3.849
 9362WAT     H128328   3.446   4.389   3.858
 9362WAT     H228329   3.595   4.430   3.912
 9363WAT      O28330   9.310   7.764   5.064
 9363WAT     H128331   9.314   7.708   5.146
 9363WAT     H228332   9.402   7.793   5.037
 9364WAT      O28333   8.200   6.329   7.895
 9364WAT     H128334   8.213   6.344   7.797
 9364WAT     H228335   8.121   6.381   7.927
 9365WAT      O28336   9.270   7.054   5.321
 9365WAT     H128337   9.275   6.957   5.344
 9365WAT     H228338   9.354   7.082   5.274
 9366WAT      O28339   9.353   1.511   4.726
 9366WAT     H128340   9.255   1.520   4.710
 9366WAT     H228341   9.369   1.480   4.820
 9367WAT      O28342   4.136   5.445   4.751
 9367WAT     H128343   4.171   5.527   4.704
 9367WAT     H228344   4.049   5.467   4.795
 9368WAT      O28345   2.999   7.287   1.232
 9368WAT     H128346   3.090   7.307   1.268
 9368WAT     H228347   3.005   7.213   1.165
 9369WAT      O28348   4.607   7.481   9.864
 9369WAT     H128349   4.516   7.441   9.870
 9369WAT     H228350   4.676   7.409   9.872
 9370WAT      O28351   9.158   1.120   5.417
 9370WAT     H128352   9.156   1.043   5.353
 9370WAT     H228353   9.189   1.202   5.368
 9371WAT      O28354   0.350   7.460   4.680
 9371WAT     H128355   0.405   7.535   4.718
 9371WAT     H228356   0.405   7.408   4.615
 9372WAT      O28357   2.323   5.974   3.228
 9372WAT     H128358   2.330   5.979   3.328
 9372WAT     H228359   2.409   6.005   3.187
 9373WAT      O28360   1.991   8.444   0.326
 9373WAT     H128361   2.002   8.476   0.232
 9373WAT     H228362   1.895   8.454   0.353
 9374WAT      O28363   4.401   7.402   3.476
 9374WAT     H128364   4.448   7.428   3.561
 9374WAT     H228365   4.337   7.328   3.495
 9375WAT      O28366   6.663   7.326   4.289
 9375WAT     H128367   6.716   7.289   4.213
 9375WAT     H228368   6.565   7.312   4.271
 9376WAT      O28369   2.533   7.651   7.410
 9376WAT     H128370   2.438   7.672   7.387
 9376WAT     H228371   2.594   7.700   7.347
 9377WAT      O28372   4.807   3.522   8.023
 9377WAT     H128373   4.846   3.578   8.096
 9377WAT     H228374   4.813   3.426   8.049
 9378WAT      O28375   5.770   6.800   8.915
 9378WAT     H128376   5.794   6.741   8.991
 9378WAT     H228377   5.674   6.829   8.923
 9379WAT      O28378   4.069   2.781   2.240
 9379WAT     H128379   4.010   2.774   2.320
 9379WAT     H228380   4.152   2.728   2.255
 9380WAT      O28381   7.574   2.436   1.762
 9380WAT     H128382   7.576   2.369   1.836
 9380WAT     H228383   7.533   2.395   1.680
 9381WAT      O28384   5.211   0.872   6.886
 9381WAT     H128385   5.201   0.776   6.860
 9381WAT     H228386   5.167   0.930   6.818
 9382WAT      O28387   1.805   2.029   6.109
 9382WAT     H128388   1.884   2.037   6.047
 9382WAT     H228389   1.796   1.934   6.138
 9383WAT      O28390   7.815   9.348   9.565
 9383WAT     H128391   7.768   9.269   9.526
 9383WAT     H228392   7.750   9.403   9.617
 9384WAT      O28393   9.739   7.672   9.688
 9384WAT     H128394   9.798   7.752   9.676
 9384WAT     H228395   9.743   7.615   9.606
 9385WAT      O28396   0.597   6.212   9.369
 9385WAT     H128397   0.675   6.164   9.409
 9385WAT     H228398   0.601   6.205   9.269
 9386WAT      O28399   1.946   0.855   2.225
 9386WAT     H128400   1.916   0.787   2.157
 9386WAT     H228401   1.964   0.809   2.312
 9387WAT      O28402   1.479   3.097   0.822
 9387WAT     H128403   1.468   3.026   0.891
 9387WAT     H228404   1.419   3.078   0.744
 9388WAT      O28405   0.320   7.940   1.228
 9388WAT     H128406   0.266   7.956   1.145
 9388WAT     H228407   0.314   8.020   1.288
 9389WAT      O28408   8.308   3.084   4.177
 9389WAT     H128409   8.316   3.065   4.079
 9389WAT     H228410   8.211   3.096   4.201
 9390WAT      O28411   8.894   7.764   9.679
 9390WAT     H128412   8.948   7.825   9.737
 9390WAT     H228413   8.826   7.818   9.630
 9391WAT      O28414   4.681   2.425   1.329
 9391WAT     H128415   4.667   2.394   1.235
 9391WAT     H228416   4.758   2.488   1.332
 9392WAT      O28417   3.037   1.412   7.759
 9392WAT     H128418   3.092   1.371   7.833
 9392WAT     H228419   2.950   1.363   7.752
 9393WAT      O28420   0.562   9.077   3.610
 9393WAT     H128421   0.502   9.123   3.674
 9393WAT     H228422   0.619   9.011   3.659
 9394WAT      O28423   2.880   5.964   8.965
 9394WAT     H128424   2.899   6.029   8.892
 9394WAT     H228425   2.814   5.896   8.934
 9395WAT      O28426   4.027   9.327   4.622
 9395WAT     H128427   4.069   9.310   4.533
 9395WAT     H228428   4.065   9.410   4.662
 9396WAT      O28429   4.144   0.188   5.817
 9396WAT     H128430   4.107   0.095   5.819
 9396WAT     H228431   4.241   0.186   5.840
 9397WAT      O28432   2.466   7.390   9.855
 9397WAT     H128433   2.412   7.474   9.858
 9397WAT     H228434   2.406   7.313   9.830
 9398WAT      O28435   3.628   0.972   7.932
 9398WAT     H128436   3.619   0.968   7.833
 9398WAT     H228437   3.589   0.889   7.972
 9399WAT      O28438   4.971   1.379   2.960
 9399WAT     H128439   4.938   1.472   2.941
 9399WAT     H228440   5.046   1.384   3.027
 9400WAT      O28441   4.211   4.079   8.453
 9400WAT     H128442   4.235   3.982   8.450
 9400WAT     H228443   4.112   4.090   8.438
 9401WAT      O28444   9.705   8.510   5.257
 9401WAT     H128445   9.611   8.534   5.283
 9401WAT     H228446   9.714   8.410   5.254
 9402WAT      O28447   1.379   1.632   9.383
 9402WAT     H128448   1.297   1.665   9.429
 9402WAT     H228449   1.428   1.709   9.343
 9403WAT      O28450   8.250   7.726   1.073
 9403WAT     H128451   8.169   7.782   1.060
 9403WAT     H228452   8.265   7.669   0.993
 9404WAT      O28453   5.756   5.226   9.847
 9404WAT     H128454   5.831   5.165   9.871
 9404WAT     H228455   5.687   5.176   9.795
 9405WAT      O28456   1.464   1.673   0.700
 9405WAT     H128457   1.540   1.608   0.709
 9405WAT     H228458   1.388   1.629   0.653
 9406WAT      O28459   0.390   2.581   0.823
 9406WAT     H128460   0.342   2.503   0.784
 9406WAT     H228461   0.359   2.665   0.779
 9407WAT      O28462   8.700   7.475   1.812
 9407WAT     H128463   8.755   7.505   1.734
 9407WAT     H228464   8.652   7.553   1.852
 9408WAT      O28465   1.593   3.125   2.648
 9408WAT     H128466   1.660   3.154   2.581
 9408WAT     H228467   1.639   3.094   2.731
 9409WAT      O28468   7.319   6.883   5.662
 9409WAT     H128469   7.229   6.844   5.683
 9409WAT     H228470   7.341   6.867   5.566
 9410WAT      O28471   8.460   5.216   5.360
 9410WAT     H128472   8.475   5.312   5.383
 9410WAT     H228473   8.544   5.164   5.377
 9411WAT      O28474   5.394   5.474   7.200
 9411WAT     H128475   5.419   5.513   7.289
 9411WAT     H228476   5.299   5.499   7.178
 9412WAT      O28477   2.835   5.586   8.403
 9412WAT     H128478   2.922   5.539   8.390
 9412WAT     H228479   2.788   5.546   8.482
 9413WAT      O28480   8.992   3.709   7.097
 9413WAT     H128481   8.971   3.701   7.194
 9413WAT     H228482   8.993   3.618   7.056
 9414WAT      O28483   3.819   6.035   8.644
 9414WAT     H128484   3.859   6.110   8.593
 9414WAT     H228485   3.877   5.954   8.636
 9415WAT      O28486   8.861   0.750   6.681
 9415WAT     H128487   8.786   0.726   6.619
 9415WAT     H228488   8.915   0.668   6.702
 9416WAT      O28489   7.681   8.614   8.051
 9416WAT     H128490   7.712   8.668   8.130
 9416WAT     H228491   7.627   8.672   7.990
 9417WAT      O28492   7.720   2.884   6.304
 9417WAT     H128493   7.639   2.943   6.308
 9417WAT     H228494   7.724   2.839   6.215
 9418WAT      O28495   9.171   3.797   5.519
 9418WAT     H128496   9.131   3.804   5.610
 9418WAT     H228497   9.156   3.705   5.483
 9419WAT      O28498   1.152   4.219   8.019
 9419WAT     H128499   1.059   4.211   7.982
 9419WAT     H228500   1.163   4.310   8.059
 9420WAT      O28501   2.059   3.492   8.308
 9420WAT     H128502   2.001   3.511   8.388
 9420WAT     H228503   2.097   3.578   8.274
 9421WAT      O28504   2.087   6.058   7.104
 9421WAT     H128505   2.151   6.135   7.101
 9421WAT     H228506   2.137   5.972   7.096
 9422WAT      O28507   9.351   6.320   8.954
 9422WAT     H128508   9.307   6.230   8.944
 9422WAT     H228509   9.401   6.323   9.041
 9423WAT      O28510   9.885   0.802   8.029
 9423WAT     H128511   9.980   0.775   8.042
 9423WAT     H228512   9.859   0.872   8.095
 9424WAT      O28513   8.916   0.881   3.387
 9424WAT     H128514   8.855   0.954   3.418
 9424WAT     H228515   8.861   0.807   3.347
 9425WAT      O28516   0.309   0.288   4.324
 9425WAT     H128517   0.310   0.292   4.424
 9425WAT     H228518   0.400   0.310   4.289
 9426WAT      O28519   4.622   9.001   3.348
 9426WAT     H128520   4.546   8.948   3.386
 9426WAT     H228521   4.589   9.089   3.315
 9427WAT      O28522   9.672   2.885   8.357
 9427WAT     H128523   9.595   2.914   8.414
 9427WAT     H228524   9.709   2.964   8.308
 9428WAT      O28525   3.558   7.153   4.754
 9428WAT     H128526   3.508   7.198   4.680
 9428WAT     H228527   3.610   7.221   4.805
 9429WAT      O28528   7.163   7.105   3.608
 9429WAT     H128529   7.183   7.192   3.654
 9429WAT     H228530   7.195   7.029   3.665
 9430WAT      O28531   2.356   0.195   7.849
 9430WAT     H128532   2.387   0.105   7.880
 9430WAT     H228533   2.341   0.254   7.928
 9431WAT      O28534   1.722   6.440   1.617
 9431WAT     H128535   1.820   6.438   1.597
 9431WAT     H228536   1.692   6.534   1.632
 9432WAT      O28537   9.166   0.213   2.073
 9432WAT     H128538   9.165   0.297   2.020
 9432WAT     H228539   9.077   0.167   2.065
 9433WAT      O28540   0.812   5.685   4.740
 9433WAT     H128541   0.816   5.586   4.729
 9433WAT     H228542   0.796   5.727   4.651
 9434WAT      O28543   1.851   9.720   9.509
 9434WAT     H128544   1.762   9.751   9.475
 9434WAT     H228545   1.836   9.648   9.578
 9435WAT      O28546   3.344   4.583   0.197
 9435WAT     H128547   3.334   4.544   0.106
 9435WAT     H228548   3.385   4.674   0.191
 9436WAT      O28549   9.482   2.184   9.853
 9436WAT     H128550   9.577   2.151   9.848
 9436WAT     H228551   9.460   2.209   9.947
 9437WAT      O28552   6.939   6.857   6.446
 9437WAT     H128553   7.003   6.853   6.369
 9437WAT     H228554   6.987   6.886   6.528
 9438WAT      O28555   3.366   6.665   9.697
 9438WAT     H128556   3.406   6.676   9.788
 9438WAT     H228557   3.302   6.739   9.679
 9439WAT      O28558   6.995   0.051   2.007
 9439WAT     H128559   7.017   0.118   2.078
 9439WAT     H228560   6.995   0.095   1.918
 9440WAT      O28561   5.175   5.063   9.146
 9440WAT     H128562   5.197   5.141   9.087
 9440WAT     H228563   5.179   4.978   9.094
 9441WAT      O28564   0.344   4.343   7.740
 9441WAT     H128565   0.389   4.412   7.684
 9441WAT     H228566   0.412   4.277   7.773
 9442WAT      O28567   6.940   1.526   8.924
 9442WAT     H128568   6.923   1.533   9.022
 9442WAT     H228569   7.027   1.571   8.903
 9443WAT      O28570   7.055   1.209   5.988
 9443WAT     H128571   6.972   1.155   6.002
 9443WAT     H228572   7.040   1.275   5.914
 9444WAT      O28573   2.806   5.006   4.033
 9444WAT     H128574   2.719   5.052   4.050
 9444WAT     H228575   2.822   4.937   4.104
 9445WAT      O28576   6.563   4.251   7.221
 9445WAT     H128577   6.499   4.174   7.232
 9445WAT     H228578   6.643   4.221   7.169
 9446WAT      O28579   3.806   3.112   9.210
 9446WAT     H128580   3.710   3.121   9.235
 9446WAT     H228581   3.823   3.164   9.126
 9447WAT      O28582   6.781   8.703   1.292
 9447WAT     H128583   6.763   8.747   1.380
 9447WAT     H228584   6.737   8.755   1.219
 9448WAT      O28585   3.131   2.718   3.924
 9448WAT     H128586   3.166   2.662   3.850
 9448WAT     H228587   3.032   2.731   3.912
 9449WAT      O28588   3.632   5.156   9.454
 9449WAT     H128589   3.662   5.234   9.509
 9449WAT     H228590   3.563   5.186   9.389
 9450WAT      O28591   3.561   3.429   7.300
 9450WAT     H128592   3.596   3.464   7.213
 9450WAT     H228593   3.615   3.467   7.375
 9451WAT      O28594   0.085   2.832   7.992
 9451WAT     H128595   0.118   2.889   7.917
 9451WAT     H228596   0.013   2.772   7.959
 9452WAT      O28597   6.951   5.289   2.101
 9452WAT     H128598   6.910   5.224   2.037
 9452WAT     H228599   7.001   5.239   2.172
 9453WAT      O28600   4.886   6.254   3.130
 9453WAT     H128601   4.955   6.183   3.121
 9453WAT     H228602   4.922   6.330   3.184
 9454WAT      O28603   5.160   3.092   6.745
 9454WAT     H128604   5.154   2.996   6.773
 9454WAT     H228605   5.098   3.108   6.668
 9455WAT      O28606   6.444   5.040   6.747
 9455WAT     H128607   6.530   5.069   6.706
 9455WAT     H228608   6.438   4.940   6.746
 9456WAT      O28609   0.606   1.310   2.551
 9456WAT     H128610   0.687   1.325   2.608
 9456WAT     H228611   0.591   1.390   2.493
 9457WAT      O28612   6.258   9.227   6.515
 9457WAT     H128613   6.207   9.312   6.509
 9457WAT     H228614   6.196   9.150   6.497
 9458WAT      O28615   7.822   5.724   7.444
 9458WAT     H128616   7.842   5.775   7.361
 9458WAT     H228617   7.723   5.707   7.450
 9459WAT      O28618   7.548   1.716   1.441
 9459WAT     H128619   7.462   1.699   1.393
 9459WAT     H228620   7.621   1.731   1.374
 9460WAT      O28621   2.716   2.961   3.607
 9460WAT     H128622   2.639   2.899   3.594
 9460WAT     H228623   2.761   2.978   3.520
 9461WAT      O28624   5.856   4.757   0.003
 9461WAT     H128625   5.825   4.734   0.095
 9461WAT     H228626   5.779   4.751  -0.061
 9462WAT      O28627   2.544   0.544   2.957
 9462WAT     H128628   2.480   0.565   3.031
 9462WAT     H228629   2.549   0.445   2.945
 9463WAT      O28630   3.275   3.696   6.225
 9463WAT     H128631   3.244   3.717   6.132
 9463WAT     H228632   3.234   3.760   6.290
 9464WAT      O28633   3.465   9.793   8.913
 9464WAT     H128634   3.450   9.744   9.000
 9464WAT     H228635   3.382   9.786   8.857
 9465WAT      O28636   6.663   0.102   0.175
 9465WAT     H128637   6.634   0.007   0.170
 9465WAT     H228638   6.733   0.112   0.246
 9466WAT      O28639   0.450   2.312   1.692
 9466WAT     H128640   0.434   2.317   1.594
 9466WAT     H228641   0.527   2.372   1.716
 9467WAT      O28642   1.505   1.633   1.164
 9467WAT     H128643   1.514   1.637   1.064
 9467WAT     H228644   1.506   1.726   1.201
 9468WAT      O28645   0.290   1.216   5.558
 9468WAT     H128646   0.369   1.211   5.620
 9468WAT     H228647   0.284   1.130   5.506
 9469WAT      O28648   0.114   7.541   7.638
 9469WAT     H128649   0.154   7.478   7.571
 9469WAT     H228650   0.177   7.617   7.654
 9470WAT      O28651   8.424   0.737   1.227
 9470WAT     H128652   8.449   0.710   1.320
 9470WAT     H228653   8.422   0.837   1.220
 9471WAT      O28654   9.560   8.408   0.975
 9471WAT     H128655   9.491   8.462   0.927
 9471WAT     H228656   9.537   8.403   1.072
 9472WAT      O28657   6.702   0.792   6.363
 9472WAT     H128658   6.761   0.711   6.360
 9472WAT     H228659   6.712   0.836   6.452
 9473WAT      O28660   7.386   6.348   5.725
 9473WAT     H128661   7.465   6.403   5.751
 9473WAT     H228662   7.411   6.287   5.650
 9474WAT      O28663   2.795   5.749   9.580
 9474WAT     H128664   2.756   5.702   9.659
 9474WAT     H228665   2.825   5.681   9.512
 9475WAT      O28666   6.424   3.612   7.032
 9475WAT     H128667   6.355   3.561   6.981
 9475WAT     H228668   6.383   3.648   7.116
 9476WAT      O28669   9.488   3.348   1.311
 9476WAT     H128670   9.550   3.272   1.331
 9476WAT     H228671   9.443   3.377   1.395
 9477WAT      O28672   4.112   3.120   6.708
 9477WAT     H128673   4.153   3.155   6.792
 9477WAT     H228674   4.045   3.187   6.673
 9478WAT      O28675   6.829   7.769   4.863
 9478WAT     H128676   6.895   7.717   4.918
 9478WAT     H228677   6.752   7.796   4.921
 9479WAT      O28678   9.114   3.637   1.186
 9479WAT     H128679   9.141   3.543   1.162
 9479WAT     H228680   9.195   3.693   1.199
 9480WAT      O28681   4.326   1.331   5.325
 9480WAT     H128682   4.409   1.312   5.272
 9480WAT     H228683   4.302   1.250   5.379
 9481WAT      O28684   3.525   4.776   3.105
 9481WAT     H128685   3.548   4.805   3.012
 9481WAT     H228686   3.607   4.742   3.150
 9482WAT      O28687   6.943   3.588   7.168
 9482WAT     H128688   6.935   3.685   7.189
 9482WAT     H228689   7.029   3.572   7.118
 9483WAT      O28690   0.432   0.128   7.192
 9483WAT     H128691   0.389   0.129   7.102
 9483WAT     H228692   0.363   0.153   7.261
 9484WAT      O28693   2.670   7.678   6.936
 9484WAT     H128694   2.655   7.580   6.937
 9484WAT     H228695   2.700   7.708   7.027
 9485WAT      O28696   3.124   6.577   9.215
 9485WAT     H128697   3.142   6.512   9.141
 9485WAT     H228698   3.042   6.548   9.265
 9486WAT      O28699   1.306   7.885   7.433
 9486WAT     H128700   1.249   7.813   7.394
 9486WAT     H228701   1.289   7.891   7.532
 9487WAT      O28702   0.435   4.773   0.140
 9487WAT     H128703   0.509   4.752   0.077
 9487WAT     H228704   0.454   4.733   0.230
 9488WAT      O28705   1.915   1.494   8.214
 9488WAT     H128706   1.956   1.526   8.299
 9488WAT     H228707   1.843   1.428   8.234
 9489WAT      O28708   9.290   9.594   5.072
 9489WAT     H128709   9.228   9.670   5.089
 9489WAT     H228710   9.363   9.595   5.141
 9490WAT      O28711   5.733   0.136   7.808
 9490WAT     H128712   5.823   0.179   7.822
 9490WAT     H228713   5.712   0.137   7.711
 9491WAT      O28714   4.670   1.680   1.143
 9491WAT     H128715   4.611   1.719   1.072
 9491WAT     H228716   4.638   1.588   1.166
 9492WAT      O28717   7.563   3.848   4.618
 9492WAT     H128718   7.660   3.843   4.641
 9492WAT     H228719   7.551   3.834   4.520
 9493WAT      O28720   8.264   7.066   6.173
 9493WAT     H128721   8.224   7.045   6.263
 9493WAT     H228722   8.235   7.156   6.143
 9494WAT      O28723   0.794   9.071   6.594
 9494WAT     H128724   0.886   9.039   6.616
 9494WAT     H228725   0.798   9.133   6.516
 9495WAT      O28726   8.536   9.296   5.289
 9495WAT     H128727   8.529   9.255   5.198
 9495WAT     H228728   8.517   9.226   5.358
 9496WAT      O28729   2.404   7.897   3.646
 9496WAT     H128730   2.462   7.896   3.565
 9496WAT     H228731   2.311   7.871   3.621
 9497WAT      O28732   9.191   8.106   7.492
 9497WAT     H128733   9.173   8.092   7.590
 9497WAT     H228734   9.114   8.156   7.451
 9498WAT      O28735   8.234   6.670   1.006
 9498WAT     H128736   8.313   6.608   1.005
 9498WAT     H228737   8.161   6.630   1.060
 9499WAT      O28738   0.215   2.963   3.547
 9499WAT     H128739   0.128   2.916   3.562
 9499WAT     H228740   0.198   3.050   3.500
 9500WAT      O28741   3.165   4.270   7.404
 9500WAT     H128742   3.213   4.262   7.317
 9500WAT     H228743   3.214   4.219   7.475
 9501WAT      O28744   2.180   9.085   4.170
 9501WAT     H128745   2.096   9.035   4.147
 9501WAT     H228746   2.196   9.081   4.269
 9502WAT      O28747   7.656   9.294   1.875
 9502WAT     H128748   7.643   9.380   1.924
 9502WAT     H228749   7.629   9.218   1.934
 9503WAT      O28750   6.047   9.448   8.958
 9503WAT     H128751   6.091   9.385   8.894
 9503WAT     H228752   6.098   9.534   8.961
 9504WAT      O28753   1.349   6.182   9.668
 9504WAT     H128754   1.383   6.248   9.735
 9504WAT     H228755   1.418   6.168   9.597
 9505WAT      O28756   1.703   3.025   2.170
 9505WAT     H128757   1.639   3.098   2.194
 9505WAT     H228758   1.700   3.009   2.071
 9506WAT      O28759   2.768   3.116   7.423
 9506WAT     H128760   2.838   3.187   7.432
 9506WAT     H228761   2.678   3.159   7.418
 9507WAT      O28762   2.399   5.152   6.589
 9507WAT     H128763   2.365   5.182   6.500
 9507WAT     H228764   2.325   5.106   6.639
 9508WAT      O28765   6.431   3.578   1.176
 9508WAT     H128766   6.488   3.643   1.226
 9508WAT     H228767   6.443   3.592   1.077
 9509WAT      O28768   5.946   9.209   1.504
 9509WAT     H128769   5.959   9.303   1.536
 9509WAT     H228770   5.849   9.193   1.488
 9510WAT      O28771   5.355   6.274   0.403
 9510WAT     H128772   5.352   6.200   0.471
 9510WAT     H228773   5.263   6.286   0.364
 9511WAT      O28774   2.352   9.535   8.817
 9511WAT     H128775   2.302   9.566   8.736
 9511WAT     H228776   2.401   9.450   8.796
 9512WAT      O28777   9.242   0.276   8.644
 9512WAT     H128778   9.177   0.252   8.571
 9512WAT     H228779   9.209   0.358   8.690
 9513WAT      O28780   1.226   4.757   3.855
 9513WAT     H128781   1.260   4.826   3.791
 9513WAT     H228782   1.149   4.708   3.815
 9514WAT      O28783   2.329   0.168   1.077
 9514WAT     H128784   2.383   0.248   1.050
 9514WAT     H228785   2.389   0.101   1.120
 9515WAT      O28786   6.292   6.997   2.064
 9515WAT     H128787   6.304   7.059   1.986
 9515WAT     H228788   6.338   6.910   2.045
 9516WAT      O28789   1.279   2.892   9.446
 9516WAT     H128790   1.326   2.804   9.451
 9516WAT     H228791   1.186   2.878   9.412
 9517WAT      O28792   8.939   2.754   2.168
 9517WAT     H128793   8.894   2.675   2.210
 9517WAT     H228794   8.875   2.830   2.164
 9518WAT      O28795   4.950   8.510   4.012
 9518WAT     H128796   4.963   8.411   4.017
 9518WAT     H228797   5.002   8.546   3.934
 9519WAT      O28798   7.794   1.023   8.445
 9519WAT     H128799   7.732   1.044   8.521
 9519WAT     H228800   7.879   1.073   8.457
 9520WAT      O28801   4.079   9.515   6.812
 9520WAT     H128802   4.147   9.500   6.740
 9520WAT     H228803   4.012   9.582   6.781
 9521WAT      O28804   1.213   3.876   6.811
 9521WAT     H128805   1.225   3.863   6.712
 9521WAT     H228806   1.203   3.787   6.855
 9522WAT      O28807   1.927   8.901   0.519
 9522WAT     H128808   1.905   8.996   0.539
 9522WAT     H228809   1.884   8.874   0.433
 9523WAT      O28810   2.303   8.150   6.200
 9523WAT     H128811   2.308   8.224   6.268
 9523WAT     H228812   2.324   8.188   6.110
 9524WAT      O28813   0.820   5.713   0.031
 9524WAT     H128814   0.729   5.719   0.072
 9524WAT     H228815   0.882   5.774   0.079
 9525WAT      O28816   0.742   3.705   1.097
 9525WAT     H128817   0.770   3.785   1.149
 9525WAT     H228818   0.785   3.623   1.136
 9526WAT      O28819   7.064   1.590   5.580
 9526WAT     H128820   7.152   1.545   5.563
 9526WAT     H228821   7.051   1.664   5.513
 9527WAT      O28822   1.083   7.889   5.360
 9527WAT     H128823   1.090   7.891   5.459
 9527WAT     H228824   1.087   7.982   5.324
 9528WAT      O28825   5.562   2.717   7.091
 9528WAT     H128826   5.483   2.718   7.152
 9528WAT     H228827   5.638   2.767   7.133
 9529WAT      O28828   5.898   8.376   6.349
 9529WAT     H128829   5.866   8.370   6.443
 9529WAT     H228830   5.849   8.448   6.300
 9530WAT      O28831   5.642   5.366   1.413
 9530WAT     H128832   5.614   5.333   1.323
 9530WAT     H228833   5.700   5.297   1.457
 9531WAT      O28834   2.306   3.487   6.288
 9531WAT     H128835   2.225   3.499   6.345
 9531WAT     H228836   2.329   3.573   6.242
 9532WAT      O28837   7.734   0.402   9.232
 9532WAT     H128838   7.660   0.349   9.190
 9532WAT     H228839   7.775   0.463   9.164
 9533WAT      O28840   8.527   3.626   3.068
 9533WAT     H128841   8.495   3.540   3.109
 9533WAT     H228842   8.534   3.696   3.140
 9534WAT      O28843   7.347   2.396   2.824
 9534WAT     H128844   7.375   2.305   2.793
 9534WAT     H228845   7.251   2.411   2.801
 9535WAT      O28846   9.121   6.058   1.703
 9535WAT     H128847   9.132   6.158   1.703
 9535WAT     H228848   9.072   6.030   1.785
 9536WAT      O28849   2.128   4.901   0.679
 9536WAT     H128850   2.151   4.925   0.774
 9536WAT     H228851   2.029   4.891   0.671
 9537WAT      O28852   7.139   1.200   2.735
 9537WAT     H128853   7.065   1.160   2.789
 9537WAT     H228854   7.212   1.133   2.723
 9538WAT      O28855   7.815   9.146   8.469
 9538WAT     H128856   7.729   9.186   8.502
 9538WAT     H228857   7.841   9.190   8.383
 9539WAT      O28858   9.514   3.378   9.773
 9539WAT     H128859   9.606   3.338   9.774
 9539WAT     H228860   9.495   3.416   9.682
 9540WAT      O28861   6.708   1.097   2.678
 9540WAT     H128862   6.775   1.100   2.604
 9540WAT     H228863   6.755   1.105   2.766
 9541WAT      O28864   7.533   0.317   8.344
 9541WAT     H128865   7.531   0.412   8.313
 9541WAT     H228866   7.445   0.293   8.384
 9542WAT      O28867   2.308   8.834   3.655
 9542WAT     H128868   2.239   8.901   3.680
 9542WAT     H228869   2.325   8.839   3.556
 9543WAT      O28870   0.644   3.606   8.966
 9543WAT     H128871   0.558   3.635   9.008
 9543WAT     H228872   0.627   3.582   8.870
 9544WAT      O28873   6.849   6.343   9.097
 9544WAT     H128874   6.880   6.435   9.118
 9544WAT     H228875   6.817   6.338   9.003
 9545WAT      O28876   0.008   9.071   9.595
 9545WAT     H128877  -0.009   8.983   9.640
 9545WAT     H228878   0.096   9.069   9.549
 9546WAT      O28879   7.247   8.011   5.372
 9546WAT     H128880   7.301   8.092   5.350
 9546WAT     H228881   7.212   7.970   5.288
 9547WAT      O28882   9.132   9.495   3.074
 9547WAT     H128883   9.156   9.486   3.171
 9547WAT     H228884   9.191   9.435   3.019
 9548WAT      O28885   2.701   0.608   8.472
 9548WAT     H128886   2.631   0.564   8.528
 9548WAT     H228887   2.773   0.542   8.451
 9549WAT      O28888   7.361   2.808   0.314
 9549WAT     H128889   7.275   2.769   0.279
 9549WAT     H228890   7.415   2.844   0.238
 9550WAT      O28891   6.293   5.065   5.951
 9550WAT     H128892   6.386   5.040   5.926
 9550WAT     H228893   6.242   4.983   5.977
 9551WAT      O28894   0.269   4.186   8.119
 9551WAT     H128895   0.206   4.187   8.197
 9551WAT     H228896   0.362   4.169   8.151
 9552WAT      O28897   6.762   0.534   0.915
 9552WAT     H128898   6.759   0.547   0.816
 9552WAT     H228899   6.857   0.525   0.945
 9553WAT      O28900   8.295   5.049   8.135
 9553WAT     H128901   8.349   4.969   8.160
 9553WAT     H228902   8.214   5.056   8.193
 9554WAT      O28903   8.221   4.995   8.967
 9554WAT     H128904   8.237   5.066   9.036
 9554WAT     H228905   8.267   5.020   8.882
 9555WAT      O28906   5.983   2.935   8.993
 9555WAT     H128907   5.953   2.970   8.905
 9555WAT     H228908   6.069   2.979   9.019
 9556WAT      O28909   6.084   5.243   8.310
 9556WAT     H128910   6.065   5.146   8.328
 9556WAT     H228911   6.039   5.270   8.225
 9557WAT      O28912   5.431   0.707   4.485
 9557WAT     H128913   5.418   0.658   4.571
 9557WAT     H228914   5.525   0.693   4.452
 9558WAT      O28915   7.133   5.749   6.989
 9558WAT     H128916   7.069   5.825   6.979
 9558WAT     H228917   7.098   5.685   7.057
 9559WAT      O28918   9.670   5.294   3.857
 9559WAT     H128919   9.602   5.345   3.910
 9559WAT     H228920   9.626   5.249   3.779
 9560WAT      O28921   3.228   5.826   3.084
 9560WAT     H128922   3.184   5.836   3.173
 9560WAT     H228923   3.158   5.821   3.013
 9561WAT      O28924   2.015   2.703   0.086
 9561WAT     H128925   2.050   2.617   0.121
 9561WAT     H228926   2.072   2.779   0.118
 9562WAT      O28927   8.704   9.011   3.372
 9562WAT     H128928   8.628   9.068   3.401
 9562WAT     H228929   8.676   8.915   3.373
 9563WAT      O28930   8.288   6.777   4.271
 9563WAT     H128931   8.289   6.876   4.255
 9563WAT     H228932   8.196   6.741   4.254
 9564WAT      O28933   8.232   3.799   9.604
 9564WAT     H128934   8.201   3.889   9.636
 9564WAT     H228935   8.322   3.780   9.643
 9565WAT      O28936   9.246   3.008   1.686
 9565WAT     H128937   9.307   3.059   1.746
 9565WAT     H228938   9.197   2.939   1.740
 9566WAT      O28939   9.623   2.724   2.028
 9566WAT     H128940   9.554   2.706   2.099
 9566WAT     H228941   9.657   2.637   1.993
 9567WAT      O28942   9.609   8.150   8.285
 9567WAT     H128943   9.677   8.117   8.219
 9567WAT     H228944   9.605   8.086   8.362
 9568WAT      O28945   3.089   8.147   7.001
 9568WAT     H128946   3.002   8.162   6.954
 9568WAT     H228947   3.122   8.233   7.040
 9569WAT      O28948   0.104   5.550   7.466
 9569WAT     H128949   0.132   5.550   7.562
 9569WAT     H228950   0.152   5.478   7.416
 9570WAT      O28951   3.330   1.639   5.464
 9570WAT     H128952   3.337   1.610   5.369
 9570WAT     H228953   3.293   1.732   5.468
 9571WAT      O28954   9.036   4.228   4.204
 9571WAT     H128955   9.096   4.301   4.170
 9571WAT     H228956   8.952   4.227   4.150
 9572WAT      O28957   1.953   3.889   2.769
 9572WAT     H128958   1.996   3.801   2.785
 9572WAT     H228959   1.862   3.890   2.812
 9573WAT      O28960   8.961   9.074   6.367
 9573WAT     H128961   8.868   9.111   6.369
 9573WAT     H228962   8.960   8.984   6.324
 9574WAT      O28963   0.376   8.951   4.682
 9574WAT     H128964   0.297   9.008   4.703
 9574WAT     H228965   0.457   8.986   4.730
 9575WAT      O28966   7.444   4.118   0.114
 9575WAT     H128967   7.393   4.090   0.195
 9575WAT     H228968   7.478   4.211   0.126
 9576WAT      O28969   7.245   0.156   2.728
 9576WAT     H128970   7.281   0.197   2.645
 9576WAT     H228971   7.246   0.224   2.802
 9577WAT      O28972   7.263   5.436   6.572
 9577WAT     H128973   7.267   5.468   6.667
 9577WAT     H228974   7.300   5.343   6.567
 9578WAT      O28975   0.492   8.350   6.453
 9578WAT     H128976   0.464   8.255   6.451
 9578WAT     H228977   0.582   8.358   6.496
 9579WAT      O28978   2.941   5.987   6.936
 9579WAT     H128979   2.866   5.983   7.002
 9579WAT     H228980   2.977   6.080   6.932
 9580WAT      O28981   5.991   7.024   0.613
 9580WAT     H128982   6.062   7.077   0.568
 9580WAT     H228983   5.902   7.050   0.577
 9581WAT      O28984   5.496   7.668   0.529
 9581WAT     H128985   5.530   7.615   0.451
 9581WAT     H228986   5.412   7.716   0.504
 9582WAT      O28987   9.414   9.001   5.937
 9582WAT     H128988   9.452   9.089   5.967
 9582WAT     H228989   9.421   8.993   5.838
 9583WAT      O28990   9.792   4.022   2.791
 9583WAT     H128991   9.863   3.989   2.854
 9583WAT     H228992   9.709   4.041   2.843
 9584WAT      O28993   1.312   3.006   9.702
 9584WAT     H128994   1.298   2.955   9.617
 9584WAT     H228995   1.236   3.070   9.715
 9585WAT      O28996   8.210   5.274   9.466
 9585WAT     H128997   8.186   5.188   9.513
 9585WAT     H228998   8.217   5.257   9.368
 9586WAT      O28999   9.165   5.778   8.081
 9586WAT     H129000   9.076   5.734   8.073
 9586WAT     H229001   9.180   5.808   8.176
 9587WAT      O29002   2.211   5.176   1.134
 9587WAT     H129003   2.309   5.157   1.138
 9587WAT     H229004   2.172   5.171   1.226
 9588WAT      O29005   1.990   0.325   0.178
 9588WAT     H129006   1.931   0.250   0.209
 9588WAT     H229007   2.078   0.287   0.147
 9589WAT      O29008   5.008   5.630   7.362
 9589WAT     H129009   4.933   5.670   7.413
 9589WAT     H229010   5.010   5.531   7.378
 9590WAT      O29011   4.328   2.436   4.915
 9590WAT     H129012   4.283   2.510   4.966
 9590WAT     H229013   4.423   2.429   4.945
 9591WAT      O29014   4.345   2.239   9.742
 9591WAT     H129015   4.346   2.202   9.834
 9591WAT     H229016   4.431   2.217   9.696
 9592WAT      O29017   0.673   5.481   0.298
 9592WAT     H129018   0.729   5.476   0.381
 9592WAT     H229019   0.601   5.412   0.302
 9593WAT      O29020   0.119   0.765   2.253
 9593WAT     H129021   0.119   0.688   2.190
 9593WAT     H229022   0.102   0.732   2.346
 9594WAT      O29023   2.162   0.298   2.721
 9594WAT     H129024   2.151   0.216   2.665
 9594WAT     H229025   2.200   0.272   2.811
 9595WAT      O29026   0.039   1.081   0.870
 9595WAT     H129027   0.105   1.129   0.928
 9595WAT     H229028   0.047   0.982   0.884
 9596WAT      O29029   2.882   8.033   2.722
 9596WAT     H129030   2.871   7.942   2.762
 9596WAT     H229031   2.891   8.025   2.623
 9597WAT      O29032   5.737   3.141   2.863
 9597WAT     H129033   5.662   3.172   2.805
 9597WAT     H229034   5.818   3.197   2.844
 9598WAT      O29035   5.159   4.833   8.987
 9598WAT     H129036   5.193   4.743   8.962
 9598WAT     H229037   5.076   4.823   9.041
 9599WAT      O29038   1.686   8.266   8.491
 9599WAT     H129039   1.706   8.361   8.466
 9599WAT     H229040   1.596   8.241   8.454
 9600WAT      O29041   8.817   9.446   9.278
 9600WAT     H129042   8.839   9.476   9.185
 9600WAT     H229043   8.718   9.452   9.291
 9601WAT      O29044   6.535   6.238   7.083
 9601WAT     H129045   6.495   6.202   7.168
 9601WAT     H229046   6.634   6.234   7.090
 9602WAT      O29047   7.802   3.405   4.341
 9602WAT     H129048   7.741   3.413   4.262
 9602WAT     H229049   7.791   3.485   4.400
 9603WAT      O29050   5.955   0.747   4.126
 9603WAT     H129051   5.860   0.741   4.157
 9603WAT     H229052   5.972   0.839   4.091
 9604WAT      O29053   8.784   3.804   5.890
 9604WAT     H129054   8.766   3.769   5.982
 9604WAT     H229055   8.719   3.877   5.869
 9605WAT      O29056   8.493   3.178   2.389
 9605WAT     H129057   8.544   3.224   2.317
 9605WAT     H229058   8.400   3.160   2.357
 9606WAT      O29059   6.517   8.566   9.169
 9606WAT     H129060   6.526   8.466   9.176
 9606WAT     H229061   6.448   8.588   9.101
 9607WAT      O29062   1.452   4.615   5.052
 9607WAT     H129063   1.498   4.689   5.100
 9607WAT     H229064   1.444   4.637   4.955
 9608WAT      O29065   1.947   8.222   2.790
 9608WAT     H129066   1.851   8.246   2.805
 9608WAT     H229067   2.004   8.273   2.854
 9609WAT      O29068   1.469   0.178   3.046
 9609WAT     H129069   1.382   0.208   3.007
 9609WAT     H229070   1.484   0.081   3.024
 9610WAT      O29071   2.285   6.863   7.300
 9610WAT     H129072   2.200   6.913   7.279
 9610WAT     H229073   2.280   6.772   7.259
 9611WAT      O29074   4.443   6.580   4.531
 9611WAT     H129075   4.530   6.621   4.507
 9611WAT     H229076   4.401   6.632   4.606
 9612WAT      O29077   3.730   8.149   7.326
 9612WAT     H129078   3.645   8.167   7.276
 9612WAT     H229079   3.808   8.160   7.265
 9613WAT      O29080   6.527   1.196   3.178
 9613WAT     H129081   6.627   1.198   3.182
 9613WAT     H229082   6.490   1.221   3.267
 9614WAT      O29083   8.837   3.595   4.393
 9614WAT     H129084   8.808   3.621   4.486
 9614WAT     H229085   8.765   3.541   4.350
 9615WAT      O29086   0.781   4.135   9.848
 9615WAT     H129087   0.702   4.172   9.896
 9615WAT     H229088   0.753   4.103   9.757
 9616WAT      O29089   5.726   3.373   1.555
 9616WAT     H129090   5.766   3.432   1.485
 9616WAT     H229091   5.796   3.349   1.622
 9617WAT      O29092   6.944   0.530   1.675
 9617WAT     H129093   6.881   0.603   1.650
 9617WAT     H229094   6.943   0.517   1.774
 9618WAT      O29095   1.798   1.606   2.702
 9618WAT     H129096   1.835   1.532   2.646
 9618WAT     H229097   1.837   1.602   2.793
 9619WAT      O29098   8.854   7.726   0.112
 9619WAT     H129099   8.921   7.781   0.064
 9619WAT     H229100   8.797   7.677   0.046
 9620WAT      O29101   3.032   4.227   8.915
 9620WAT     H129102   3.075   4.240   9.004
 9620WAT     H229103   2.969   4.302   8.896
 9621WAT      O29104   5.128   8.284   3.788
 9621WAT     H129105   5.220   8.293   3.749
 9621WAT     H229106   5.068   8.240   3.721
 9622WAT      O29107   7.377   1.237   1.926
 9622WAT     H129108   7.314   1.235   1.849
 9622WAT     H229109   7.346   1.173   1.997
 9623WAT      O29110   6.156   3.296   7.439
 9623WAT     H129111   6.245   3.341   7.437
 9623WAT     H229112   6.153   3.229   7.514
 9624WAT      O29113   3.964   7.546   9.695
 9624WAT     H129114   3.909   7.573   9.616
 9624WAT     H229115   3.964   7.620   9.763
 9625WAT      O29116   2.722   9.521   1.302
 9625WAT     H129117   2.772   9.452   1.354
 9625WAT     H229118   2.688   9.592   1.364
 9626WAT      O29119   3.296   9.049   2.134
 9626WAT     H129120   3.349   9.113   2.079
 9626WAT     H229121   3.234   8.997   2.075
 9627WAT      O29122   0.349   0.300   5.227
 9627WAT     H129123   0.299   0.265   5.306
 9627WAT     H229124   0.304   0.270   5.143
 9628WAT      O29125   4.865   8.319   8.449
 9628WAT     H129126   4.937   8.261   8.487
 9628WAT     H229127   4.892   8.415   8.454
 9629WAT      O29128   8.080   8.596   8.364
 9629WAT     H129129   8.144   8.597   8.441
 9629WAT     H229130   7.986   8.606   8.398
 9630WAT      O29131   2.717   7.475   7.756
 9630WAT     H129132   2.701   7.432   7.667
 9630WAT     H229133   2.677   7.418   7.828
 9631WAT      O29134   8.577   6.601   9.593
 9631WAT     H129135   8.530   6.603   9.681
 9631WAT     H229136   8.625   6.687   9.579
 9632WAT      O29137   7.667   3.465   3.626
 9632WAT     H129138   7.748   3.414   3.654
 9632WAT     H229139   7.688   3.563   3.626
 9633WAT      O29140   8.573   3.179   7.957
 9633WAT     H129141   8.575   3.261   7.899
 9633WAT     H229142   8.659   3.129   7.948
 9634WAT      O29143   6.437   6.665   8.563
 9634WAT     H129144   6.404   6.584   8.515
 9634WAT     H229145   6.496   6.718   8.501
 9635WAT      O29146   6.358   5.880   5.931
 9635WAT     H129147   6.293   5.929   5.873
 9635WAT     H229148   6.443   5.865   5.881
 9636WAT      O29149   4.753   9.831   5.806
 9636WAT     H129150   4.748   9.814   5.904
 9636WAT     H229151   4.741   9.745   5.756
 9637WAT      O29152   7.906   8.136   8.543
 9637WAT     H129153   7.950   8.139   8.453
 9637WAT     H229154   7.807   8.131   8.532
 9638WAT      O29155   1.986   3.646   7.774
 9638WAT     H129156   2.007   3.640   7.677
 9638WAT     H229157   1.896   3.607   7.792
 9639WAT      O29158   7.688   7.433   2.191
 9639WAT     H129159   7.700   7.349   2.243
 9639WAT     H229160   7.642   7.412   2.105
 9640WAT      O29161   7.286   5.635   2.581
 9640WAT     H129162   7.381   5.651   2.609
 9640WAT     H229163   7.285   5.594   2.490
 9641WAT      O29164   2.089   6.876   3.051
 9641WAT     H129165   1.995   6.848   3.032
 9641WAT     H229166   2.144   6.869   2.967
 9642WAT      O29167   3.391   9.485   8.691
 9642WAT     H129168   3.452   9.526   8.759
 9642WAT     H229169   3.325   9.426   8.736
 9643WAT      O29170   1.521   8.241   2.596
 9643WAT     H129171   1.439   8.297   2.602
 9643WAT     H229172   1.497   8.149   2.567
 9644WAT      O29173   2.573   6.873   4.002
 9644WAT     H129174   2.585   6.913   3.911
 9644WAT     H229175   2.655   6.820   4.026
 9645WAT      O29176   4.739   2.727   8.967
 9645WAT     H129177   4.679   2.651   8.992
 9645WAT     H229178   4.834   2.699   8.972
 9646WAT      O29179   4.521   6.298   6.191
 9646WAT     H129180   4.529   6.370   6.260
 9646WAT     H229181   4.443   6.318   6.132
 9647WAT      O29182   0.367   6.205   8.392
 9647WAT     H129183   0.377   6.113   8.355
 9647WAT     H229184   0.409   6.271   8.330
 9648WAT      O29185   0.873   4.644   3.501
 9648WAT     H129186   0.810   4.715   3.531
 9648WAT     H229187   0.822   4.573   3.452
 9649WAT      O29188   4.986   8.563   1.146
 9649WAT     H129189   4.993   8.476   1.196
 9649WAT     H229190   4.946   8.546   1.056
 9650WAT      O29191   3.370   0.961   9.488
 9650WAT     H129192   3.444   1.022   9.517
 9650WAT     H229193   3.375   0.947   9.390
 9651WAT      O29194   8.511   6.212   4.412
 9651WAT     H129195   8.481   6.305   4.389
 9651WAT     H229196   8.528   6.205   4.510
 9652WAT      O29197   5.734   5.331   2.270
 9652WAT     H129198   5.720   5.232   2.266
 9652WAT     H229199   5.718   5.370   2.179
 9653WAT      O29200   4.877   1.257   5.694
 9653WAT     H129201   4.965   1.250   5.742
 9653WAT     H229202   4.861   1.352   5.667
 9654WAT      O29203   4.805   2.729   3.081
 9654WAT     H129204   4.873   2.769   3.143
 9654WAT     H229205   4.795   2.788   3.000
 9655WAT      O29206   3.615   4.272   9.690
 9655WAT     H129207   3.571   4.246   9.776
 9655WAT     H229208   3.682   4.344   9.708
 9656WAT      O29209   9.837   1.270   8.117
 9656WAT     H129210   9.748   1.258   8.073
 9656WAT     H229211   9.824   1.289   8.214
 9657WAT      O29212   7.182   6.319   8.581
 9657WAT     H129213   7.196   6.223   8.560
 9657WAT     H229214   7.174   6.371   8.496
 9658WAT      O29215   1.013   2.378   7.194
 9658WAT     H129216   1.056   2.299   7.237
 9658WAT     H229217   0.940   2.348   7.133
 9659WAT      O29218   4.518   5.959   6.007
 9659WAT     H129219   4.418   5.947   6.004
 9659WAT     H229220   4.546   5.976   6.102
 9660WAT      O29221   4.993   0.022   5.665
 9660WAT     H129222   5.027  -0.071   5.671
 9660WAT     H229223   4.904   0.029   5.711
 9661WAT      O29224   0.352   6.320   0.790
 9661WAT     H129225   0.340   6.347   0.886
 9661WAT     H229226   0.262   6.304   0.749
 9662WAT      O29227   7.925   9.732   5.377
 9662WAT     H129228   7.877   9.732   5.289
 9662WAT     H229229   7.976   9.647   5.388
 9663WAT      O29230   5.365   9.762   9.125
 9663WAT     H129231   5.327   9.691   9.066
 9663WAT     H229232   5.294   9.795   9.187
 9664WAT      O29233   4.808   4.355   9.209
 9664WAT     H129234   4.849   4.321   9.293
 9664WAT     H229235   4.788   4.453   9.219
 9665WAT      O29236   3.840   2.905   2.990
 9665WAT     H129237   3.853   2.818   2.942
 9665WAT     H229238   3.744   2.915   3.017
 9666WAT      O29239   4.402   7.428   0.993
 9666WAT     H129240   4.326   7.371   1.024
 9666WAT     H229241   4.371   7.488   0.919
 9667WAT      O29242   0.646   5.347   0.579
 9667WAT     H129243   0.626   5.322   0.674
 9667WAT     H229244   0.711   5.282   0.540
 9668WAT      O29245   6.942   3.571   9.152
 9668WAT     H129246   6.871   3.604   9.090
 9668WAT     H229247   6.923   3.604   9.245
 9669WAT      O29248   4.297   6.862   4.671
 9669WAT     H129249   4.320   6.951   4.633
 9669WAT     H229250   4.382   6.814   4.696
 9670WAT      O29251   4.853   4.419   1.507
 9670WAT     H129252   4.806   4.350   1.562
 9670WAT     H229253   4.799   4.503   1.506
 9671WAT      O29254   7.691   6.902   1.593
 9671WAT     H129255   7.625   6.829   1.572
 9671WAT     H229256   7.707   6.906   1.691
 9672WAT      O29257   3.515   2.993   0.915
 9672WAT     H129258   3.559   2.904   0.907
 9672WAT     H229259   3.423   2.988   0.877
 9673WAT      O29260   7.282   2.866   6.469
 9673WAT     H129261   7.293   2.953   6.517
 9673WAT     H229262   7.186   2.853   6.445
 9674WAT      O29263   7.780   4.800   5.063
 9674WAT     H129264   7.850   4.870   5.051
 9674WAT     H229265   7.782   4.767   5.158
 9675WAT      O29266   3.424   6.059   3.245
 9675WAT     H129267   3.455   6.033   3.153
 9675WAT     H229268   3.332   6.022   3.261
 9676WAT      O29269   7.604   3.287   4.983
 9676WAT     H129270   7.512   3.318   5.004
 9676WAT     H229271   7.654   3.270   5.068
 9677WAT      O29272   0.449   4.324   2.937
 9677WAT     H129273   0.384   4.278   2.876
 9677WAT     H229274   0.473   4.413   2.898
 9678WAT      O29275   1.221   6.354   7.244
 9678WAT     H129276   1.153   6.395   7.305
 9678WAT     H229277   1.214   6.254   7.249
 9679WAT      O29278   0.951   0.618   8.201
 9679WAT     H129279   0.858   0.636   8.233
 9679WAT     H229280   0.989   0.540   8.250
 9680WAT      O29281   2.099   9.810   7.314
 9680WAT     H129282   2.198   9.812   7.308
 9680WAT     H229283   2.061   9.785   7.224
 9681WAT      O29284   8.321   7.559   1.274
 9681WAT     H129285   8.264   7.478   1.263
 9681WAT     H229286   8.285   7.633   1.216
 9682WAT      O29287   6.465   6.101   9.019
 9682WAT     H129288   6.450   6.154   9.102
 9682WAT     H229289   6.475   6.004   9.043
 9683WAT      O29290   5.104   6.580   5.716
 9683WAT     H129291   5.109   6.493   5.765
 9683WAT     H229292   5.057   6.566   5.628
 9684WAT      O29293   2.160   6.603   8.370
 9684WAT     H129294   2.089   6.654   8.320
 9684WAT     H229295   2.196   6.661   8.443
 9685WAT      O29296   5.727   0.294   8.580
 9685WAT     H129297   5.655   0.229   8.603
 9685WAT     H229298   5.694   0.357   8.510
 9686WAT      O29299   4.773   0.363   6.637
 9686WAT     H129300   4.815   0.454   6.629
 9686WAT     H229301   4.679   0.366   6.602
 9687WAT      O29302   0.969   7.828   5.945
 9687WAT     H129303   1.012   7.751   5.897
 9687WAT     H229304   1.006   7.834   6.038
 9688WAT      O29305   5.391   3.108   9.130
 9688WAT     H129306   5.377   3.009   9.117
 9688WAT     H229307   5.488   3.125   9.148
 9689WAT      O29308   4.418   0.910   2.259
 9689WAT     H129309   4.440   0.968   2.182
 9689WAT     H229310   4.470   0.824   2.253
 9690WAT      O29311   4.130   8.160   2.805
 9690WAT     H129312   4.034   8.158   2.778
 9690WAT     H229313   4.172   8.071   2.788
 9691WAT      O29314   3.946   4.304   9.597
 9691WAT     H129315   3.894   4.362   9.658
 9691WAT     H229316   3.988   4.360   9.525
 9692WAT      O29317   5.678   4.852   1.866
 9692WAT     H129318   5.772   4.875   1.840
 9692WAT     H229319   5.627   4.936   1.887
 9693WAT      O29320   3.969   7.106   1.228
 9693WAT     H129321   3.971   7.011   1.197
 9693WAT     H229322   4.057   7.149   1.211
 9694WAT      O29323   9.864   6.355   3.816
 9694WAT     H129324   9.949   6.397   3.786
 9694WAT     H229325   9.801   6.427   3.847
 9695WAT      O29326   3.602   1.687   7.297
 9695WAT     H129327   3.660   1.681   7.216
 9695WAT     H229328   3.612   1.778   7.338
 9696WAT      O29329   8.112   9.698   7.762
 9696WAT     H129330   8.105   9.776   7.700
 9696WAT     H229331   8.208   9.671   7.772
 9697WAT      O29332   9.825   8.894   8.635
 9697WAT     H129333   9.784   8.882   8.545
 9697WAT     H229334   9.780   8.833   8.700
 9698WAT      O29335   0.087   5.626   6.171
 9698WAT     H129336  -0.006   5.600   6.146
 9698WAT     H229337   0.086   5.713   6.220
 9699WAT      O29338   9.363   9.828   5.363
 9699WAT     H129339   9.314   9.888   5.427
 9699WAT     H229340   9.446   9.874   5.333
 9700WAT      O29341   2.730   3.175   7.841
 9700WAT     H129342   2.709   3.250   7.778
 9700WAT     H229343   2.826   3.181   7.869
 9701WAT      O29344   5.469   0.682   9.731
 9701WAT     H129345   5.370   0.696   9.727
 9701WAT     H229346   5.500   0.641   9.646
 9702WAT      O29347   5.328   5.615   2.887
 9702WAT     H129348   5.357   5.668   2.807
 9702WAT     H229349   5.281   5.676   2.952
 9703WAT      O29350   8.637   2.706   9.055
 9703WAT     H129351   8.556   2.727   9.001
 9703WAT     H229352   8.689   2.790   9.072
 9704WAT      O29353   6.790   0.934   1.421
 9704WAT     H129354   6.711   0.872   1.425
 9704WAT     H229355   6.758   1.028   1.427
 9705WAT      O29356   2.058   8.563   8.681
 9705WAT     H129357   2.128   8.556   8.752
 9705WAT     H229358   2.002   8.481   8.682
 9706WAT      O29359   7.210   8.684   1.169
 9706WAT     H129360   7.226   8.632   1.085
 9706WAT     H229361   7.170   8.624   1.239
 9707WAT      O29362   2.897   0.506   4.059
 9707WAT     H129363   2.978   0.458   4.026
 9707WAT     H229364   2.830   0.514   3.985
 9708WAT      O29365   3.243   1.972   4.579
 9708WAT     H129366   3.332   1.992   4.622
 9708WAT     H229367   3.258   1.952   4.482
 9709WAT      O29368   0.015   4.690   3.375
 9709WAT     H129369  -0.045   4.663   3.450
 9709WAT     H229370   0.105   4.648   3.388
 9710WAT      O29371   9.824   6.621   6.888
 9710WAT     H129372   9.883   6.604   6.809
 9710WAT     H229373   9.830   6.717   6.913
 9711WAT      O29374   0.813   5.121   7.842
 9711WAT     H129375   0.890   5.185   7.842
 9711WAT     H229376   0.806   5.077   7.753
 9712WAT      O29377   5.215   0.402   8.450
 9712WAT     H129378   5.130   0.375   8.495
 9712WAT     H229379   5.268   0.320   8.429
 9713WAT      O29380   9.225   7.080   7.492
 9713WAT     H129381   9.137   7.079   7.443
 9713WAT     H229382   9.246   6.988   7.524
 9714WAT      O29383   4.090   8.372   7.384
 9714WAT     H129384   4.158   8.418   7.327
 9714WAT     H229385   4.085   8.275   7.359
 9715WAT      O29386   8.016   2.931   3.609
 9715WAT     H129387   8.082   2.922   3.684
 9715WAT     H229388   8.026   3.020   3.566
 9716WAT      O29389   9.829   8.285   7.754
 9716WAT     H129390   9.778   8.278   7.668
 9716WAT     H229391   9.920   8.321   7.735
 9717WAT      O29392   6.225   0.738   3.291
 9717WAT     H129393   6.243   0.833   3.317
 9717WAT     H229394   6.295   0.707   3.227
 9718WAT      O29395   9.671   1.376   4.660
 9718WAT     H129396   9.718   1.290   4.680
 9718WAT     H229397   9.588   1.357   4.608
 9719WAT      O29398   0.141   1.494   5.944
 9719WAT     H129399   0.148   1.485   5.845
 9719WAT     H229400   0.137   1.590   5.969
 9720WAT      O29401   2.709   1.450   6.923
 9720WAT     H129402   2.650   1.457   7.004
 9720WAT     H229403   2.723   1.541   6.884
 9721WAT      O29404   3.172   8.033   8.857
 9721WAT     H129405   3.127   8.108   8.808
 9721WAT     H229406   3.269   8.052   8.866
 9722WAT      O29407   6.813   7.197   8.617
 9722WAT     H129408   6.817   7.197   8.518
 9722WAT     H229409   6.719   7.210   8.648
 9723WAT      O29410   8.864   7.799   8.361
 9723WAT     H129411   8.926   7.727   8.331
 9723WAT     H229412   8.822   7.843   8.281
 9724WAT      O29413   0.734   8.441   0.433
 9724WAT     H129414   0.804   8.508   0.405
 9724WAT     H229415   0.756   8.352   0.394
 9725WAT      O29416   6.271   4.347   9.722
 9725WAT     H129417   6.197   4.294   9.680
 9725WAT     H229418   6.237   4.392   9.805
 9726WAT      O29419   5.303   2.001   8.357
 9726WAT     H129420   5.391   1.970   8.320
 9726WAT     H229421   5.241   1.923   8.363
 9727WAT      O29422   8.990   8.805   5.557
 9727WAT     H129423   9.043   8.750   5.621
 9727WAT     H229424   8.944   8.879   5.606
 9728WAT      O29425   5.474   4.117   5.797
 9728WAT     H129426   5.531   4.088   5.720
 9728WAT     H229427   5.380   4.086   5.782
 9729WAT      O29428   1.324   3.783   0.898
 9729WAT     H129429   1.360   3.694   0.925
 9729WAT     H229430   1.232   3.795   0.935
 9730WAT      O29431   6.026   3.958   2.219
 9730WAT     H129432   5.997   3.875   2.171
 9730WAT     H229433   5.987   4.038   2.174
 9731WAT      O29434   1.557   0.856   9.674
 9731WAT     H129435   1.613   0.784   9.714
 9731WAT     H229436   1.538   0.925   9.744
 9732WAT      O29437   4.646   2.603   0.269
 9732WAT     H129438   4.643   2.593   0.368
 9732WAT     H229439   4.567   2.557   0.229
 9733WAT      O29440   9.840   6.188   8.743
 9733WAT     H129441   9.914   6.201   8.809
 9733WAT     H229442   9.752   6.205   8.788
 9734WAT      O29443   0.868   4.222   9.077
 9734WAT     H129444   0.841   4.126   9.077
 9734WAT     H229445   0.798   4.276   9.030
 9735WAT      O29446   5.938   9.624   6.162
 9735WAT     H129447   5.909   9.713   6.196
 9735WAT     H229448   5.993   9.579   6.232
 9736WAT      O29449   6.004   2.983   1.754
 9736WAT     H129450   5.944   2.918   1.707
 9736WAT     H229451   6.042   2.940   1.835
 9737WAT      O29452   9.846   1.930   4.470
 9737WAT     H129453   9.941   1.938   4.440
 9737WAT     H229454   9.811   1.839   4.448
 9738WAT      O29455   6.725   2.286   8.720
 9738WAT     H129456   6.781   2.365   8.695
 9738WAT     H229457   6.639   2.288   8.669
 9739WAT      O29458   0.346   0.979   4.047
 9739WAT     H129459   0.426   1.011   3.997
 9739WAT     H229460   0.277   1.051   4.051
 9740WAT      O29461   2.497   1.316   4.772
 9740WAT     H129462   2.587   1.311   4.816
 9740WAT     H229463   2.503   1.275   4.681
 9741WAT      O29464   8.060   3.608   6.718
 9741WAT     H129465   7.980   3.633   6.772
 9741WAT     H229466   8.093   3.689   6.668
 9742WAT      O29467   7.007   1.018   5.397
 9742WAT     H129468   7.073   1.016   5.472
 9742WAT     H229469   7.047   0.978   5.315
 9743WAT      O29470   2.373   6.292   5.546
 9743WAT     H129471   2.472   6.300   5.563
 9743WAT     H229472   2.348   6.196   5.538
 9744WAT      O29473   0.243   8.241   5.177
 9744WAT     H129474   0.277   8.250   5.083
 9744WAT     H229475   0.169   8.174   5.180
 9745WAT      O29476   7.930   8.573   1.156
 9745WAT     H129477   7.892   8.501   1.098
 9745WAT     H229478   8.027   8.584   1.135
 9746WAT      O29479   1.944   1.065   2.040
 9746WAT     H129480   1.906   0.997   2.103
 9746WAT     H229481   2.040   1.043   2.021
 9747WAT      O29482   2.390   7.141   0.862
 9747WAT     H129483   2.447   7.220   0.883
 9747WAT     H229484   2.294   7.170   0.857
 9748WAT      O29485   8.452   2.490   4.523
 9748WAT     H129486   8.500   2.443   4.596
 9748WAT     H229487   8.355   2.497   4.545
 9749WAT      O29488   4.735   6.674   3.994
 9749WAT     H129489   4.803   6.631   4.053
 9749WAT     H229490   4.737   6.773   4.007
 9750WAT      O29491   1.558   2.662   0.948
 9750WAT     H129492   1.461   2.636   0.939
 9750WAT     H229493   1.599   2.610   1.023
 9751WAT      O29494   6.150   8.585   3.671
 9751WAT     H129495   6.111   8.556   3.584
 9751WAT     H229496   6.243   8.618   3.657
 9752WAT      O29497   7.348   9.299   7.759
 9752WAT     H129498   7.334   9.219   7.701
 9752WAT     H229499   7.326   9.382   7.707
 9753WAT      O29500   5.615   1.629   5.130
 9753WAT     H129501   5.666   1.634   5.044
 9753WAT     H229502   5.517   1.634   5.112
 9754WAT      O29503   5.032   3.453   9.260
 9754WAT     H129504   5.083   3.377   9.220
 9754WAT     H229505   4.999   3.513   9.188
 9755WAT      O29506   7.445   3.720   5.925
 9755WAT     H129507   7.465   3.763   5.837
 9755WAT     H229508   7.496   3.634   5.932
 9756WAT      O29509   7.914   3.606   8.426
 9756WAT     H129510   7.987   3.637   8.487
 9756WAT     H229511   7.865   3.685   8.389
 9757WAT      O29512   9.420   3.127   2.495
 9757WAT     H129513   9.484   3.134   2.418
 9757WAT     H229514   9.416   3.214   2.544
 9758WAT      O29515   5.475   1.664   4.455
 9758WAT     H129516   5.573   1.655   4.472
 9758WAT     H229517   5.447   1.598   4.386
 9759WAT      O29518   4.119   0.061   2.730
 9759WAT     H129519   4.113   0.160   2.717
 9759WAT     H229520   4.034   0.019   2.697
 9760WAT      O29521   4.702   2.401   2.466
 9760WAT     H129522   4.760   2.472   2.504
 9760WAT     H229523   4.660   2.433   2.381
 9761WAT      O29524   7.629   1.445   7.278
 9761WAT     H129525   7.599   1.469   7.186
 9761WAT     H229526   7.729   1.436   7.279
 9762WAT      O29527   7.214   2.235   1.941
 9762WAT     H129528   7.313   2.221   1.952
 9762WAT     H229529   7.198   2.304   1.871
 9763WAT      O29530   5.518   2.773   6.433
 9763WAT     H129531   5.517   2.711   6.511
 9763WAT     H229532   5.432   2.824   6.430
 9764WAT      O29533   0.436   5.950   4.879
 9764WAT     H129534   0.495   6.030   4.865
 9764WAT     H229535   0.491   5.874   4.913
 9765WAT      O29536   8.710   6.304   1.730
 9765WAT     H129537   8.709   6.333   1.635
 9765WAT     H229538   8.750   6.376   1.786
 9766WAT      O29539   5.048   7.565   8.236
 9766WAT     H129540   5.080   7.615   8.156
 9766WAT     H229541   5.079   7.470   8.230
 9767WAT      O29542   5.824   9.545   1.994
 9767WAT     H129543   5.889   9.494   1.937
 9767WAT     H229544   5.804   9.493   2.077
 9768WAT      O29545   5.763   7.127   0.481
 9768WAT     H129546   5.702   7.191   0.436
 9768WAT     H229547   5.721   7.037   0.485
 9769WAT      O29548   5.736   0.446   5.391
 9769WAT     H129549   5.665   0.499   5.343
 9769WAT     H229550   5.826   0.480   5.364
 9770WAT      O29551   3.964   3.387   6.069
 9770WAT     H129552   3.923   3.457   6.011
 9770WAT     H229553   4.030   3.334   6.016
 9771WAT      O29554   1.531   9.478   2.821
 9771WAT     H129555   1.559   9.384   2.800
 9771WAT     H229556   1.443   9.476   2.869
 9772WAT      O29557   7.775   2.808   4.257
 9772WAT     H129558   7.788   2.901   4.292
 9772WAT     H229559   7.679   2.782   4.267
 9773WAT      O29560   1.537   2.215   1.121
 9773WAT     H129561   1.555   2.198   1.218
 9773WAT     H229562   1.440   2.199   1.102
 9774WAT      O29563   8.266   5.644   2.978
 9774WAT     H129564   8.352   5.679   3.016
 9774WAT     H229565   8.274   5.547   2.958
 9775WAT      O29566   9.493   7.681   9.782
 9775WAT     H129567   9.478   7.734   9.866
 9775WAT     H229568   9.586   7.695   9.750
 9776WAT      O29569   3.989   2.907   7.242
 9776WAT     H129570   4.024   2.816   7.222
 9776WAT     H229571   3.890   2.903   7.256
 9777WAT      O29572   2.270   5.426   2.902
 9777WAT     H129573   2.354   5.428   2.957
 9777WAT     H229574   2.219   5.343   2.923
 9778WAT      O29575   7.379   2.785   3.594
 9778WAT     H129576   7.463   2.746   3.554
 9778WAT     H229577   7.309   2.714   3.600
 9779WAT      O29578   1.841   8.008   4.729
 9779WAT     H129579   1.791   8.040   4.648
 9779WAT     H229580   1.844   8.081   4.797
 9780WAT      O29581   4.215   0.747   0.137
 9780WAT     H129582   4.227   0.687   0.058
 9780WAT     H229583   4.305   0.775   0.172
 9781WAT      O29584   6.733   8.774   4.332
 9781WAT     H129585   6.797   8.826   4.388
 9781WAT     H229586   6.639   8.805   4.350
 9782WAT      O29587   0.433   8.344   1.576
 9782WAT     H129588   0.395   8.264   1.623
 9782WAT     H229589   0.375   8.424   1.593
 9783WAT      O29590   0.147   2.092   6.513
 9783WAT     H129591   0.193   2.127   6.431
 9783WAT     H229592   0.120   1.997   6.498
 9784WAT      O29593   5.765   0.461   3.303
 9784WAT     H129594   5.859   0.493   3.293
 9784WAT     H229595   5.761   0.393   3.376
 9785WAT      O29596   9.557   4.206   1.041
 9785WAT     H129597   9.532   4.288   1.092
 9785WAT     H229598   9.484   4.182   0.977
 9786WAT      O29599   3.048   4.968   4.715
 9786WAT     H129600   3.123   4.915   4.754
 9786WAT     H229601   2.961   4.935   4.752
 9787WAT      O29602   7.910   1.641   0.128
 9787WAT     H129603   7.821   1.619   0.088
 9787WAT     H229604   7.922   1.591   0.213
 9788WAT      O29605   1.388   1.231   5.446
 9788WAT     H129606   1.301   1.246   5.398
 9788WAT     H229607   1.461   1.279   5.397
 9789WAT      O29608   7.646   0.182   7.551
 9789WAT     H129609   7.676   0.163   7.644
 9789WAT     H229610   7.552   0.215   7.552
 9790WAT      O29611   2.658   0.371   0.796
 9790WAT     H129612   2.751   0.362   0.762
 9790WAT     H229613   2.594   0.374   0.719
 9791WAT      O29614   5.387   0.701   7.271
 9791WAT     H129615   5.311   0.671   7.328
 9791WAT     H229616   5.375   0.666   7.178
 9792WAT      O29617   0.769   6.925   6.616
 9792WAT     H129618   0.694   6.883   6.565
 9792WAT     H229619   0.751   7.023   6.628
 9793WAT      O29620   8.681   1.099   3.093
 9793WAT     H129621   8.714   1.189   3.122
 9793WAT     H229622   8.583   1.102   3.077
 9794WAT      O29623   5.106   3.796   2.472
 9794WAT     H129624   5.073   3.709   2.435
 9794WAT     H229625   5.166   3.840   2.406
 9795WAT      O29626   3.965   4.692   6.531
 9795WAT     H129627   4.007   4.775   6.568
 9795WAT     H229628   3.963   4.698   6.431
 9796WAT      O29629   1.456   9.563   7.749
 9796WAT     H129630   1.395   9.566   7.829
 9796WAT     H229631   1.504   9.476   7.748
 9797WAT      O29632   0.230   4.932   0.190
 9797WAT     H129633   0.311   4.876   0.173
 9797WAT     H229634   0.258   5.022   0.223
 9798WAT      O29635   1.316   3.670   8.293
 9798WAT     H129636   1.311   3.717   8.205
 9798WAT     H229637   1.303   3.572   8.280
 9799WAT      O29638   9.206   0.885   5.233
 9799WAT     H129639   9.155   0.799   5.230
 9799WAT     H229640   9.243   0.905   5.142
 9800WAT      O29641   2.148   4.147   0.960
 9800WAT     H129642   2.233   4.167   0.912
 9800WAT     H229643   2.095   4.231   0.970
 9801WAT      O29644   4.096   7.760   6.692
 9801WAT     H129645   4.175   7.760   6.754
 9801WAT     H229646   4.012   7.748   6.745
 9802WAT      O29647   6.562   4.114   6.853
 9802WAT     H129648   6.509   4.188   6.811
 9802WAT     H229649   6.503   4.062   6.915
 9803WAT      O29650   5.761   9.697   6.846
 9803WAT     H129651   5.843   9.721   6.794
 9803WAT     H229652   5.778   9.613   6.898
 9804WAT      O29653   0.574   3.914   2.686
 9804WAT     H129654   0.502   3.925   2.754
 9804WAT     H229655   0.648   3.978   2.705
 9805WAT      O29656   9.404   0.774   1.012
 9805WAT     H129657   9.496   0.807   1.034
 9805WAT     H229658   9.394   0.766   0.913
 9806WAT      O29659   0.193   2.926   5.476
 9806WAT     H129660   0.128   2.941   5.401
 9806WAT     H229661   0.221   2.830   5.476
 9807WAT      O29662   7.295   9.190   2.136
 9807WAT     H129663   7.239   9.258   2.087
 9807WAT     H229664   7.352   9.237   2.203
 9808WAT      O29665   5.119   7.497   2.557
 9808WAT     H129666   5.211   7.513   2.522
 9808WAT     H229667   5.121   7.424   2.625
 9809WAT      O29668   5.463   4.132   6.556
 9809WAT     H129669   5.520   4.194   6.502
 9809WAT     H229670   5.513   4.047   6.573
 9810WAT      O29671   2.456   5.180   9.041
 9810WAT     H129672   2.402   5.121   8.981
 9810WAT     H229673   2.538   5.132   9.071
 9811WAT      O29674   4.225   5.635   6.097
 9811WAT     H129675   4.149   5.699   6.094
 9811WAT     H229676   4.298   5.668   6.036
 9812WAT      O29677   9.285   8.129   4.909
 9812WAT     H129678   9.328   8.085   4.988
 9812WAT     H229679   9.336   8.107   4.826
 9813WAT      O29680   6.693   2.247   0.869
 9813WAT     H129681   6.704   2.234   0.771
 9813WAT     H229682   6.639   2.172   0.907
 9814WAT      O29683   7.103   2.065   7.267
 9814WAT     H129684   7.201   2.058   7.286
 9814WAT     H229685   7.070   1.977   7.232
 9815WAT      O29686   9.536   2.960   0.866
 9815WAT     H129687   9.475   2.881   0.871
 9815WAT     H229688   9.499   3.026   0.800
 9816WAT      O29689   2.851   3.805   0.554
 9816WAT     H129690   2.818   3.711   0.552
 9816WAT     H229691   2.943   3.808   0.515
 9817WAT      O29692   4.295   9.763   1.076
 9817WAT     H129693   4.388   9.733   1.054
 9817WAT     H229694   4.237   9.683   1.091
 9818WAT      O29695   9.578   5.652   5.145
 9818WAT     H129696   9.577   5.750   5.126
 9818WAT     H229697   9.539   5.602   5.068
 9819WAT      O29698   2.846   4.808   1.762
 9819WAT     H129699   2.765   4.752   1.777
 9819WAT     H229700   2.855   4.830   1.664
 9820WAT      O29701   7.564   7.645   4.334
 9820WAT     H129702   7.637   7.607   4.391
 9820WAT     H229703   7.485   7.666   4.390
 9821WAT      O29704   8.068   7.424   4.208
 9821WAT     H129705   8.040   7.461   4.119
 9821WAT     H229706   8.027   7.333   4.220
 9822WAT      O29707   2.545   7.235   0.522
 9822WAT     H129708   2.514   7.150   0.565
 9822WAT     H229709   2.517   7.312   0.579
 9823WAT      O29710   3.714   4.783   8.861
 9823WAT     H129711   3.771   4.722   8.915
 9823WAT     H229712   3.661   4.842   8.922
 9824WAT      O29713   2.808   1.530   2.338
 9824WAT     H129714   2.755   1.582   2.405
 9824WAT     H229715   2.834   1.591   2.262
 9825WAT      O29716   4.323   0.597   6.859
 9825WAT     H129717   4.280   0.685   6.880
 9825WAT     H229718   4.414   0.593   6.899
 9826WAT      O29719   5.140   5.984   1.438
 9826WAT     H129720   5.162   6.006   1.533
 9826WAT     H229721   5.181   6.052   1.378
 9827WAT      O29722   7.281   0.049   0.658
 9827WAT     H129723   7.261   0.130   0.603
 9827WAT     H229724   7.317  -0.024   0.599
 9828WAT      O29725   4.607   2.065   6.184
 9828WAT     H129726   4.694   2.063   6.134
 9828WAT     H229727   4.539   2.011   6.134
 9829WAT      O29728   6.691   6.549   6.966
 9829WAT     H129729   6.785   6.579   6.981
 9829WAT     H229730   6.630   6.598   7.028
 9830WAT      O29731   5.527   0.139   9.490
 9830WAT     H129732   5.523   0.039   9.488
 9830WAT     H229733   5.618   0.169   9.518
 9831WAT      O29734   3.378   7.500   2.281
 9831WAT     H129735   3.332   7.583   2.312
 9831WAT     H229736   3.413   7.449   2.360
 9832WAT      O29737   0.430   0.918   0.340
 9832WAT     H129738   0.446   0.891   0.435
 9832WAT     H229739   0.461   0.845   0.279
 9833WAT      O29740   8.278   4.388   7.047
 9833WAT     H129741   8.183   4.360   7.058
 9833WAT     H229742   8.300   4.459   7.114
 9834WAT      O29743   2.975   0.709   3.426
 9834WAT     H129744   2.984   0.660   3.339
 9834WAT     H229745   2.967   0.807   3.409
 9835WAT      O29746   1.983   0.212   4.352
 9835WAT     H129747   1.967   0.137   4.287
 9835WAT     H229748   1.924   0.200   4.432
 9836WAT      O29749   0.833   2.949   6.344
 9836WAT     H129750   0.772   2.891   6.290
 9836WAT     H229751   0.781   3.027   6.379
 9837WAT      O29752   9.537   3.900   7.496
 9837WAT     H129753   9.475   3.822   7.483
 9837WAT     H229754   9.522   3.940   7.586
 9838WAT      O29755   8.321   5.536   1.392
 9838WAT     H129756   8.351   5.450   1.433
 9838WAT     H229757   8.392   5.570   1.331
 9839WAT      O29758   3.954   1.937   7.418
 9839WAT     H129759   3.924   1.919   7.512
 9839WAT     H229760   3.908   1.875   7.356
 9840WAT      O29761   7.148   5.908   7.422
 9840WAT     H129762   7.189   5.965   7.350
 9840WAT     H229763   7.051   5.894   7.403
 9841WAT      O29764   4.849   1.762   8.678
 9841WAT     H129765   4.880   1.731   8.768
 9841WAT     H229766   4.927   1.770   8.617
 9842WAT      O29767   1.088   3.670   6.954
 9842WAT     H129768   1.020   3.708   7.016
 9842WAT     H229769   1.060   3.578   6.925
 9843WAT      O29770   0.997   2.806   6.015
 9843WAT     H129771   0.915   2.857   5.989
 9843WAT     H229772   1.019   2.826   6.111
 9844WAT      O29773   8.913   4.249   0.046
 9844WAT     H129774   8.817   4.231   0.068
 9844WAT     H229775   8.958   4.292   0.125
 9845WAT      O29776   5.320   7.976   0.686
 9845WAT     H129777   5.389   7.997   0.617
 9845WAT     H229778   5.262   7.901   0.653
 9846WAT      O29779   3.584   3.306   9.088
 9846WAT     H129780   3.653   3.347   9.029
 9846WAT     H229781   3.589   3.347   9.179
 9847WAT      O29782   5.470   6.767   0.011
 9847WAT     H129783   5.471   6.824  -0.071
 9847WAT     H229784   5.454   6.825   0.091
 9848WAT      O29785   2.048   0.641   4.228
 9848WAT     H129786   2.139   0.609   4.254
 9848WAT     H229787   2.046   0.741   4.232
 9849WAT      O29788   6.626   4.846   6.426
 9849WAT     H129789   6.615   4.902   6.508
 9849WAT     H229790   6.721   4.816   6.418
 9850WAT      O29791   3.915   2.708   2.484
 9850WAT     H129792   3.853   2.757   2.544
 9850WAT     H229793   3.996   2.680   2.536
 9851WAT      O29794   8.600   2.450   1.570
 9851WAT     H129795   8.534   2.516   1.607
 9851WAT     H229796   8.680   2.498   1.535
 9852WAT      O29797   2.539   3.716   4.146
 9852WAT     H129798   2.472   3.787   4.124
 9852WAT     H229799   2.547   3.708   4.245
 9853WAT      O29800   1.822   1.539   4.914
 9853WAT     H129801   1.913   1.498   4.923
 9853WAT     H229802   1.791   1.530   4.820
 9854WAT      O29803   3.101   7.356   8.630
 9854WAT     H129804   3.039   7.304   8.689
 9854WAT     H229805   3.106   7.450   8.661
 9855WAT      O29806   8.524   3.983   9.781
 9855WAT     H129807   8.590   3.964   9.853
 9855WAT     H229808   8.450   4.040   9.818
 9856WAT      O29809   9.705   4.640   5.141
 9856WAT     H129810   9.607   4.620   5.147
 9856WAT     H229811   9.718   4.736   5.119
 9857WAT      O29812   3.610   7.251   8.407
 9857WAT     H129813   3.517   7.272   8.436
 9857WAT     H229814   3.621   7.278   8.311
 9858WAT      O29815   6.799   1.980   2.611
 9858WAT     H129816   6.700   1.989   2.604
 9858WAT     H229817   6.823   1.917   2.685
 9859WAT      O29818   3.647   8.478   3.154
 9859WAT     H129819   3.739   8.470   3.191
 9859WAT     H229820   3.624   8.575   3.143
 9860WAT      O29821   2.925   1.775   6.228
 9860WAT     H129822   2.834   1.809   6.204
 9860WAT     H229823   2.994   1.827   6.178
 9861WAT      O29824   9.071   5.311   5.042
 9861WAT     H129825   8.983   5.302   5.089
 9861WAT     H229826   9.084   5.234   4.979
 9862WAT      O29827   1.803   3.144   2.464
 9862WAT     H129828   1.818   3.243   2.467
 9862WAT     H229829   1.791   3.115   2.369
 9863WAT      O29830   5.452   6.326   8.676
 9863WAT     H129831   5.422   6.395   8.611
 9863WAT     H229832   5.552   6.325   8.681
 9864WAT      O29833   7.866   8.154   7.778
 9864WAT     H129834   7.790   8.204   7.736
 9864WAT     H229835   7.892   8.199   7.864
 9865WAT      O29836   3.232   0.526   6.455
 9865WAT     H129837   3.140   0.556   6.429
 9865WAT     H229838   3.254   0.564   6.546
 9866WAT      O29839   6.223   1.156   0.725
 9866WAT     H129840   6.251   1.249   0.749
 9866WAT     H229841   6.304   1.098   0.717
 9867WAT      O29842   9.222   2.106   6.861
 9867WAT     H129843   9.129   2.122   6.894
 9867WAT     H229844   9.288   2.128   6.934
 9868WAT      O29845   4.398   1.793   9.682
 9868WAT     H129846   4.423   1.726   9.612
 9868WAT     H229847   4.309   1.832   9.660
 9869WAT      O29848   7.040   0.568   3.506
 9869WAT     H129849   6.996   0.485   3.471
 9869WAT     H229850   6.974   0.642   3.508
 9870WAT      O29851   4.220   6.444   5.416
 9870WAT     H129852   4.173   6.365   5.454
 9870WAT     H229853   4.308   6.456   5.462
 9871WAT      O29854   6.662   6.847   6.813
 9871WAT     H129855   6.761   6.842   6.804
 9871WAT     H229856   6.638   6.911   6.886
 9872WAT      O29857   5.240   0.272   9.235
 9872WAT     H129858   5.152   0.260   9.188
 9872WAT     H229859   5.303   0.322   9.176
 9873WAT      O29860   6.337   4.182   9.145
 9873WAT     H129861   6.303   4.167   9.053
 9873WAT     H229862   6.336   4.280   9.165
 9874WAT      O29863   9.146   5.475   4.293
 9874WAT     H129864   9.140   5.559   4.239
 9874WAT     H229865   9.111   5.398   4.240
 9875WAT      O29866   4.038   7.776   4.873
 9875WAT     H129867   4.085   7.696   4.909
 9875WAT     H229868   3.942   7.775   4.902
 9876WAT      O29869   0.848   0.685   4.477
 9876WAT     H129870   0.835   0.587   4.486
 9876WAT     H229871   0.945   0.704   4.462
 9877WAT      O29872   4.098   5.067   2.970
 9877WAT     H129873   4.180   5.029   3.012
 9877WAT     H229874   4.059   5.001   2.906
 9878WAT      O29875   1.152   4.893   0.207
 9878WAT     H129876   1.148   4.907   0.108
 9878WAT     H229877   1.065   4.923   0.247
 9879WAT      O29878   0.240   0.287   9.654
 9879WAT     H129879   0.233   0.265   9.557
 9879WAT     H229880   0.195   0.216   9.708
 9880WAT      O29881   1.574   7.771   7.110
 9880WAT     H129882   1.566   7.828   7.192
 9880WAT     H229883   1.645   7.809   7.051
 9881WAT      O29884   6.797   4.004   4.081
 9881WAT     H129885   6.735   3.931   4.112
 9881WAT     H229886   6.743   4.079   4.043
 9882WAT      O29887   6.027   8.431   6.743
 9882WAT     H129888   6.045   8.333   6.756
 9882WAT     H229889   6.106   8.472   6.698
 9883WAT      O29890   1.527   1.794   1.572
 9883WAT     H129891   1.438   1.811   1.530
 9883WAT     H229892   1.600   1.820   1.508
 9884WAT      O29893   2.107   6.045   2.785
 9884WAT     H129894   2.188   6.098   2.806
 9884WAT     H229895   2.079   5.993   2.867
 9885WAT      O29896   9.618   7.175   5.511
 9885WAT     H129897   9.636   7.084   5.548
 9885WAT     H229898   9.607   7.240   5.586
 9886WAT      O29899   4.165   2.620   5.022
 9886WAT     H129900   4.193   2.711   5.054
 9886WAT     H229901   4.114   2.630   4.936
 9887WAT      O29902   6.200   3.347   6.575
 9887WAT     H129903   6.222   3.301   6.489
 9887WAT     H229904   6.127   3.413   6.559
 9888WAT      O29905   2.657   8.463   6.947
 9888WAT     H129906   2.669   8.531   7.019
 9888WAT     H229907   2.676   8.504   6.858
 9889WAT      O29908   9.095   6.104   2.426
 9889WAT     H129909   9.171   6.160   2.459
 9889WAT     H229910   9.075   6.129   2.331
 9890WAT      O29911   0.453   5.703   9.523
 9890WAT     H129912   0.409   5.792   9.533
 9890WAT     H229913   0.511   5.704   9.441
 9891WAT      O29914   0.515   8.947   1.506
 9891WAT     H129915   0.534   9.037   1.468
 9891WAT     H229916   0.600   8.895   1.515
 9892WAT      O29917   4.311   4.812   8.862
 9892WAT     H129918   4.273   4.759   8.786
 9892WAT     H229919   4.236   4.856   8.912
 9893WAT      O29920   5.155   3.012   7.763
 9893WAT     H129921   5.111   2.929   7.798
 9893WAT     H229922   5.091   3.088   7.768
 9894WAT      O29923   8.066   0.612   3.520
 9894WAT     H129924   7.978   0.581   3.556
 9894WAT     H229925   8.135   0.609   3.592
 9895WAT      O29926   3.100   9.106   3.465
 9895WAT     H129927   3.156   9.120   3.383
 9895WAT     H229928   3.046   9.022   3.454
 9896WAT      O29929   4.261   7.362   9.459
 9896WAT     H129930   4.320   7.281   9.460
 9896WAT     H229931   4.276   7.414   9.375
 9897WAT      O29932   6.089   9.089   4.086
 9897WAT     H129933   6.067   9.101   3.989
 9897WAT     H229934   6.187   9.077   4.096
 9898WAT      O29935   8.057   8.775   7.960
 9898WAT     H129936   7.975   8.718   7.964
 9898WAT     H229937   8.032   8.867   7.927
 9899WAT      O29938   2.827   1.955   8.053
 9899WAT     H129939   2.846   1.967   8.151
 9899WAT     H229940   2.757   2.021   8.026
 9900WAT      O29941   2.734   2.150   0.629
 9900WAT     H129942   2.651   2.099   0.604
 9900WAT     H229943   2.752   2.139   0.726
 9901WAT      O29944   4.273   9.021   6.803
 9901WAT     H129945   4.313   8.934   6.776
 9901WAT     H229946   4.280   9.086   6.727
 9902WAT      O29947   2.115   8.828   1.603
 9902WAT     H129948   2.200   8.815   1.655
 9902WAT     H229949   2.066   8.907   1.640
 9903WAT      O29950   7.002   0.636   8.126
 9903WAT     H129951   6.986   0.673   8.034
 9903WAT     H229952   7.005   0.710   8.192
 9904WAT      O29953   0.214   3.879   5.571
 9904WAT     H129954   0.191   3.810   5.503
 9904WAT     H229955   0.230   3.967   5.526
 9905WAT      O29956   2.640   2.789   0.375
 9905WAT     H129957   2.576   2.794   0.451
 9905WAT     H229958   2.733   2.790   0.409
 9906WAT      O29959   7.764   0.928   1.704
 9906WAT     H129960   7.696   1.000   1.690
 9906WAT     H229961   7.852   0.970   1.726
 9907WAT      O29962   3.058   9.245   1.068
 9907WAT     H129963   3.012   9.209   1.149
 9907WAT     H229964   2.993   9.255   0.993
 9908WAT      O29965   5.099   3.263   3.405
 9908WAT     H129966   5.184   3.286   3.358
 9908WAT     H229967   5.062   3.178   3.367
 9909WAT      O29968   0.202   3.624   4.744
 9909WAT     H129969   0.213   3.722   4.730
 9909WAT     H229970   0.134   3.588   4.681
 9910WAT      O29971   1.795   7.375   0.652
 9910WAT     H129972   1.803   7.451   0.717
 9910WAT     H229973   1.883   7.329   0.644
 9911WAT      O29974   4.139   4.370   6.193
 9911WAT     H129975   4.162   4.437   6.123
 9911WAT     H229976   4.098   4.416   6.272
 9912WAT      O29977   1.134   4.152   8.719
 9912WAT     H129978   1.175   4.114   8.636
 9912WAT     H229979   1.196   4.140   8.796
 9913WAT      O29980   5.706   6.098   2.449
 9913WAT     H129981   5.802   6.092   2.474
 9913WAT     H229982   5.652   6.038   2.508
 9914WAT      O29983   6.653   1.076   3.957
 9914WAT     H129984   6.715   0.998   3.970
 9914WAT     H229985   6.570   1.062   4.010
 9915WAT      O29986   7.681   2.509   6.664
 9915WAT     H129987   7.727   2.506   6.752
 9915WAT     H229988   7.726   2.446   6.601
 9916WAT      O29989   8.430   3.132   9.245
 9916WAT     H129990   8.451   3.084   9.331
 9916WAT     H229991   8.332   3.154   9.242
 9917WAT      O29992   9.237   5.556   5.035
 9917WAT     H129993   9.174   5.479   5.024
 9917WAT     H229994   9.257   5.570   5.132
 9918WAT      O29995   9.762   5.462   5.288
 9918WAT     H129996   9.827   5.522   5.335
 9918WAT     H229997   9.690   5.518   5.246
 9919WAT      O29998   7.228   2.089   6.518
 9919WAT     H129999   7.141   2.072   6.564
 9919WAT     H230000   7.217   2.163   6.451
 9920WAT      O30001   4.867   5.397   6.825
 9920WAT     H130002   4.942   5.430   6.768
 9920WAT     H230003   4.902   5.369   6.914
 9921WAT      O30004   2.937   2.949   0.625
 9921WAT     H130005   2.863   2.951   0.692
 9921WAT     H230006   2.960   3.043   0.598
 9922WAT      O30007   2.184   4.352   2.448
 9922WAT     H130008   2.235   4.310   2.373
 9922WAT     H230009   2.241   4.421   2.492
 9923WAT      O30010   1.814   7.851   0.612
 9923WAT     H130011   1.719   7.859   0.583
 9923WAT     H230012   1.817   7.823   0.708
 9924WAT      O30013   9.577   4.486   9.198
 9924WAT     H130014   9.604   4.409   9.256
 9924WAT     H230015   9.658   4.521   9.150
 9925WAT      O30016   6.857   8.444   1.280
 9925WAT     H130017   6.823   8.537   1.296
 9925WAT     H230018   6.781   8.384   1.257
 9926WAT      O30019   0.022   8.133   8.429
 9926WAT     H130020   0.064   8.082   8.504
 9926WAT     H230021   0.003   8.227   8.457
 9927WAT      O30022   8.245   2.254   2.903
 9927WAT     H130023   8.168   2.205   2.862
 9927WAT     H230024   8.309   2.188   2.941
 9928WAT      O30025   6.521   1.933   3.294
 9928WAT     H130026   6.602   1.897   3.246
 9928WAT     H230027   6.475   1.858   3.342
 9929WAT      O30028   2.114   3.001   5.531
 9929WAT     H130029   2.172   3.066   5.483
 9929WAT     H230030   2.071   3.046   5.610
 9930WAT      O30031   0.478   9.503   7.277
 9930WAT     H130032   0.508   9.598   7.280
 9930WAT     H230033   0.543   9.450   7.222
 9931WAT      O30034   4.192   1.198   1.589
 9931WAT     H130035   4.171   1.225   1.495
 9931WAT     H230036   4.229   1.104   1.588
 9932WAT      O30037   8.670   7.638   8.515
 9932WAT     H130038   8.713   7.682   8.435
 9932WAT     H230039   8.589   7.589   8.486
 9933WAT      O30040   1.118   9.731   7.213
 9933WAT     H130041   1.021   9.751   7.199
 9933WAT     H230042   1.130   9.687   7.302
 9934WAT      O30043   0.676   8.855   6.888
 9934WAT     H130044   0.633   8.777   6.934
 9934WAT     H230045   0.607   8.926   6.871
 9935WAT      O30046   6.207   4.574   3.137
 9935WAT     H130047   6.151   4.554   3.217
 9935WAT     H230048   6.207   4.495   3.075
 9936WAT      O30049   0.197   4.913   1.274
 9936WAT     H130050   0.252   4.996   1.268
 9936WAT     H230051   0.222   4.851   1.200
 9937WAT      O30052   7.441   4.735   9.687
 9937WAT     H130053   7.443   4.833   9.708
 9937WAT     H230054   7.522   4.711   9.634
 9938WAT      O30055   8.016   3.651   6.224
 9938WAT     H130056   8.088   3.717   6.246
 9938WAT     H230057   8.055   3.576   6.170
 9939WAT      O30058   8.171   5.773   1.901
 9939WAT     H130059   8.111   5.853   1.914
 9939WAT     H230060   8.228   5.787   1.821
 9940WAT      O30061   9.034   0.765   1.428
 9940WAT     H130062   8.941   0.730   1.421
 9940WAT     H230063   9.084   0.743   1.344
 9941WAT      O30064   5.552   8.996   4.199
 9941WAT     H130065   5.610   9.058   4.146
 9941WAT     H230066   5.609   8.928   4.245
 9942WAT      O30067   6.264   2.702   8.274
 9942WAT     H130068   6.325   2.636   8.319
 9942WAT     H230069   6.297   2.795   8.293
 9943WAT      O30070   3.159   8.741   1.353
 9943WAT     H130071   3.116   8.743   1.264
 9943WAT     H230072   3.181   8.835   1.382
 9944WAT      O30073   3.540   3.136   1.776
 9944WAT     H130074   3.449   3.128   1.817
 9944WAT     H230075   3.547   3.071   1.699
 9945WAT      O30076   8.763   7.056   8.883
 9945WAT     H130077   8.711   7.021   8.961
 9945WAT     H230078   8.740   7.152   8.868
 9946WAT      O30079   5.709   6.867   8.134
 9946WAT     H130080   5.641   6.886   8.205
 9946WAT     H230081   5.799   6.897   8.166
 9947WAT      O30082   8.143   1.804   7.125
 9947WAT     H130083   8.081   1.851   7.187
 9947WAT     H230084   8.130   1.705   7.133
 9948WAT      O30085   3.165   3.741   3.525
 9948WAT     H130086   3.236   3.721   3.457
 9948WAT     H230087   3.195   3.709   3.615
 9949WAT      O30088   3.100   1.839   4.819
 9949WAT     H130089   3.162   1.761   4.832
 9949WAT     H230090   3.135   1.898   4.747
 9950WAT      O30091   7.812   8.674   0.561
 9950WAT     H130092   7.738   8.626   0.515
 9950WAT     H230093   7.900   8.647   0.521
 9951WAT      O30094   2.293   9.209   1.149
 9951WAT     H130095   2.368   9.258   1.195
 9951WAT     H230096   2.325   9.177   1.060
 9952WAT      O30097   1.587   3.883   1.298
 9952WAT     H130098   1.613   3.955   1.233
 9952WAT     H230099   1.666   3.857   1.352
 9953WAT      O30100   9.139   2.147   9.289
 9953WAT     H130101   9.195   2.143   9.371
 9953WAT     H230102   9.188   2.196   9.217
 9954WAT      O30103   2.903   0.397   8.480
 9954WAT     H130104   3.002   0.404   8.468
 9954WAT     H230105   2.881   0.391   8.577
 9955WAT      O30106   6.981   7.991   5.428
 9955WAT     H130107   7.079   8.007   5.413
 9955WAT     H230108   6.947   7.928   5.358
 9956WAT      O30109   4.673   1.542   3.253
 9956WAT     H130110   4.644   1.504   3.165
 9956WAT     H230111   4.623   1.497   3.326
 9957WAT      O30112   8.367   7.192   3.728
 9957WAT     H130113   8.425   7.261   3.685
 9957WAT     H230114   8.335   7.127   3.659
 9958WAT      O30115   6.646   0.352   5.197
 9958WAT     H130116   6.622   0.302   5.280
 9958WAT     H230117   6.741   0.382   5.203
 9959WAT      O30118   4.472   3.809   7.449
 9959WAT     H130119   4.474   3.769   7.357
 9959WAT     H230120   4.493   3.907   7.444
 9960WAT      O30121   5.210   8.821   6.053
 9960WAT     H130122   5.285   8.875   6.015
 9960WAT     H230123   5.226   8.807   6.151
 9961WAT      O30124   4.227   5.135   6.826
 9961WAT     H130125   4.188   5.196   6.896
 9961WAT     H230126   4.281   5.189   6.762
 9962WAT      O30127   4.907   1.794   4.094
 9962WAT     H130128   4.820   1.841   4.106
 9962WAT     H230129   4.895   1.696   4.110
 9963WAT      O30130   9.666   3.613   3.463
 9963WAT     H130131   9.714   3.692   3.499
 9963WAT     H230132   9.577   3.603   3.509
 9964WAT      O30133   7.464   8.810   5.146
 9964WAT     H130134   7.473   8.841   5.051
 9964WAT     H230135   7.555   8.795   5.184
 9965WAT      O30136   1.970   3.049   1.333
 9965WAT     H130137   2.064   3.066   1.304
 9965WAT     H230138   1.907   3.088   1.265
 9966WAT      O30139   0.599   3.944   9.143
 9966WAT     H130140   0.536   3.879   9.184
 9966WAT     H230141   0.693   3.921   9.169
 9967WAT      O30142   5.761   2.509   2.688
 9967WAT     H130143   5.715   2.531   2.603
 9967WAT     H230144   5.694   2.504   2.763
 9968WAT      O30145   1.833   8.090   8.218
 9968WAT     H130146   1.921   8.055   8.185
 9968WAT     H230147   1.839   8.109   8.315
 9969WAT      O30148   1.792   8.852   9.137
 9969WAT     H130149   1.861   8.831   9.206
 9969WAT     H230150   1.718   8.784   9.143
 9970WAT      O30151   0.457   9.753   1.358
 9970WAT     H130152   0.380   9.750   1.422
 9970WAT     H230153   0.471   9.663   1.317
 9971WAT      O30154   5.718   6.374   8.415
 9971WAT     H130155   5.708   6.375   8.315
 9971WAT     H230156   5.793   6.434   8.442
 9972WAT      O30157   9.410   8.839   4.552
 9972WAT     H130158   9.496   8.889   4.567
 9972WAT     H230159   9.337   8.881   4.607
 9973WAT      O30160   5.283   2.140   6.705
 9973WAT     H130161   5.381   2.136   6.691
 9973WAT     H230162   5.251   2.234   6.691
 9974WAT      O30163   8.404   0.327   2.532
 9974WAT     H130164   8.399   0.312   2.631
 9974WAT     H230165   8.315   0.308   2.490
 9975WAT      O30166   9.073   3.799   6.770
 9975WAT     H130167   9.032   3.765   6.686
 9975WAT     H230168   9.017   3.771   6.848
 9976WAT      O30169   0.739   3.844   8.115
 9976WAT     H130170   0.760   3.756   8.158
 9976WAT     H230171   0.757   3.918   8.180
 9977WAT      O30172   4.538   7.301   4.461
 9977WAT     H130173   4.559   7.394   4.429
 9977WAT     H230174   4.525   7.302   4.560
 9978WAT      O30175   6.571   9.157   2.019
 9978WAT     H130176   6.636   9.183   1.948
 9978WAT     H230177   6.477   9.174   1.987
 9979WAT      O30178   5.231   1.139   8.675
 9979WAT     H130179   5.226   1.098   8.766
 9979WAT     H230180   5.257   1.070   8.608
 9980WAT      O30181   0.298   8.522   4.460
 9980WAT     H130182   0.396   8.537   4.444
 9980WAT     H230183   0.246   8.556   4.382
 9981WAT      O30184   5.442   8.013   2.837
 9981WAT     H130185   5.471   7.937   2.896
 9981WAT     H230186   5.491   8.096   2.864
 9982WAT      O30187   6.777   1.908   7.822
 9982WAT     H130188   6.725   1.822   7.829
 9982WAT     H230189   6.866   1.889   7.780
 9983WAT      O30190   0.654   5.065   0.378
 9983WAT     H130191   0.646   5.021   0.467
 9983WAT     H230192   0.579   5.034   0.319
 9984WAT      O30193   8.596   8.723   3.422
 9984WAT     H130194   8.517   8.663   3.411
 9984WAT     H230195   8.658   8.711   3.344
 9985WAT      O30196   3.924   8.353   8.881
 9985WAT     H130197   3.824   8.361   8.872
 9985WAT     H230198   3.966   8.441   8.859
 9986WAT      O30199   2.984   2.527   2.036
 9986WAT     H130200   2.886   2.535   2.022
 9986WAT     H230201   3.012   2.431   2.030
 9987WAT      O30202   0.300   5.310   2.154
 9987WAT     H130203   0.252   5.226   2.180
 9987WAT     H230204   0.266   5.387   2.208
 9988WAT      O30205   1.743   3.573   0.092
 9988WAT     H130206   1.810   3.645   0.106
 9988WAT     H230207   1.709   3.541   0.181
 9989WAT      O30208   4.890   1.168   8.981
 9989WAT     H130209   4.854   1.173   9.074
 9989WAT     H230210   4.884   1.075   8.947
 9990WAT      O30211   1.183   2.558   6.045
 9990WAT     H130212   1.268   2.559   6.099
 9990WAT     H230213   1.145   2.651   6.042
 9991WAT      O30214   3.046   2.752   5.495
 9991WAT     H130215   2.952   2.735   5.467
 9991WAT     H230216   3.109   2.717   5.426
 9992WAT      O30217   5.268   9.273   9.264
 9992WAT     H130218   5.179   9.279   9.307
 9992WAT     H230219   5.338   9.257   9.333
 9993WAT      O30220   6.620   8.567   1.573
 9993WAT     H130221   6.648   8.658   1.544
 9993WAT     H230222   6.596   8.568   1.670
 9994WAT      O30223   1.670   5.396   7.113
 9994WAT     H130224   1.602   5.361   7.178
 9994WAT     H230225   1.761   5.361   7.138
 9995WAT      O30226   7.914   9.059   4.733
 9995WAT     H130227   7.895   8.972   4.778
 9995WAT     H230228   8.003   9.093   4.763
 9996WAT      O30229   6.406   0.313   7.715
 9996WAT     H130230   6.312   0.318   7.681
 9996WAT     H230231   6.411   0.247   7.790
 9997WAT      O30232   8.962   8.214   7.839
 9997WAT     H130233   8.911   8.289   7.880
 9997WAT     H230234   9.033   8.251   7.779
 9998WAT      O30235   9.120   0.323   4.001
 9998WAT     H130236   9.077   0.396   4.055
 9998WAT     H230237   9.153   0.251   4.062
 9999WAT      O30238   4.745   6.854   1.790
 9999WAT     H130239   4.647   6.848   1.810
 9999WAT     H230240   4.759   6.845   1.692
10000WAT      O30241   8.037   7.543   3.936
10000WAT     H130242   8.124   7.568   3.893
10000WAT     H230243   7.969   7.523   3.865
10001WAT      O30244   3.381   8.335   7.616
10001WAT     H130245   3.337   8.247   7.600
10001WAT     H230246   3.481   8.325   7.609
10002WAT      O30247   4.404   6.061   3.105
10002WAT     H130248   4.420   6.005   3.186
10002WAT     H230249   4.435   6.012   3.024
10003WAT      O30250   9.591   6.201   5.730
10003WAT     H130251   9.598   6.287   5.780
10003WAT     H230252   9.683   6.168   5.707
10004WAT      O30253   3.720   6.209   3.780
10004WAT     H130254   3.802   6.157   3.756
10004WAT     H230255   3.648   6.190   3.714
10005WAT      O30256   1.154   2.117   1.065
10005WAT     H130257   1.065   2.098   1.105
10005WAT     H230258   1.184   2.038   1.010
10006WAT      O30259   3.117   8.466   3.116
10006WAT     H130260   3.128   8.538   3.185
10006WAT     H230261   3.195   8.403   3.121
10007WAT      O30262   0.440   2.115   6.612
10007WAT     H130263   0.479   2.114   6.704
10007WAT     H230264   0.345   2.145   6.617
10008WAT      O30265   5.298   5.470   7.737
10008WAT     H130266   5.392   5.497   7.755
10008WAT     H230267   5.235   5.532   7.784
10009WAT      O30268   7.985   8.552   3.281
10009WAT     H130269   7.940   8.588   3.199
10009WAT     H230270   7.989   8.452   3.276
10010WAT      O30271   8.613   6.940   3.378
10010WAT     H130272   8.591   6.950   3.475
10010WAT     H230273   8.529   6.917   3.328
10011WAT      O30274   5.123   0.439   4.684
10011WAT     H130275   5.040   0.493   4.668
10011WAT     H230276   5.200   0.500   4.701
10012WAT      O30277   7.707   0.539   8.640
10012WAT     H130278   7.708   0.440   8.623
10012WAT     H230279   7.685   0.587   8.556
10013WAT      O30280   6.778   0.510   6.743
10013WAT     H130281   6.756   0.477   6.835
10013WAT     H230282   6.695   0.516   6.688
10014WAT      O30283   3.555   5.776   3.364
10014WAT     H130284   3.501   5.860   3.364
10014WAT     H230285   3.618   5.777   3.286
10015WAT      O30286   0.081   3.438   5.344
10015WAT     H130287   0.141   3.359   5.346
10015WAT     H230288  -0.004   3.415   5.296
10016WAT      O30289   8.622   2.465   0.779
10016WAT     H130290   8.654   2.477   0.873
10016WAT     H230291   8.596   2.554   0.742
10017WAT      O30292   8.151   2.453   8.457
10017WAT     H130293   8.182   2.491   8.544
10017WAT     H230294   8.052   2.440   8.460
10018WAT      O30295   2.636   4.467   2.884
10018WAT     H130296   2.692   4.510   2.956
10018WAT     H230297   2.540   4.475   2.909
10019WAT      O30298   4.476   7.808   8.453
10019WAT     H130299   4.380   7.820   8.429
10019WAT     H230300   4.488   7.822   8.552
10020WAT      O30301   3.796   1.461   7.995
10020WAT     H130302   3.849   1.378   8.005
10020WAT     H230303   3.720   1.445   7.931
10021WAT      O30304   4.971   6.980   6.165
10021WAT     H130305   4.899   7.048   6.155
10021WAT     H230306   5.021   6.996   6.250
10022WAT      O30307   5.967   4.120   0.848
10022WAT     H130308   5.884   4.068   0.866
10022WAT     H230309   6.047   4.060   0.856
10023WAT      O30310   5.254   0.998   4.164
10023WAT     H130311   5.229   0.914   4.117
10023WAT     H230312   5.334   0.982   4.222
10024WAT      O30313   9.403   8.158   5.582
10024WAT     H130314   9.399   8.234   5.518
10024WAT     H230315   9.462   8.182   5.659
10025WAT      O30316   5.178   7.487   9.258
10025WAT     H130317   5.128   7.401   9.249
10025WAT     H230318   5.178   7.535   9.170
10026WAT      O30319   6.129   3.904   0.811
10026WAT     H130320   6.205   3.899   0.746
10026WAT     H230321   6.151   3.852   0.892
10027WAT      O30322   8.066   0.711   3.264
10027WAT     H130323   8.152   0.759   3.247
10027WAT     H230324   8.062   0.684   3.361
10028WAT      O30325   9.396   0.322   8.421
10028WAT     H130326   9.323   0.343   8.485
10028WAT     H230327   9.418   0.225   8.425
10029WAT      O30328   8.141   0.317   4.299
10029WAT     H130329   8.175   0.317   4.393
10029WAT     H230330   8.192   0.385   4.246
10030WAT      O30331   5.187   0.224   4.901
10030WAT     H130332   5.107   0.215   4.842
10030WAT     H230333   5.263   0.261   4.848
10031WAT      O30334   9.787   8.060   3.295
10031WAT     H130335   9.761   8.049   3.391
10031WAT     H230336   9.845   7.982   3.268
10032WAT      O30337   1.393   9.822   6.434
10032WAT     H130338   1.308   9.848   6.388
10032WAT     H230339   1.404   9.876   6.518
10033WAT      O30340   8.335   9.826   8.949
10033WAT     H130341   8.397   9.776   9.009
10033WAT     H230342   8.269   9.761   8.909
10034WAT      O30343   1.670   7.661   0.832
10034WAT     H130344   1.608   7.732   0.867
10034WAT     H230345   1.623   7.573   0.835
10035WAT      O30346   8.668   2.139   4.565
10035WAT     H130347   8.680   2.231   4.601
10035WAT     H230348   8.723   2.075   4.618
10036WAT      O30349   3.189   2.391   2.931
10036WAT     H130350   3.178   2.418   3.026
10036WAT     H230351   3.259   2.447   2.887
10037WAT      O30352   1.060   8.992   8.497
10037WAT     H130353   1.157   8.980   8.514
10037WAT     H230354   1.014   8.903   8.497
10038WAT      O30355   3.522   0.784   1.605
10038WAT     H130356   3.476   0.720   1.544
10038WAT     H230357   3.455   0.825   1.667
10039WAT      O30358   3.366   6.416   7.727
10039WAT     H130359   3.344   6.469   7.810
10039WAT     H230360   3.303   6.443   7.654
10040WAT      O30361   5.531   7.401   8.889
10040WAT     H130362   5.569   7.309   8.902
10040WAT     H230363   5.462   7.399   8.816
10041WAT      O30364   3.212   7.448   5.432
10041WAT     H130365   3.195   7.533   5.483
10041WAT     H230366   3.259   7.382   5.491
10042WAT      O30367   8.784   4.772   1.619
10042WAT     H130368   8.874   4.757   1.578
10042WAT     H230369   8.734   4.686   1.624
10043WAT      O30370   8.741   2.558   1.032
10043WAT     H130371   8.815   2.626   1.037
10043WAT     H230372   8.766   2.478   1.085
10044WAT      O30373   2.973   4.776   6.948
10044WAT     H130374   2.905   4.843   6.978
10044WAT     H230375   2.985   4.707   7.019
10045WAT      O30376   5.057   4.440   0.600
10045WAT     H130377   5.152   4.419   0.578
10045WAT     H230378   5.053   4.512   0.670
10046WAT      O30379   3.490   4.269   7.366
10046WAT     H130380   3.441   4.256   7.280
10046WAT     H230381   3.509   4.180   7.407
10047WAT      O30382   6.865   6.257   1.300
10047WAT     H130383   6.880   6.172   1.352
10047WAT     H230384   6.848   6.332   1.364
10048WAT      O30385   6.276   7.329   0.349
10048WAT     H130386   6.203   7.277   0.306
10048WAT     H230387   6.360   7.273   0.351
10049WAT      O30388   8.584   8.767   2.585
10049WAT     H130389   8.625   8.786   2.674
10049WAT     H230390   8.647   8.712   2.531
10050WAT      O30391   9.589   3.646   5.324
10050WAT     H130392   9.611   3.707   5.399
10050WAT     H230393   9.493   3.618   5.330
10051WAT      O30394   4.136   7.179   3.816
10051WAT     H130395   4.055   7.221   3.856
10051WAT     H230396   4.153   7.219   3.726
10052WAT      O30397   8.765   0.492   9.772
10052WAT     H130398   8.845   0.549   9.753
10052WAT     H230399   8.719   0.470   9.686
10053WAT      O30400   6.946   3.297   8.773
10053WAT     H130401   6.978   3.209   8.737
10053WAT     H230402   6.850   3.309   8.749
10054WAT      O30403   2.588   9.372   5.906
10054WAT     H130404   2.569   9.317   5.825
10054WAT     H230405   2.610   9.312   5.983
10055WAT      O30406   2.927   9.428   1.536
10055WAT     H130407   2.865   9.376   1.595
10055WAT     H230408   2.929   9.523   1.566
10056WAT      O30409   4.784   4.245   1.156
10056WAT     H130410   4.811   4.342   1.156
10056WAT     H230411   4.865   4.188   1.146
10057WAT      O30412   2.123   0.281   8.390
10057WAT     H130413   2.031   0.291   8.352
10057WAT     H230414   2.149   0.184   8.386
10058WAT      O30415   6.949   9.076   8.873
10058WAT     H130416   6.936   9.173   8.851
10058WAT     H230417   6.870   9.024   8.838
10059WAT      O30418   0.804   9.578   2.956
10059WAT     H130419   0.793   9.559   3.054
10059WAT     H230420   0.714   9.600   2.917
10060WAT      O30421   1.914   3.841   3.572
10060WAT     H130422   1.923   3.856   3.670
10060WAT     H230423   1.831   3.788   3.554
10061WAT      O30424   8.036   9.468   5.437
10061WAT     H130425   8.016   9.371   5.452
10061WAT     H230426   8.073   9.481   5.345
10062WAT      O30427   2.597   2.983   5.723
10062WAT     H130428   2.504   2.985   5.760
10062WAT     H230429   2.662   2.974   5.798
10063WAT      O30430   2.673   5.722   3.309
10063WAT     H130431   2.581   5.707   3.273
10063WAT     H230432   2.681   5.682   3.400
10064WAT      O30433   7.611   4.156   1.072
10064WAT     H130434   7.514   4.175   1.056
10064WAT     H230435   7.653   4.235   1.118
10065WAT      O30436   0.755   4.216   1.508
10065WAT     H130437   0.659   4.239   1.523
10065WAT     H230438   0.813   4.274   1.565
10066WAT      O30439   3.361   2.856   5.350
10066WAT     H130440   3.338   2.763   5.321
10066WAT     H230441   3.428   2.895   5.287
10067WAT      O30442   4.598   1.954   3.376
10067WAT     H130443   4.664   1.905   3.319
10067WAT     H230444   4.540   2.011   3.318
10068WAT      O30445   3.753   6.001   7.415
10068WAT     H130446   3.723   5.923   7.470
10068WAT     H230447   3.716   5.994   7.323
10069WAT      O30448   3.535   6.281   0.183
10069WAT     H130449   3.570   6.274   0.277
10069WAT     H230450   3.453   6.225   0.175
10070WAT      O30451   7.959   5.551   5.342
10070WAT     H130452   7.962   5.644   5.380
10070WAT     H230453   7.899   5.494   5.397
10071WAT      O30454   6.202   0.407   5.972
10071WAT     H130455   6.295   0.370   5.967
10071WAT     H230456   6.203   0.503   5.947
10072WAT      O30457   8.097   2.291   0.097
10072WAT     H130458   8.055   2.311   0.008
10072WAT     H230459   8.173   2.228   0.084
10073WAT      O30460   1.895   3.458   9.784
10073WAT     H130461   1.840   3.486   9.863
10073WAT     H230462   1.847   3.485   9.700
10074WAT      O30463   0.634   3.397   0.134
10074WAT     H130464   0.618   3.494   0.150
10074WAT     H230465   0.600   3.372   0.044
10075WAT      O30466   9.312   6.946   6.484
10075WAT     H130467   9.335   7.027   6.431
10075WAT     H230468   9.382   6.875   6.467
10076WAT      O30469   5.874   8.615   6.871
10076WAT     H130470   5.940   8.541   6.856
10076WAT     H230471   5.783   8.586   6.843
10077WAT      O30472   7.344   7.123   4.720
10077WAT     H130473   7.261   7.103   4.667
10077WAT     H230474   7.408   7.046   4.712
10078WAT      O30475   8.937   5.700   7.281
10078WAT     H130476   9.024   5.669   7.320
10078WAT     H230477   8.863   5.644   7.318
10079WAT      O30478   3.760   3.133   4.576
10079WAT     H130479   3.699   3.208   4.552
10079WAT     H230480   3.855   3.160   4.556
10080WAT      O30481   9.576   9.528   9.031
10080WAT     H130482   9.539   9.568   8.946
10080WAT     H230483   9.627   9.445   9.009
10081WAT      O30484   1.188   0.235   3.031
10081WAT     H130485   1.157   0.247   2.936
10081WAT     H230486   1.109   0.215   3.089
10082WAT      O30487   7.988   5.288   4.406
10082WAT     H130488   7.938   5.215   4.361
10082WAT     H230489   7.924   5.362   4.431
10083WAT      O30490   0.014   6.350   4.849
10083WAT     H130491   0.017   6.436   4.901
10083WAT     H230492   0.105   6.308   4.850
10084WAT      O30493   7.876   6.349   2.294
10084WAT     H130494   7.792   6.399   2.274
10084WAT     H230495   7.856   6.251   2.299
10085WAT      O30496   5.563   7.529   0.302
10085WAT     H130497   5.540   7.445   0.353
10085WAT     H230498   5.503   7.537   0.223
10086WAT      O30499   8.633   0.093   7.079
10086WAT     H130500   8.707   0.027   7.092
10086WAT     H230501   8.671   0.185   7.070
10087WAT      O30502   1.485   6.538   4.087
10087WAT     H130503   1.444   6.619   4.044
10087WAT     H230504   1.507   6.471   4.017
10088WAT      O30505   5.235   3.953   2.250
10088WAT     H130506   5.154   3.952   2.191
10088WAT     H230507   5.293   4.030   2.225
10089WAT      O30508   4.420   7.775   3.714
10089WAT     H130509   4.401   7.820   3.801
10089WAT     H230510   4.342   7.718   3.688
10090WAT      O30511   9.483   8.814   6.540
10090WAT     H130512   9.446   8.812   6.447
10090WAT     H230513   9.536   8.897   6.553
10091WAT      O30514   7.443   8.426   5.215
10091WAT     H130515   7.493   8.424   5.129
10091WAT     H230516   7.505   8.447   5.290
10092WAT      O30517   1.096   6.496   1.738
10092WAT     H130518   1.008   6.541   1.725
10092WAT     H230519   1.157   6.521   1.662
10093WAT      O30520   8.994   2.486   9.243
10093WAT     H130521   8.913   2.442   9.205
10093WAT     H230522   9.019   2.565   9.187
10094WAT      O30523   0.508   4.109   7.249
10094WAT     H130524   0.586   4.047   7.241
10094WAT     H230525   0.428   4.059   7.279
10095WAT      O30526   5.482   6.348   2.272
10095WAT     H130527   5.577   6.375   2.290
10095WAT     H230528   5.446   6.404   2.197
10096WAT      O30529   9.191   6.343   6.789
10096WAT     H130530   9.201   6.288   6.706
10096WAT     H230531   9.281   6.360   6.829
10097WAT      O30532   1.391   2.207   6.392
10097WAT     H130533   1.423   2.225   6.485
10097WAT     H230534   1.291   2.210   6.390
10098WAT      O30535   2.530   4.044   3.842
10098WAT     H130536   2.510   4.131   3.798
10098WAT     H230537   2.518   3.970   3.777
10099WAT      O30538   1.242   5.915   4.610
10099WAT     H130539   1.167   5.978   4.590
10099WAT     H230540   1.227   5.829   4.560
10100WAT      O30541   5.178   4.557   8.557
10100WAT     H130542   5.212   4.502   8.481
10100WAT     H230543   5.189   4.654   8.536
10101WAT      O30544   4.923   7.866   5.051
10101WAT     H130545   4.937   7.907   5.141
10101WAT     H230546   4.840   7.902   5.010
10102WAT      O30547   8.873   3.864   3.101
10102WAT     H130548   8.814   3.790   3.067
10102WAT     H230549   8.884   3.933   3.030
10103WAT      O30550   9.752   2.725   2.906
10103WAT     H130551   9.833   2.773   2.940
10103WAT     H230552   9.749   2.633   2.946
10104WAT      O30553   3.373   4.763   7.393
10104WAT     H130554   3.346   4.790   7.301
10104WAT     H230555   3.446   4.694   7.388
10105WAT      O30556   1.468   6.161   6.095
10105WAT     H130557   1.410   6.241   6.113
10105WAT     H230558   1.520   6.176   6.011
10106WAT      O30559   4.424   6.965   8.072
10106WAT     H130560   4.388   7.000   7.986
10106WAT     H230561   4.524   6.956   8.065
10107WAT      O30562   7.540   6.519   7.231
10107WAT     H130563   7.612   6.454   7.258
10107WAT     H230564   7.459   6.505   7.288
10108WAT      O30565   5.198   3.378   6.443
10108WAT     H130566   5.259   3.339   6.374
10108WAT     H230567   5.107   3.339   6.432
10109WAT      O30568   6.092   2.652   4.129
10109WAT     H130569   6.058   2.650   4.223
10109WAT     H230570   6.178   2.602   4.123
10110WAT      O30571   8.309   5.688   2.184
10110WAT     H130572   8.292   5.709   2.088
10110WAT     H230573   8.294   5.590   2.199
10111WAT      O30574   5.930   5.400   1.569
10111WAT     H130575   5.886   5.322   1.614
10111WAT     H230576   5.942   5.379   1.471
10112WAT      O30577   9.055   6.360   2.902
10112WAT     H130578   9.102   6.280   2.939
10112WAT     H230579   9.040   6.348   2.804
10113WAT      O30580   2.039   9.839   9.847
10113WAT     H130581   2.071   9.770   9.912
10113WAT     H230582   1.992   9.912   9.896
10114WAT      O30583   9.762   2.894   9.193
10114WAT     H130584   9.760   2.871   9.096
10114WAT     H230585   9.748   2.992   9.204
10115WAT      O30586   0.093   7.894   4.407
10115WAT     H130587   0.137   7.872   4.494
10115WAT     H230588   0.112   7.990   4.383
10116WAT      O30589   3.608   4.559   8.404
10116WAT     H130590   3.631   4.554   8.306
10116WAT     H230591   3.512   4.585   8.414
10117WAT      O30592   4.382   0.946   4.230
10117WAT     H130593   4.428   0.904   4.308
10117WAT     H230594   4.383   0.883   4.152
10118WAT      O30595   9.722   5.276   4.888
10118WAT     H130596   9.687   5.222   4.811
10118WAT     H230597   9.731   5.217   4.968
10119WAT      O30598   6.821   7.187   1.440
10119WAT     H130599   6.906   7.162   1.395
10119WAT     H230600   6.755   7.218   1.372
10120WAT      O30601   9.635   3.188   5.259
10120WAT     H130602   9.606   3.150   5.171
10120WAT     H230603   9.680   3.277   5.243
10121WAT      O30604   0.285   6.190   1.707
10121WAT     H130605   0.262   6.287   1.718
10121WAT     H230606   0.366   6.182   1.649
10122WAT      O30607   7.017   1.173   1.063
10122WAT     H130608   6.964   1.088   1.060
10122WAT     H230609   7.014   1.210   1.156
10123WAT      O30610   9.636   2.718   4.879
10123WAT     H130611   9.649   2.767   4.793
10123WAT     H230612   9.578   2.638   4.863
10124WAT      O30613   5.336   9.095   8.386
10124WAT     H130614   5.360   9.181   8.342
10124WAT     H230615   5.238   9.094   8.406
10125WAT      O30616   4.538   6.337   4.647
10125WAT     H130617   4.629   6.340   4.606
10125WAT     H230618   4.487   6.418   4.621
10126WAT      O30619   1.811   9.050   1.516
10126WAT     H130620   1.727   9.067   1.567
10126WAT     H230621   1.838   9.133   1.467
10127WAT      O30622   8.604   7.544   1.151
10127WAT     H130623   8.516   7.538   1.198
10127WAT     H230624   8.678   7.535   1.218
10128WAT      O30625   5.099   7.869   7.361
10128WAT     H130626   5.125   7.877   7.265
10128WAT     H230627   5.052   7.952   7.390
10129WAT      O30628   8.186   5.665   3.514
10129WAT     H130629   8.169   5.715   3.599
10129WAT     H230630   8.231   5.579   3.535
10130WAT      O30631   8.014   3.501   2.250
10130WAT     H130632   7.956   3.575   2.284
10130WAT     H230633   8.046   3.523   2.158
10131WAT      O30634   1.981   2.807   3.997
10131WAT     H130635   1.893   2.759   3.993
10131WAT     H230636   2.015   2.807   4.091
10132WAT      O30637   4.850   2.551   5.613
10132WAT     H130638   4.911   2.551   5.692
10132WAT     H230639   4.838   2.458   5.580
10133WAT      O30640   7.244   0.316   9.744
10133WAT     H130641   7.202   0.280   9.661
10133WAT     H230642   7.173   0.334   9.812
10134WAT      O30643   3.818   8.953   9.344
10134WAT     H130644   3.855   8.877   9.397
10134WAT     H230645   3.858   9.039   9.377
10135WAT      O30646   4.552   8.399   1.534
10135WAT     H130647   4.579   8.313   1.491
10135WAT     H230648   4.500   8.380   1.617
10136WAT      O30649   1.608   1.550   9.060
10136WAT     H130650   1.660   1.610   9.121
10136WAT     H230651   1.653   1.546   8.971
10137WAT      O30652   6.708   9.049   3.965
10137WAT     H130653   6.622   9.079   4.006
10137WAT     H230654   6.746   8.974   4.018
10138WAT      O30655   7.526   2.044   8.343
10138WAT     H130656   7.464   1.981   8.388
10138WAT     H230657   7.489   2.070   8.254
10139WAT      O30658   3.121   5.423   0.325
10139WAT     H130659   3.158   5.480   0.398
10139WAT     H230660   3.154   5.329   0.336
10140WAT      O30661   6.534   3.361   3.124
10140WAT     H130662   6.613   3.338   3.067
10140WAT     H230663   6.562   3.419   3.200
10141WAT      O30664   9.133   1.518   8.381
10141WAT     H130665   9.040   1.496   8.409
10141WAT     H230666   9.139   1.615   8.357
10142WAT      O30667   0.495   2.982   6.455
10142WAT     H130668   0.499   2.908   6.521
10142WAT     H230669   0.464   2.947   6.367
10143WAT      O30670   4.971   6.128   1.994
10143WAT     H130671   5.067   6.136   2.019
10143WAT     H230672   4.922   6.210   2.022
10144WAT      O30673   1.806   7.067   1.757
10144WAT     H130674   1.820   6.999   1.686
10144WAT     H230675   1.835   7.157   1.723
10145WAT      O30676   3.357   1.930   9.323
10145WAT     H130677   3.335   1.833   9.330
10145WAT     H230678   3.418   1.957   9.398
10146WAT      O30679   8.524   3.051   1.631
10146WAT     H130680   8.609   3.103   1.616
10146WAT     H230681   8.462   3.065   1.554
10147WAT      O30682   0.453   9.566   2.713
10147WAT     H130683   0.358   9.585   2.737
10147WAT     H230684   0.457   9.535   2.618
10148WAT      O30685   0.623   6.779   2.885
10148WAT     H130686   0.595   6.773   2.981
10148WAT     H230687   0.619   6.689   2.842
10149WAT      O30688   5.400   6.666   5.621
10149WAT     H130689   5.315   6.633   5.581
10149WAT     H230690   5.473   6.600   5.606
10150WAT      O30691   2.506   8.809   7.913
10150WAT     H130692   2.584   8.747   7.921
10150WAT     H230693   2.519   8.887   7.974
10151WAT      O30694   5.932   7.389   1.207
10151WAT     H130695   5.890   7.345   1.287
10151WAT     H230696   6.032   7.385   1.216
10152WAT      O30697   3.001   9.837   0.060
10152WAT     H130698   2.916   9.806   0.017
10152WAT     H230699   3.009   9.936   0.050
10153WAT      O30700   6.402   3.013   2.479
10153WAT     H130701   6.421   2.919   2.450
10153WAT     H230702   6.323   3.015   2.540
10154WAT      O30703   7.705   7.170   2.598
10154WAT     H130704   7.787   7.216   2.630
10154WAT     H230705   7.713   7.072   2.615
10155WAT      O30706   1.715   6.325   0.944
10155WAT     H130707   1.640   6.390   0.939
10155WAT     H230708   1.800   6.371   0.917
10156WAT      O30709   1.226   2.758   1.153
10156WAT     H130710   1.287   2.680   1.168
10156WAT     H230711   1.179   2.780   1.239
10157WAT      O30712   0.660   0.030   0.482
10157WAT     H130713   0.758   0.044   0.495
10157WAT     H230714   0.619   0.111   0.440
10158WAT      O30715   2.063   5.592   0.312
10158WAT     H130716   2.008   5.552   0.239
10158WAT     H230717   2.053   5.538   0.396
10159WAT      O30718   2.528   8.104   2.596
10159WAT     H130719   2.506   8.007   2.592
10159WAT     H230720   2.554   8.129   2.689
10160WAT      O30721   1.099   4.914   6.103
10160WAT     H130722   1.148   4.833   6.072
10160WAT     H230723   1.017   4.886   6.155
10161WAT      O30724   5.244   8.432   1.792
10161WAT     H130725   5.297   8.349   1.776
10161WAT     H230726   5.146   8.410   1.784
10162WAT      O30727   1.218   8.267   1.793
10162WAT     H130728   1.164   8.319   1.860
10162WAT     H230729   1.256   8.330   1.725
10163WAT      O30730   3.977   6.048   6.234
10163WAT     H130731   3.977   5.962   6.286
10163WAT     H230732   4.071   6.077   6.217
10164WAT      O30733   3.563   8.369   6.946
10164WAT     H130734   3.648   8.411   6.976
10164WAT     H230735   3.504   8.438   6.904
10165WAT      O30736   9.468   6.902   0.288
10165WAT     H130737   9.481   6.905   0.387
10165WAT     H230738   9.423   6.986   0.258
10166WAT      O30739   1.710   0.123   6.271
10166WAT     H130740   1.659   0.043   6.238
10166WAT     H230741   1.746   0.174   6.193
10167WAT      O30742   1.565   3.283   6.649
10167WAT     H130743   1.484   3.279   6.590
10167WAT     H230744   1.536   3.278   6.745
10168WAT      O30745   5.741   9.491   7.044
10168WAT     H130746   5.643   9.509   7.036
10168WAT     H230747   5.773   9.516   7.135
10169WAT      O30748   3.517   9.034   7.286
10169WAT     H130749   3.417   9.029   7.291
10169WAT     H230750   3.556   8.949   7.321
10170WAT      O30751   4.732   9.584   1.357
10170WAT     H130752   4.796   9.507   1.355
10170WAT     H230753   4.782   9.669   1.372
10171WAT      O30754   8.126   1.518   0.723
10171WAT     H130755   8.157   1.566   0.805
10171WAT     H230756   8.137   1.420   0.736
10172WAT      O30757   3.984   0.364   0.808
10172WAT     H130758   3.957   0.282   0.858
10172WAT     H230759   4.058   0.410   0.857
10173WAT      O30760   4.233   6.945   8.866
10173WAT     H130761   4.261   7.023   8.923
10173WAT     H230762   4.151   6.970   8.814
10174WAT      O30763   8.934   0.450   9.346
10174WAT     H130764   8.997   0.507   9.399
10174WAT     H230765   8.976   0.360   9.330
10175WAT      O30766   6.302   9.626   3.622
10175WAT     H130767   6.325   9.541   3.670
10175WAT     H230768   6.362   9.699   3.654
10176WAT      O30769   7.765   6.039   7.317
10176WAT     H130770   7.827   5.973   7.275
10176WAT     H230771   7.671   6.021   7.286
10177WAT      O30772   0.253   5.448   9.547
10177WAT     H130773   0.176   5.451   9.483
10177WAT     H230774   0.323   5.513   9.518
10178WAT      O30775   0.646   5.643   4.091
10178WAT     H130776   0.613   5.737   4.102
10178WAT     H230777   0.732   5.632   4.140
10179WAT      O30778   5.849   9.032   8.883
10179WAT     H130779   5.883   9.064   8.795
10179WAT     H230780   5.762   9.077   8.904
10180WAT      O30781   6.239   1.913   5.337
10180WAT     H130782   6.174   1.986   5.355
10180WAT     H230783   6.249   1.900   5.239
10181WAT      O30784   9.408   8.529   5.720
10181WAT     H130785   9.444   8.565   5.806
10181WAT     H230786   9.354   8.447   5.738
10182WAT      O30787   9.423   6.503   4.295
10182WAT     H130788   9.424   6.602   4.282
10182WAT     H230789   9.485   6.478   4.369
10183WAT      O30790   7.729   8.528   8.726
10183WAT     H130791   7.727   8.627   8.740
10183WAT     H230792   7.636   8.495   8.711
10184WAT      O30793   0.933   6.611   0.183
10184WAT     H130794   0.839   6.630   0.156
10184WAT     H230795   0.991   6.608   0.101
10185WAT      O30796   3.456   1.385   3.245
10185WAT     H130797   3.452   1.287   3.226
10185WAT     H230798   3.548   1.419   3.227
10186WAT      O30799   8.583   6.608   2.622
10186WAT     H130800   8.594   6.686   2.684
10186WAT     H230801   8.654   6.540   2.640
10187WAT      O30802   7.287   2.247   3.713
10187WAT     H130803   7.366   2.195   3.678
10187WAT     H230804   7.212   2.241   3.648
10188WAT      O30805   5.213   6.112   5.402
10188WAT     H130806   5.193   6.135   5.497
10188WAT     H230807   5.296   6.057   5.397
10189WAT      O30808   0.218   4.419   9.539
10189WAT     H130809   0.252   4.337   9.492
10189WAT     H230810   0.137   4.396   9.592
10190WAT      O30811   2.742   7.368   9.149
10190WAT     H130812   2.666   7.324   9.101
10190WAT     H230813   2.736   7.349   9.247
10191WAT      O30814   9.058   7.981   0.256
10191WAT     H130815   9.081   7.892   0.295
10191WAT     H230816   9.084   8.053   0.320
10192WAT      O30817   6.713   8.039   3.737
10192WAT     H130818   6.706   8.045   3.837
10192WAT     H230819   6.794   8.087   3.706
10193WAT      O30820   1.919   8.734   2.069
10193WAT     H130821   1.867   8.793   2.006
10193WAT     H230822   1.984   8.678   2.017
10194WAT      O30823   4.717   6.857   9.273
10194WAT     H130824   4.744   6.795   9.199
10194WAT     H230825   4.786   6.854   9.346
10195WAT      O30826   3.611   0.850   4.129
10195WAT     H130827   3.666   0.904   4.065
10195WAT     H230828   3.565   0.911   4.193
10196WAT      O30829   4.739   9.641   4.221
10196WAT     H130830   4.713   9.595   4.136
10196WAT     H230831   4.687   9.726   4.230
10197WAT      O30832   3.864   9.312   8.362
10197WAT     H130833   3.920   9.304   8.279
10197WAT     H230834   3.778   9.263   8.348
10198WAT      O30835   7.919   8.550   2.690
10198WAT     H130836   7.889   8.645   2.684
10198WAT     H230837   7.909   8.518   2.784
10199WAT      O30838   8.437   7.873   6.592
10199WAT     H130839   8.536   7.864   6.578
10199WAT     H230840   8.392   7.884   6.503
10200WAT      O30841   4.940   2.088   4.863
10200WAT     H130842   4.860   2.144   4.887
10200WAT     H230843   5.023   2.142   4.875
10201WAT      O30844   3.403   5.389   6.108
10201WAT     H130845   3.491   5.366   6.066
10201WAT     H230846   3.401   5.487   6.129
10202WAT      O30847   0.955   2.203   6.778
10202WAT     H130848   1.030   2.169   6.722
10202WAT     H230849   0.934   2.297   6.752
10203WAT      O30850   7.954   4.417   9.559
10203WAT     H130851   7.980   4.485   9.490
10203WAT     H230852   7.949   4.461   9.649
10204WAT      O30853   0.735   4.788   5.192
10204WAT     H130854   0.666   4.721   5.165
10204WAT     H230855   0.719   4.815   5.287
10205WAT      O30856   7.959   1.659   1.827
10205WAT     H130857   8.035   1.671   1.763
10205WAT     H230858   7.891   1.732   1.813
10206WAT      O30859   6.879   5.431   7.518
10206WAT     H130860   6.913   5.489   7.444
10206WAT     H230861   6.953   5.412   7.583
10207WAT      O30862   6.938   5.909   5.626
10207WAT     H130863   6.936   5.833   5.690
10207WAT     H230864   7.029   5.914   5.582
10208WAT      O30865   7.048   0.674   8.463
10208WAT     H130866   7.056   0.772   8.446
10208WAT     H230867   7.139   0.633   8.465
10209WAT      O30868   3.737   5.862   2.486
10209WAT     H130869   3.688   5.824   2.564
10209WAT     H230870   3.708   5.957   2.471
10210WAT      O30871   7.220   0.274   1.599
10210WAT     H130872   7.296   0.301   1.658
10210WAT     H230873   7.252   0.205   1.533
10211WAT      O30874   4.220   9.430   3.798
10211WAT     H130875   4.300   9.474   3.841
10211WAT     H230876   4.241   9.409   3.703
10212WAT      O30877   9.347   6.183   1.439
10212WAT     H130878   9.285   6.243   1.489
10212WAT     H230879   9.427   6.235   1.409
10213WAT      O30880   7.325   7.653   7.817
10213WAT     H130881   7.313   7.726   7.884
10213WAT     H230882   7.390   7.682   7.746
10214WAT      O30883   2.253   7.165   1.909
10214WAT     H130884   2.302   7.251   1.893
10214WAT     H230885   2.217   7.130   1.823
10215WAT      O30886   4.235   6.906   0.832
10215WAT     H130887   4.166   6.843   0.867
10215WAT     H230888   4.323   6.887   0.876
10216WAT      O30889   7.520   4.194   5.581
10216WAT     H130890   7.436   4.214   5.631
10216WAT     H230891   7.497   4.143   5.498
10217WAT      O30892   8.742   4.591   8.051
10217WAT     H130893   8.786   4.661   8.107
10217WAT     H230894   8.651   4.623   8.023
10218WAT      O30895   9.064   4.159   1.894
10218WAT     H130896   8.994   4.180   1.826
10218WAT     H230897   9.076   4.060   1.900
10219WAT      O30898   5.626   3.699   1.702
10219WAT     H130899   5.581   3.762   1.766
10219WAT     H230900   5.603   3.726   1.608
10220WAT      O30901   2.841   8.451   9.103
10220WAT     H130902   2.941   8.452   9.109
10220WAT     H230903   2.802   8.512   9.172
10221WAT      O30904   7.055   8.795   2.377
10221WAT     H130905   7.003   8.731   2.320
10221WAT     H230906   6.991   8.853   2.429
10222WAT      O30907   4.704   2.553   9.626
10222WAT     H130908   4.773   2.606   9.676
10222WAT     H230909   4.614   2.571   9.664
10223WAT      O30910   5.804   1.621   6.742
10223WAT     H130911   5.843   1.569   6.818
10223WAT     H230912   5.828   1.718   6.753
10224WAT      O30913   6.446   5.751   0.350
10224WAT     H130914   6.420   5.848   0.344
10224WAT     H230915   6.540   5.744   0.382
10225WAT      O30916   8.761   7.674   7.918
10225WAT     H130917   8.762   7.577   7.939
10225WAT     H230918   8.836   7.696   7.855
10226WAT      O30919   2.336   1.369   5.715
10226WAT     H130920   2.239   1.368   5.740
10226WAT     H230921   2.392   1.382   5.797
10227WAT      O30922   4.283   0.340   4.709
10227WAT     H130923   4.217   0.272   4.676
10227WAT     H230924   4.257   0.431   4.676
10228WAT      O30925   5.681   0.901   5.195
10228WAT     H130926   5.722   0.962   5.127
10228WAT     H230927   5.675   0.808   5.158
10229WAT      O30928   2.772   4.457   0.146
10229WAT     H130929   2.806   4.510   0.224
10229WAT     H230930   2.715   4.514   0.088
10230WAT      O30931   3.434   7.141   2.056
10230WAT     H130932   3.417   7.239   2.048
10230WAT     H230933   3.428   7.114   2.152
10231WAT      O30934   8.174   6.502   2.677
10231WAT     H130935   8.248   6.441   2.706
10231WAT     H230936   8.213   6.585   2.636
10232WAT      O30937   4.121   4.114   5.850
10232WAT     H130938   4.214   4.122   5.814
10232WAT     H230939   4.109   4.023   5.890
10233WAT      O30940   3.057   1.716   1.878
10233WAT     H130941   2.957   1.718   1.880
10233WAT     H230942   3.091   1.638   1.930
10234WAT      O30943   4.282   2.952   5.762
10234WAT     H130944   4.271   2.928   5.666
10234WAT     H230945   4.362   3.011   5.773
10235WAT      O30946   3.551   2.642   7.992
10235WAT     H130947   3.589   2.714   7.933
10235WAT     H230948   3.558   2.554   7.945
10236WAT      O30949   5.932   2.150   2.786
10236WAT     H130950   5.844   2.142   2.739
10236WAT     H230951   5.932   2.090   2.866
10237WAT      O30952   1.104   2.879   2.270
10237WAT     H130953   1.023   2.822   2.255
10237WAT     H230954   1.108   2.907   2.366
10238WAT      O30955   0.274   4.524   8.944
10238WAT     H130956   0.361   4.491   8.907
10238WAT     H230957   0.276   4.623   8.953
10239WAT      O30958   4.158   7.166   1.580
10239WAT     H130959   4.110   7.092   1.534
10239WAT     H230960   4.214   7.216   1.515
10240WAT      O30961   2.369   0.047   3.227
10240WAT     H130962   2.303   0.113   3.263
10240WAT     H230963   2.377  -0.030   3.290
10241WAT      O30964   8.517   5.823   0.301
10241WAT     H130965   8.534   5.913   0.262
10241WAT     H230966   8.508   5.831   0.400
10242WAT      O30967   3.870   8.883   1.257
10242WAT     H130968   3.860   8.944   1.179
10242WAT     H230969   3.883   8.937   1.340
10243WAT      O30970   5.948   4.910   1.837
10243WAT     H130971   5.905   4.997   1.860
10243WAT     H230972   6.012   4.884   1.910
10244WAT      O30973   2.842   7.942   5.552
10244WAT     H130974   2.919   7.982   5.601
10244WAT     H230975   2.844   7.971   5.456
10245WAT      O30976   3.398   8.444   2.552
10245WAT     H130977   3.334   8.519   2.531
10245WAT     H230978   3.347   8.360   2.568
10246WAT      O30979   1.974   0.015   3.599
10246WAT     H130980   1.968   0.085   3.670
10246WAT     H230981   1.973   0.059   3.509
10247WAT      O30982   6.393   5.696   2.874
10247WAT     H130983   6.439   5.733   2.793
10247WAT     H230984   6.354   5.771   2.927
10248WAT      O30985   4.939   2.545   3.461
10248WAT     H130986   4.963   2.527   3.556
10248WAT     H230987   4.854   2.498   3.438
10249WAT      O30988   6.802   4.524   6.139
10249WAT     H130989   6.852   4.494   6.057
10249WAT     H230990   6.764   4.615   6.123
10250WAT      O30991   3.335   5.654   6.494
10250WAT     H130992   3.398   5.636   6.570
10250WAT     H230993   3.363   5.737   6.447
10251WAT      O30994   7.368   9.606   4.280
10251WAT     H130995   7.443   9.566   4.227
10251WAT     H230996   7.351   9.699   4.248
10252WAT      O30997   9.760   7.283   8.121
10252WAT     H130998   9.687   7.219   8.097
10252WAT     H230999   9.724   7.354   8.182
10253WAT      O31000   0.905   5.264   5.653
10253WAT     H131001   0.985   5.253   5.593
10253WAT     H231002   0.822   5.243   5.602
10254WAT      O31003   5.907   3.509   5.252
10254WAT     H131004   5.935   3.576   5.321
10254WAT     H231005   5.886   3.556   5.166
10255WAT      O31006   0.151   2.552   0.512
10255WAT     H131007   0.197   2.547   0.424
10255WAT     H231008   0.126   2.647   0.532
10256WAT      O31009   3.106   2.300   5.607
10256WAT     H131010   3.063   2.363   5.672
10256WAT     H231011   3.174   2.245   5.655
10257WAT      O31012   1.478   8.586   0.182
10257WAT     H131013   1.483   8.504   0.239
10257WAT     H231014   1.464   8.560   0.087
10258WAT      O31015   7.867   0.850   4.718
10258WAT     H131016   7.815   0.934   4.703
10258WAT     H231017   7.959   0.872   4.748
10259WAT      O31018   5.717   7.003   4.731
10259WAT     H131019   5.760   7.066   4.796
10259WAT     H231020   5.774   6.921   4.722
10260WAT      O31021   6.342   1.400   8.952
10260WAT     H131022   6.401   1.337   9.003
10260WAT     H231023   6.381   1.415   8.862
10261WAT      O31024   5.382   5.150   0.469
10261WAT     H131025   5.474   5.186   0.486
10261WAT     H231026   5.388   5.067   0.413
10262WAT      O31027   8.059   9.663   2.756
10262WAT     H131028   8.127   9.596   2.785
10262WAT     H231029   8.010   9.698   2.836
10263WAT      O31030   2.974   2.174   8.337
10263WAT     H131031   3.027   2.202   8.256
10263WAT     H231032   2.986   2.243   8.409
10264WAT      O31033   8.757   6.888   6.654
10264WAT     H131034   8.747   6.806   6.598
10264WAT     H231035   8.761   6.969   6.595
10265WAT      O31036   4.850   1.948   5.531
10265WAT     H131037   4.919   1.884   5.566
10265WAT     H231038   4.860   1.957   5.432
10266WAT      O31039   0.163   7.224   6.081
10266WAT     H131040   0.168   7.193   6.176
10266WAT     H231041   0.145   7.145   6.021
10267WAT      O31042   5.778   7.387   8.651
10267WAT     H131043   5.850   7.375   8.720
10267WAT     H231044   5.721   7.305   8.647
10268WAT      O31045   7.888   9.412   4.496
10268WAT     H131046   7.838   9.499   4.497
10268WAT     H231047   7.864   9.361   4.414
10269WAT      O31048   0.888   4.601   6.049
10269WAT     H131049   0.799   4.567   6.019
10269WAT     H231050   0.946   4.523   6.075
10270WAT      O31051   5.863   4.027   7.873
10270WAT     H131052   5.950   4.009   7.828
10270WAT     H231053   5.838   3.950   7.931
10271WAT      O31054   0.460   1.047   4.849
10271WAT     H131055   0.429   1.119   4.912
10271WAT     H231056   0.538   0.999   4.889
10272WAT      O31057   1.746   6.985   2.479
10272WAT     H131058   1.795   6.919   2.537
10272WAT     H231059   1.701   6.937   2.405
10273WAT      O31060   6.996   2.556   7.507
10273WAT     H131061   6.911   2.529   7.462
10273WAT     H231062   7.012   2.654   7.493
10274WAT      O31063   9.607   4.274   1.406
10274WAT     H131064   9.701   4.311   1.406
10274WAT     H231065   9.559   4.308   1.325
10275WAT      O31066   2.116   7.053   8.091
10275WAT     H131067   2.178   7.005   8.151
10275WAT     H231068   2.083   7.136   8.136
10276WAT      O31069   8.468   5.160   9.058
10276WAT     H131070   8.450   5.229   8.987
10276WAT     H231071   8.429   5.191   9.145
10277WAT      O31072   9.157   8.608   9.376
10277WAT     H131073   9.077   8.573   9.327
10277WAT     H231074   9.234   8.547   9.361
10278WAT      O31075   4.247   1.777   5.246
10278WAT     H131076   4.291   1.861   5.277
10278WAT     H231077   4.275   1.702   5.307
10279WAT      O31078   1.359   8.986   0.285
10279WAT     H131079   1.263   9.000   0.309
10279WAT     H231080   1.412   9.066   0.312
10280WAT      O31081   3.124   0.012   5.222
10280WAT     H131082   3.069   0.023   5.304
10280WAT     H231083   3.101   0.083   5.156
10281WAT      O31084   9.113   6.242   6.328
10281WAT     H131085   9.038   6.176   6.333
10281WAT     H231086   9.175   6.217   6.253
10282WAT      O31087   3.500   8.433   8.198
10282WAT     H131088   3.546   8.466   8.281
10282WAT     H231089   3.568   8.421   8.125
10283WAT      O31090   7.839   6.821   2.348
10283WAT     H131091   7.752   6.855   2.384
10283WAT     H231092   7.840   6.721   2.355
10284WAT      O31093   4.711   6.511   5.927
10284WAT     H131094   4.664   6.491   6.013
10284WAT     H231095   4.774   6.589   5.941
10285WAT      O31096   6.718   2.643   1.235
10285WAT     H131097   6.809   2.622   1.200
10285WAT     H231098   6.699   2.740   1.223
10286WAT      O31099   0.986   9.355   6.115
10286WAT     H131100   1.030   9.333   6.202
10286WAT     H231101   0.951   9.449   6.118
10287WAT      O31102   3.941   2.000   0.911
10287WAT     H131103   3.900   2.004   0.819
10287WAT     H231104   4.011   2.071   0.919
10288WAT      O31105   5.131   3.733   4.805
10288WAT     H131106   5.205   3.718   4.739
10288WAT     H231107   5.046   3.753   4.757
10289WAT      O31108   8.715   2.029   4.058
10289WAT     H131109   8.704   2.063   4.151
10289WAT     H231110   8.740   1.932   4.061
10290WAT      O31111   0.546   5.382   8.735
10290WAT     H131112   0.495   5.371   8.650
10290WAT     H231113   0.643   5.368   8.717
10291WAT      O31114   1.826   8.592   4.705
10291WAT     H131115   1.815   8.495   4.685
10291WAT     H231116   1.744   8.626   4.751
10292WAT      O31117   4.181   7.615   6.457
10292WAT     H131118   4.143   7.661   6.537
10292WAT     H231119   4.162   7.669   6.375
10293WAT      O31120   8.570   0.669   0.347
10293WAT     H131121   8.620   0.702   0.266
10293WAT     H231122   8.473   0.689   0.336
10294WAT      O31123   5.349   1.708   6.629
10294WAT     H131124   5.417   1.634   6.627
10294WAT     H231125   5.336   1.744   6.536
10295WAT      O31126   3.081   1.006   0.031
10295WAT     H131127   3.029   1.092   0.033
10295WAT     H231128   3.116   0.990  -0.061
10296WAT      O31129   4.216   3.934   2.734
10296WAT     H131130   4.198   4.028   2.763
10296WAT     H231131   4.275   3.935   2.653
10297WAT      O31132   7.563   2.720   4.907
10297WAT     H131133   7.548   2.624   4.883
10297WAT     H231134   7.657   2.746   4.885
10298WAT      O31135   9.235   3.331   2.343
10298WAT     H131136   9.229   3.406   2.409
10298WAT     H231137   9.287   3.361   2.263
10299WAT      O31138   7.011   8.685   3.917
10299WAT     H131139   7.077   8.753   3.949
10299WAT     H231140   7.010   8.685   3.817
10300WAT      O31141   3.125   2.843   1.367
10300WAT     H131142   3.157   2.750   1.384
10300WAT     H231143   3.026   2.847   1.380
10301WAT      O31144   9.650   4.964   7.207
10301WAT     H131145   9.673   5.016   7.125
10301WAT     H231146   9.625   4.870   7.181
10302WAT      O31147   0.039   9.645   7.326
10302WAT     H131148   0.134   9.672   7.309
10302WAT     H231149   0.007   9.587   7.251
10303WAT      O31150   6.197   9.550   1.583
10303WAT     H131151   6.106   9.509   1.590
10303WAT     H231152   6.206   9.597   1.495
10304WAT      O31153   9.421   1.344   2.438
10304WAT     H131154   9.401   1.277   2.366
10304WAT     H231155   9.453   1.296   2.520
10305WAT      O31156   3.029   4.478   4.657
10305WAT     H131157   2.986   4.559   4.617
10305WAT     H231158   3.101   4.505   4.720
10306WAT      O31159   7.701   0.265   8.579
10306WAT     H131160   7.776   0.299   8.523
10306WAT     H231161   7.617   0.260   8.524
10307WAT      O31162   1.993   9.453   2.031
10307WAT     H131163   1.987   9.411   1.941
10307WAT     H231164   1.916   9.421   2.088
10308WAT      O31165   6.987   4.468   1.880
10308WAT     H131166   6.891   4.476   1.910
10308WAT     H231167   7.005   4.375   1.850
10309WAT      O31168   9.768   8.935   5.151
10309WAT     H131169   9.679   8.909   5.113
10309WAT     H231170   9.764   9.031   5.180
10310WAT      O31171   0.722   1.628   5.311
10310WAT     H131172   0.815   1.666   5.311
10310WAT     H231173   0.657   1.697   5.280
10311WAT      O31174   1.163   6.099   0.925
10311WAT     H131175   1.176   6.000   0.920
10311WAT     H231176   1.236   6.145   0.875
10312WAT      O31177   6.378   9.190   9.785
10312WAT     H131178   6.409   9.124   9.717
10312WAT     H231179   6.331   9.142   9.859
10313WAT      O31180   6.023   5.496   6.819
10313WAT     H131181   6.033   5.430   6.745
10313WAT     H231182   5.927   5.523   6.828
10314WAT      O31183   9.560   5.166   2.375
10314WAT     H131184   9.558   5.232   2.451
10314WAT     H231185   9.590   5.213   2.292
10315WAT      O31186   8.110   2.713   5.534
10315WAT     H131187   8.073   2.726   5.442
10315WAT     H231188   8.191   2.771   5.546
10316WAT      O31189   1.675   0.577   0.681
10316WAT     H131190   1.596   0.539   0.633
10316WAT     H231191   1.692   0.670   0.648
10317WAT      O31192   8.491   0.584   8.802
10317WAT     H131193   8.416   0.521   8.780
10317WAT     H231194   8.453   0.675   8.819
10318WAT      O31195   8.231   2.649   0.604
10318WAT     H131196   8.226   2.588   0.525
10318WAT     H231197   8.212   2.596   0.687
10319WAT      O31198   8.432   8.820   3.052
10319WAT     H131199   8.415   8.835   3.149
10319WAT     H231200   8.363   8.758   3.015
10320WAT      O31201   4.586   4.094   9.844
10320WAT     H131202   4.562   4.082   9.748
10320WAT     H231203   4.503   4.088   9.900
10321WAT      O31204   8.301   8.461   6.469
10321WAT     H131205   8.328   8.365   6.478
10321WAT     H231206   8.380   8.520   6.489
10322WAT      O31207   7.352   5.565   3.925
10322WAT     H131208   7.258   5.578   3.956
10322WAT     H231209   7.412   5.629   3.973
10323WAT      O31210   5.785   2.917   8.342
10323WAT     H131211   5.853   2.847   8.367
10323WAT     H231212   5.813   2.962   8.258
10324WAT      O31213   8.894   0.465   3.846
10324WAT     H131214   8.912   0.548   3.898
10324WAT     H231215   8.946   0.389   3.885
10325WAT      O31216   6.302   9.011   8.299
10325WAT     H131217   6.272   8.987   8.207
10325WAT     H231218   6.337   9.105   8.300
10326WAT      O31219   2.222   3.944   1.440
10326WAT     H131220   2.271   4.030   1.457
10326WAT     H231221   2.230   3.920   1.344
10327WAT      O31222   9.157   9.228   2.497
10327WAT     H131223   9.185   9.324   2.505
10327WAT     H231224   9.105   9.202   2.578
10328WAT      O31225   8.375   4.762   2.854
10328WAT     H131226   8.409   4.704   2.780
10328WAT     H231227   8.317   4.708   2.914
10329WAT      O31228   9.618   4.287   3.178
10329WAT     H131229   9.523   4.316   3.191
10329WAT     H231230   9.620   4.195   3.139
10330WAT      O31231   0.324   0.929   4.317
10330WAT     H131232   0.384   1.006   4.341
10330WAT     H231233   0.304   0.932   4.219
10331WAT      O31234   6.799   4.352   1.147
10331WAT     H131235   6.871   4.312   1.089
10331WAT     H231236   6.836   4.369   1.238
10332WAT      O31237   5.874   5.658   7.319
10332WAT     H131238   5.794   5.612   7.358
10332WAT     H231239   5.844   5.729   7.255
10333WAT      O31240   7.120   3.474   8.288
10333WAT     H131241   7.034   3.442   8.249
10333WAT     H231242   7.188   3.401   8.283
10334WAT      O31243   4.488   8.391   4.731
10334WAT     H131244   4.468   8.488   4.725
10334WAT     H231245   4.503   8.354   4.639
10335WAT      O31246   1.675   3.025   6.057
10335WAT     H131247   1.637   3.053   6.145
10335WAT     H231248   1.626   2.945   6.023
10336WAT      O31249   7.436   5.220   6.595
10336WAT     H131250   7.509   5.231   6.527
10336WAT     H231251   7.395   5.129   6.585
10337WAT      O31252   6.377   6.492   9.783
10337WAT     H131253   6.344   6.514   9.875
10337WAT     H231254   6.477   6.492   9.783
10338WAT      O31255   9.554   6.201   1.844
10338WAT     H131256   9.542   6.300   1.838
10338WAT     H231257   9.621   6.180   1.916
10339WAT      O31258   0.325   8.773   7.464
10339WAT     H131259   0.331   8.793   7.562
10339WAT     H231260   0.242   8.815   7.427
10340WAT      O31261   2.306   7.867   2.804
10340WAT     H131262   2.329   7.911   2.718
10340WAT     H231263   2.269   7.935   2.868
10341WAT      O31264   8.635   2.514   9.473
10341WAT     H131265   8.593   2.571   9.544
10341WAT     H231266   8.732   2.498   9.496
10342WAT      O31267   5.286   5.691   5.458
10342WAT     H131268   5.242   5.603   5.443
10342WAT     H231269   5.375   5.692   5.412
10343WAT      O31270   1.660   3.741   9.371
10343WAT     H131271   1.633   3.712   9.280
10343WAT     H231272   1.598   3.813   9.404
10344WAT      O31273   8.022   8.206   9.765
10344WAT     H131274   8.040   8.293   9.719
10344WAT     H231275   8.090   8.191   9.837
10345WAT      O31276   4.698   6.104   0.733
10345WAT     H131277   4.787   6.141   0.762
10345WAT     H231278   4.685   6.014   0.774
10346WAT      O31279   4.890   3.563   0.319
10346WAT     H131280   4.820   3.492   0.325
10346WAT     H231281   4.848   3.651   0.300
10347WAT      O31282   3.422   2.616   3.844
10347WAT     H131283   3.359   2.620   3.767
10347WAT     H231284   3.454   2.709   3.865
10348WAT      O31285   8.670   9.367   4.909
10348WAT     H131286   8.745   9.329   4.855
10348WAT     H231287   8.658   9.463   4.886
10349WAT      O31288   2.545   7.048   8.226
10349WAT     H131289   2.480   6.972   8.231
10349WAT     H231290   2.500   7.132   8.254
10350WAT      O31291   6.699   8.684   7.039
10350WAT     H131292   6.602   8.694   7.019
10350WAT     H231293   6.711   8.615   7.111
10351WAT      O31294   3.943   0.226   2.354
10351WAT     H131295   3.872   0.213   2.286
10351WAT     H231296   4.015   0.158   2.340
10352WAT      O31297   7.597   3.093   3.242
10352WAT     H131298   7.648   3.007   3.239
10352WAT     H231299   7.575   3.123   3.150
10353WAT      O31300   4.142   0.830   1.448
10353WAT     H131301   4.045   0.856   1.449
10353WAT     H231302   4.192   0.887   1.513
10354WAT      O31303   8.412   4.052   1.574
10354WAT     H131304   8.317   4.082   1.579
10354WAT     H231305   8.431   4.015   1.483
10355WAT      O31306   1.372   9.315   0.768
10355WAT     H131307   1.379   9.254   0.688
10355WAT     H231308   1.382   9.410   0.738
10356WAT      O31309   9.712   6.217   9.791
10356WAT     H131310   9.731   6.268   9.707
10356WAT     H231311   9.761   6.130   9.789
10357WAT      O31312   0.537   3.167   0.474
10357WAT     H131313   0.615   3.156   0.412
10357WAT     H231314   0.475   3.236   0.437
10358WAT      O31315   9.270   6.029   7.927
10358WAT     H131316   9.221   5.956   7.975
10358WAT     H231317   9.354   5.993   7.887
10359WAT      O31318   2.466   7.913   7.934
10359WAT     H131319   2.561   7.945   7.934
10359WAT     H231320   2.463   7.818   7.967
10360WAT      O31321   4.650   5.612   8.939
10360WAT     H131322   4.586   5.676   8.896
10360WAT     H231323   4.599   5.537   8.980
10361WAT      O31324   6.687   9.547   0.035
10361WAT     H131325   6.616   9.604   0.077
10361WAT     H231326   6.650   9.456   0.018
10362WAT      O31327   8.694   6.058   8.736
10362WAT     H131328   8.713   6.115   8.816
10362WAT     H231329   8.609   6.089   8.693
10363WAT      O31330   1.524   4.198   6.141
10363WAT     H131331   1.516   4.244   6.229
10363WAT     H231332   1.449   4.132   6.130
10364WAT      O31333   5.517   3.610   6.913
10364WAT     H131334   5.422   3.579   6.915
10364WAT     H231335   5.574   3.545   6.964
10365WAT      O31336   9.684   5.923   7.292
10365WAT     H131337   9.695   5.995   7.223
10365WAT     H231338   9.608   5.946   7.352
10366WAT      O31339   5.293   8.020   6.254
10366WAT     H131340   5.353   7.995   6.330
10366WAT     H231341   5.315   8.112   6.223
10367WAT      O31342   8.285   5.650   7.096
10367WAT     H131343   8.219   5.724   7.081
10367WAT     H231344   8.343   5.672   7.174
10368WAT      O31345   3.533   1.746   9.677
10368WAT     H131346   3.531   1.781   9.771
10368WAT     H231347   3.515   1.821   9.613
10369WAT      O31348   0.068   5.347   6.909
10369WAT     H131349   0.121   5.348   6.824
10369WAT     H231350   0.064   5.440   6.946
10370WAT      O31351   6.867   4.531   4.849
10370WAT     H131352   6.876   4.629   4.836
10370WAT     H231353   6.781   4.500   4.809
10371WAT      O31354   4.044   3.562   1.200
10371WAT     H131355   4.114   3.493   1.178
10371WAT     H231356   4.034   3.624   1.122
10372WAT      O31357   5.960   5.194   0.672
10372WAT     H131358   6.042   5.160   0.625
10372WAT     H231359   5.887   5.126   0.663
10373WAT      O31360   1.016   8.943   0.816
10373WAT     H131361   0.934   8.957   0.761
10373WAT     H231362   1.096   8.971   0.763
10374WAT      O31363   2.630   0.271   9.479
10374WAT     H131364   2.534   0.295   9.463
10374WAT     H231365   2.673   0.344   9.533
10375WAT      O31366   1.855   9.704   5.523
10375WAT     H131367   1.784   9.738   5.585
10375WAT     H231368   1.938   9.683   5.576
10376WAT      O31369   5.239   3.312   4.716
10376WAT     H131370   5.276   3.359   4.796
10376WAT     H231371   5.313   3.264   4.669
10377WAT      O31372   5.559   9.528   2.989
10377WAT     H131373   5.508   9.548   3.073
10377WAT     H231374   5.496   9.530   2.911
10378WAT      O31375   5.743   2.219   9.822
10378WAT     H131376   5.776   2.303   9.864
10378WAT     H231377   5.646   2.230   9.798
10379WAT      O31378   0.989   0.220   1.595
10379WAT     H131379   1.042   0.225   1.510
10379WAT     H231380   0.897   0.187   1.575
10380WAT      O31381   4.630   8.039   9.718
10380WAT     H131382   4.576   8.092   9.783
10380WAT     H231383   4.578   7.960   9.687
10381WAT      O31384   0.720   1.038   6.142
10381WAT     H131385   0.735   0.945   6.174
10381WAT     H231386   0.726   1.102   6.219
10382WAT      O31387   1.894   0.082   7.536
10382WAT     H131388   1.868  -0.015   7.533
10382WAT     H231389   1.985   0.090   7.577
10383WAT      O31390   6.367   9.405   7.882
10383WAT     H131391   6.313   9.459   7.817
10383WAT     H231392   6.443   9.460   7.915
10384WAT      O31393   7.052   9.494   5.221
10384WAT     H131394   7.124   9.532   5.163
10384WAT     H231395   7.017   9.564   5.283
10385WAT      O31396   1.716   2.845   1.098
10385WAT     H131397   1.779   2.913   1.063
10385WAT     H231398   1.685   2.786   1.023
10386WAT      O31399   0.326   2.521   2.927
10386WAT     H131400   0.241   2.502   2.880
10386WAT     H231401   0.307   2.549   3.021
10387WAT      O31402   9.879   3.076   3.780
10387WAT     H131403   9.810   3.148   3.782
10387WAT     H231404   9.850   3.004   3.717
10388WAT      O31405   3.557   3.172   3.127
10388WAT     H131406   3.642   3.159   3.178
10388WAT     H231407   3.518   3.083   3.105
10389WAT      O31408   4.290   9.490   5.363
10389WAT     H131409   4.199   9.508   5.400
10389WAT     H231410   4.313   9.394   5.377
10390WAT      O31411   4.238   0.830   5.546
10390WAT     H131412   4.261   0.772   5.624
10390WAT     H231413   4.142   0.816   5.521
10391WAT      O31414   8.999   7.891   1.868
10391WAT     H131415   9.056   7.929   1.941
10391WAT     H231416   8.904   7.919   1.883
10392WAT      O31417   2.784   4.351   5.243
10392WAT     H131418   2.822   4.443   5.256
10392WAT     H231419   2.705   4.356   5.183
10393WAT      O31420   6.111   6.309   5.835
10393WAT     H131421   6.172   6.253   5.891
10393WAT     H231422   6.134   6.406   5.846
10394WAT      O31423   0.429   5.793   2.337
10394WAT     H131424   0.437   5.693   2.334
10394WAT     H231425   0.352   5.818   2.395
10395WAT      O31426   8.198   6.039   0.820
10395WAT     H131427   8.149   6.125   0.835
10395WAT     H231428   8.200   6.019   0.722
10396WAT      O31429   9.263   1.660   8.731
10396WAT     H131430   9.304   1.596   8.796
10396WAT     H231431   9.335   1.716   8.689
10397WAT      O31432   2.105   5.582   2.304
10397WAT     H131433   2.030   5.624   2.252
10397WAT     H231434   2.117   5.631   2.390
10398WAT      O31435   8.420   1.718   8.613
10398WAT     H131436   8.344   1.687   8.556
10398WAT     H231437   8.400   1.809   8.650
10399WAT      O31438   3.685   7.809   5.335
10399WAT     H131439   3.671   7.845   5.242
10399WAT     H231440   3.691   7.710   5.331
10400WAT      O31441   5.306   0.480   5.464
10400WAT     H131442   5.285   0.382   5.453
10400WAT     H231443   5.332   0.498   5.558
10401WAT      O31444   9.316   6.236   8.077
10401WAT     H131445   9.317   6.167   8.005
10401WAT     H231446   9.353   6.322   8.041
10402WAT      O31447   0.859   7.499   0.307
10402WAT     H131448   0.767   7.477   0.274
10402WAT     H231449   0.864   7.481   0.405
10403WAT      O31450   7.141   3.885   3.782
10403WAT     H131451   7.042   3.891   3.771
10403WAT     H231452   7.185   3.911   3.696
10404WAT      O31453   0.105   6.327   2.215
10404WAT     H131454   0.168   6.386   2.267
10404WAT     H231455   0.145   6.236   2.206
10405WAT      O31456   5.593   1.787   0.675
10405WAT     H131457   5.623   1.765   0.582
10405WAT     H231458   5.564   1.703   0.721
10406WAT      O31459   7.870   6.004   8.547
10406WAT     H131460   7.827   6.089   8.515
10406WAT     H231461   7.840   5.984   8.640
10407WAT      O31462   0.592   7.345   5.417
10407WAT     H131463   0.655   7.313   5.345
10407WAT     H231464   0.580   7.273   5.485
10408WAT      O31465   0.515   3.025   1.314
10408WAT     H131466   0.435   3.071   1.353
10408WAT     H231467   0.490   2.985   1.226
10409WAT      O31468   1.827   3.787   1.378
10409WAT     H131469   1.853   3.746   1.465
10409WAT     H231470   1.906   3.792   1.317
10410WAT      O31471   4.852   3.348   6.878
10410WAT     H131472   4.819   3.358   6.785
10410WAT     H231473   4.785   3.296   6.932
10411WAT      O31474   6.349   6.895   8.870
10411WAT     H131475   6.361   6.808   8.918
10411WAT     H231476   6.371   6.884   8.773
10412WAT      O31477   5.980   7.597   2.192
10412WAT     H131478   6.055   7.664   2.200
10412WAT     H231479   5.977   7.562   2.099
10413WAT      O31480   4.694   4.175   7.297
10413WAT     H131481   4.609   4.126   7.278
10413WAT     H231482   4.771   4.114   7.280
10414WAT      O31483   2.179   7.802   3.530
10414WAT     H131484   2.121   7.880   3.505
10414WAT     H231485   2.123   7.731   3.572
10415WAT      O31486   1.724   0.547   9.631
10415WAT     H131487   1.738   0.574   9.726
10415WAT     H231488   1.765   0.615   9.571
10416WAT      O31489   9.279   7.765   6.462
10416WAT     H131490   9.220   7.836   6.424
10416WAT     H231491   9.285   7.688   6.398
10417WAT      O31492   8.698   7.531   3.222
10417WAT     H131493   8.748   7.445   3.233
10417WAT     H231494   8.609   7.513   3.178
10418WAT      O31495   0.981   8.510   3.339
10418WAT     H131496   1.005   8.468   3.426
10418WAT     H231497   1.033   8.467   3.265
10419WAT      O31498   2.908   1.904   1.169
10419WAT     H131499   2.985   1.842   1.152
10419WAT     H231500   2.934   1.997   1.142
10420WAT      O31501   2.599   2.724   9.375
10420WAT     H131502   2.697   2.707   9.370
10420WAT     H231503   2.549   2.638   9.361
10421WAT      O31504   4.938   3.044   3.890
10421WAT     H131505   4.935   3.144   3.898
10421WAT     H231506   4.844   3.009   3.895
10422WAT      O31507   2.456   6.176   0.613
10422WAT     H131508   2.520   6.099   0.611
10422WAT     H231509   2.503   6.258   0.582
10423WAT      O31510   6.735   5.669   0.968
10423WAT     H131511   6.726   5.603   1.043
10423WAT     H231512   6.679   5.749   0.988
10424WAT      O31513   0.415   8.094   6.310
10424WAT     H131514   0.429   7.995   6.310
10424WAT     H231515   0.341   8.116   6.373
10425WAT      O31516   4.582   9.756   2.186
10425WAT     H131517   4.609   9.754   2.282
10425WAT     H231518   4.661   9.733   2.128
10426WAT      O31519   9.057   5.283   4.109
10426WAT     H131520   9.133   5.218   4.107
10426WAT     H231521   8.971   5.232   4.113
10427WAT      O31522   8.346   8.551   4.979
10427WAT     H131523   8.414   8.570   4.908
10427WAT     H231524   8.389   8.501   5.054
10428WAT      O31525   8.591   8.349   3.032
10428WAT     H131526   8.607   8.251   3.047
10428WAT     H231527   8.512   8.379   3.086
10429WAT      O31528   2.853   0.787   6.286
10429WAT     H131529   2.893   0.760   6.198
10429WAT     H231530   2.920   0.842   6.337
10430WAT      O31531   4.876   0.888   9.465
10430WAT     H131532   4.929   0.857   9.386
10430WAT     H231533   4.785   0.918   9.435
10431WAT      O31534   0.984   5.000   9.489
10431WAT     H131535   0.960   4.911   9.527
10431WAT     H231536   1.066   4.991   9.432
10432WAT      O31537   9.886   0.249   4.826
10432WAT     H131538   9.913   0.324   4.766
10432WAT     H231539   9.819   0.191   4.779
10433WAT      O31540   5.064   6.029   3.157
10433WAT     H131541   4.998   5.957   3.136
10433WAT     H231542   5.105   6.011   3.246
10434WAT      O31543   3.762   7.345   1.768
10434WAT     H131544   3.806   7.363   1.679
10434WAT     H231545   3.829   7.304   1.830
10435WAT      O31546   8.529   3.450   8.705
10435WAT     H131547   8.509   3.503   8.787
10435WAT     H231548   8.547   3.512   8.629
10436WAT      O31549   1.595   0.869   7.243
10436WAT     H131550   1.556   0.908   7.160
10436WAT     H231551   1.636   0.780   7.222
10437WAT      O31552   6.071   1.002   1.287
10437WAT     H131553   6.153   0.960   1.250
10437WAT     H231554   5.990   0.960   1.245
10438WAT      O31555   0.698   0.955   4.931
10438WAT     H131556   0.703   0.887   4.857
10438WAT     H231557   0.774   1.019   4.922
10439WAT      O31558   6.766   4.124   1.789
10439WAT     H131559   6.713   4.127   1.874
10439WAT     H231560   6.710   4.083   1.717
10440WAT      O31561   0.722   3.509   4.765
10440WAT     H131562   0.796   3.520   4.831
10440WAT     H231563   0.699   3.412   4.755
10441WAT      O31564   0.033   5.049   9.154
10441WAT     H131565   0.025   5.040   9.055
10441WAT     H231566   0.101   4.985   9.188
10442WAT      O31567   2.492   9.246   9.259
10442WAT     H131568   2.459   9.328   9.304
10442WAT     H231569   2.538   9.187   9.325
10443WAT      O31570   1.560   8.434   1.376
10443WAT     H131571   1.623   8.402   1.447
10443WAT     H231572   1.572   8.532   1.363
10444WAT      O31573   4.157   4.116   8.714
10444WAT     H131574   4.179   4.115   8.616
10444WAT     H231575   4.238   4.092   8.767
10445WAT      O31576   8.904   2.498   9.495
10445WAT     H131577   8.971   2.546   9.552
10445WAT     H231578   8.942   2.484   9.403
10446WAT      O31579   0.199   0.706   9.423
10446WAT     H131580   0.185   0.799   9.388
10446WAT     H231581   0.297   0.687   9.429
10447WAT      O31582   8.026   1.918   9.735
10447WAT     H131583   8.069   1.861   9.665
10447WAT     H231584   8.061   2.012   9.727
10448WAT      O31585   3.727   4.385   7.787
10448WAT     H131586   3.632   4.394   7.759
10448WAT     H231587   3.736   4.308   7.850
10449WAT      O31588   3.468   1.651   3.632
10449WAT     H131589   3.466   1.621   3.727
10449WAT     H231590   3.560   1.684   3.609
10450WAT      O31591   3.247   9.730   7.499
10450WAT     H131592   3.331   9.697   7.454
10450WAT     H231593   3.169   9.718   7.438
10451WAT      O31594   6.807   1.541   5.652
10451WAT     H131595   6.789   1.513   5.558
10451WAT     H231596   6.901   1.573   5.660
10452WAT      O31597   9.550   3.643   2.102
10452WAT     H131598   9.520   3.697   2.024
10452WAT     H231599   9.636   3.681   2.137
10453WAT      O31600   5.599   0.274   2.634
10453WAT     H131601   5.646   0.354   2.598
10453WAT     H231602   5.504   0.273   2.603
10454WAT      O31603   9.597   7.616   1.138
10454WAT     H131604   9.636   7.573   1.220
10454WAT     H231605   9.518   7.671   1.164
10455WAT      O31606   2.626   2.722   4.707
10455WAT     H131607   2.688   2.765   4.642
10455WAT     H231608   2.561   2.664   4.658
10456WAT      O31609   6.756   8.455   5.104
10456WAT     H131610   6.757   8.418   5.197
10456WAT     H231611   6.833   8.518   5.093
10457WAT      O31612   2.374   8.303   9.574
10457WAT     H131613   2.352   8.263   9.663
10457WAT     H231614   2.464   8.347   9.578
10458WAT      O31615   8.712   6.017   7.376
10458WAT     H131616   8.751   6.103   7.409
10458WAT     H231617   8.755   5.991   7.290
10459WAT      O31618   8.603   0.507   6.725
10459WAT     H131619   8.653   0.421   6.737
10459WAT     H231620   8.523   0.491   6.667
10460WAT      O31621   7.912   1.320   2.594
10460WAT     H131622   7.818   1.348   2.608
10460WAT     H231623   7.971   1.365   2.661
10461WAT      O31624   7.365   6.734   7.537
10461WAT     H131625   7.452   6.783   7.546
10461WAT     H231626   7.303   6.787   7.479
10462WAT      O31627   3.955   6.975   4.266
10462WAT     H131628   4.038   6.927   4.237
10462WAT     H231629   3.939   6.959   4.363
10463WAT      O31630   4.027   4.679   2.192
10463WAT     H131631   3.964   4.738   2.142
10463WAT     H231632   4.030   4.589   2.147
10464WAT      O31633   1.302   6.564   6.452
10464WAT     H131634   1.274   6.482   6.502
10464WAT     H231635   1.399   6.559   6.430
10465WAT      O31636   0.700   5.141   6.973
10465WAT     H131637   0.774   5.075   6.960
10465WAT     H231638   0.724   5.204   7.048
10466WAT      O31639   9.271   0.489   4.873
10466WAT     H131640   9.227   0.426   4.936
10466WAT     H231641   9.370   0.486   4.888
10467WAT      O31642   2.023   3.110   9.166
10467WAT     H131643   2.028   3.089   9.069
10467WAT     H231644   1.944   3.168   9.184
10468WAT      O31645   0.069   5.572   0.817
10468WAT     H131646  -0.031   5.576   0.813
10468WAT     H231647   0.101   5.608   0.904
10469WAT      O31648   1.807   9.332   9.852
10469WAT     H131649   1.741   9.293   9.787
10469WAT     H231650   1.841   9.419   9.816
10470WAT      O31651   4.855   7.988   1.424
10470WAT     H131652   4.886   7.903   1.466
10470WAT     H231653   4.921   8.060   1.440
10471WAT      O31654   7.045   6.432   8.777
10471WAT     H131655   7.099   6.384   8.707
10471WAT     H231656   7.098   6.508   8.813
10472WAT      O31657   4.135   5.168   8.340
10472WAT     H131658   4.050   5.134   8.300
10472WAT     H231659   4.123   5.264   8.366
10473WAT      O31660   0.911   9.010   6.339
10473WAT     H131661   1.009   9.026   6.334
10473WAT     H231662   0.892   8.941   6.409
10474WAT      O31663   0.308   3.977   3.095
10474WAT     H131664   0.343   4.024   3.177
10474WAT     H231665   0.358   3.891   3.082
10475WAT      O31666   2.957   6.575   0.175
10475WAT     H131667   2.925   6.599   0.084
10475WAT     H231668   2.879   6.557   0.235
10476WAT      O31669   3.556   0.707   7.970
10476WAT     H131670   3.482   0.657   7.924
10476WAT     H231671   3.643   0.687   7.926
10477WAT      O31672   6.073   1.270   7.782
10477WAT     H131673   6.171   1.287   7.770
10477WAT     H231674   6.059   1.186   7.834
10478WAT      O31675   8.522   6.123   9.220
10478WAT     H131676   8.489   6.077   9.137
10478WAT     H231677   8.493   6.219   9.219
10479WAT      O31678   8.167   2.126   0.752
10479WAT     H131679   8.126   2.193   0.813
10479WAT     H231680   8.219   2.174   0.681
10480WAT      O31681   3.822   6.044   5.992
10480WAT     H131682   3.884   6.010   6.063
10480WAT     H231683   3.729   6.011   6.011
10481WAT      O31684   7.300   2.715   9.104
10481WAT     H131685   7.252   2.633   9.074
10481WAT     H231686   7.399   2.702   9.091
10482WAT      O31687   8.957   3.751   6.538
10482WAT     H131688   8.904   3.835   6.539
10482WAT     H231689   8.895   3.672   6.548
10483WAT      O31690   6.436   6.777   6.192
10483WAT     H131691   6.420   6.690   6.145
10483WAT     H231692   6.461   6.759   6.287
10484WAT      O31693   3.488   8.613   5.822
10484WAT     H131694   3.392   8.607   5.794
10484WAT     H231695   3.545   8.566   5.754
10485WAT      O31696   3.604   4.843   0.466
10485WAT     H131697   3.611   4.931   0.513
10485WAT     H231698   3.538   4.785   0.514
10486WAT      O31699   5.514   0.476   1.088
10486WAT     H131700   5.595   0.523   1.124
10486WAT     H231701   5.457   0.445   1.164
10487WAT      O31702   8.369   4.816   8.245
10487WAT     H131703   8.418   4.803   8.331
10487WAT     H231704   8.285   4.762   8.246
10488WAT      O31705   8.804   1.407   3.967
10488WAT     H131706   8.855   1.321   3.967
10488WAT     H231707   8.813   1.451   3.877
10489WAT      O31708   7.014   8.315   9.500
10489WAT     H131709   7.078   8.286   9.429
10489WAT     H231710   6.920   8.301   9.468
10490WAT      O31711   8.929   3.802   8.384
10490WAT     H131712   8.919   3.735   8.457
10490WAT     H231713   9.010   3.858   8.401
10491WAT      O31714   1.517   8.599   3.679
10491WAT     H131715   1.605   8.634   3.710
10491WAT     H231716   1.530   8.537   3.602
10492WAT      O31717   1.139   4.480   7.071
10492WAT     H131718   1.182   4.396   7.105
10492WAT     H231719   1.040   4.469   7.072
10493WAT      O31720   5.451   0.083   9.845
10493WAT     H131721   5.438   0.182   9.838
10493WAT     H231722   5.402   0.038   9.771
10494WAT      O31723   5.325   1.565   5.209
10494WAT     H131724   5.239   1.537   5.166
10494WAT     H231725   5.305   1.625   5.287
10495WAT      O31726   3.554   9.758   9.210
10495WAT     H131727   3.552   9.850   9.250
10495WAT     H231728   3.462   9.719   9.210
10496WAT      O31729   4.679   2.769   2.259
10496WAT     H131730   4.632   2.745   2.175
10496WAT     H231731   4.751   2.836   2.240
10497WAT      O31732   1.057   0.314   2.767
10497WAT     H131733   0.972   0.271   2.737
10497WAT     H231734   1.045   0.413   2.768
10498WAT      O31735   4.580   0.046   8.733
10498WAT     H131736   4.580  -0.017   8.656
10498WAT     H231737   4.619   0.001   8.814
10499WAT      O31738   1.814   7.283   0.354
10499WAT     H131739   1.832   7.346   0.430
10499WAT     H231740   1.719   7.291   0.326
10500WAT      O31741   9.785   2.642   2.390
10500WAT     H131742   9.690   2.645   2.420
10500WAT     H231743   9.810   2.549   2.364
10501WAT      O31744   1.784   9.788   6.481
10501WAT     H131745   1.776   9.858   6.410
10501WAT     H231746   1.708   9.724   6.474
10502WAT      O31747   2.434   8.629   0.991
10502WAT     H131748   2.468   8.536   0.984
10502WAT     H231749   2.339   8.628   1.025
10503WAT      O31750   8.627   3.859   7.304
10503WAT     H131751   8.583   3.866   7.214
10503WAT     H231752   8.620   3.947   7.351
10504WAT      O31753   5.332   2.405   6.605
10504WAT     H131754   5.284   2.453   6.532
10504WAT     H231755   5.409   2.460   6.637
10505WAT      O31756   6.875   9.447   8.231
10505WAT     H131757   6.837   9.451   8.139
10505WAT     H231758   6.918   9.535   8.253
10506WAT      O31759   8.409   5.385   5.691
10506WAT     H131760   8.362   5.302   5.660
10506WAT     H231761   8.480   5.360   5.757
10507WAT      O31762   9.416   2.465   3.277
10507WAT     H131763   9.343   2.411   3.236
10507WAT     H231764   9.485   2.403   3.316
10508WAT      O31765   4.992   4.733   1.591
10508WAT     H131766   5.041   4.712   1.507
10508WAT     H231767   4.998   4.656   1.654
10509WAT      O31768   1.737   2.236   9.355
10509WAT     H131769   1.688   2.314   9.392
10509WAT     H231770   1.770   2.257   9.263
10510WAT      O31771   3.672   6.923   2.399
10510WAT     H131772   3.600   6.863   2.365
10510WAT     H231773   3.738   6.941   2.327
10511WAT      O31774   6.727   4.493   7.517
10511WAT     H131775   6.684   4.552   7.449
10511WAT     H231776   6.820   4.527   7.536
10512WAT      O31777   7.262   5.224   4.307
10512WAT     H131778   7.201   5.256   4.380
10512WAT     H231779   7.274   5.297   4.240
10513WAT      O31780   6.909   7.778   3.544
10513WAT     H131781   6.967   7.837   3.599
10513WAT     H231782   6.859   7.715   3.603
10514WAT      O31783   0.343   9.364   6.272
10514WAT     H131784   0.330   9.287   6.334
10514WAT     H231785   0.290   9.349   6.188
10515WAT      O31786   8.671   0.456   1.675
10515WAT     H131787   8.582   0.420   1.646
10515WAT     H231788   8.728   0.382   1.710
10516WAT      O31789   0.444   0.677   7.925
10516WAT     H131790   0.539   0.709   7.923
10516WAT     H231791   0.435   0.597   7.865
10517WAT      O31792   4.227   5.492   1.054
10517WAT     H131793   4.215   5.393   1.061
10517WAT     H231794   4.195   5.535   1.139
10518WAT      O31795   4.081   0.940   1.184
10518WAT     H131796   3.983   0.949   1.163
10518WAT     H231797   4.094   0.870   1.254
10519WAT      O31798   3.442   9.761   3.126
10519WAT     H131799   3.385   9.685   3.155
10519WAT     H231800   3.507   9.784   3.198
10520WAT      O31801   6.783   0.651   5.081
10520WAT     H131802   6.727   0.595   5.020
10520WAT     H231803   6.872   0.608   5.093
10521WAT      O31804   4.445   0.530   0.742
10521WAT     H131805   4.378   0.598   0.772
10521WAT     H231806   4.536   0.571   0.743
10522WAT      O31807   4.720   1.907   0.945
10522WAT     H131808   4.746   1.812   0.929
10522WAT     H231809   4.691   1.918   1.040
10523WAT      O31810   0.944   1.683   5.758
10523WAT     H131811   0.977   1.757   5.699
10523WAT     H231812   1.021   1.638   5.802
10524WAT      O31813   3.736   1.208   5.012
10524WAT     H131814   3.737   1.213   4.912
10524WAT     H231815   3.756   1.297   5.051
10525WAT      O31816   9.654   6.906   8.718
10525WAT     H131817   9.589   6.941   8.785
10525WAT     H231818   9.718   6.844   8.763
10526WAT      O31819   0.127   7.600   0.201
10526WAT     H131820   0.116   7.529   0.271
10526WAT     H231821   0.047   7.660   0.201
10527WAT      O31822   3.538   4.608   6.627
10527WAT     H131823   3.543   4.682   6.560
10527WAT     H231824   3.505   4.644   6.714
10528WAT      O31825   6.805   1.080   5.763
10528WAT     H131826   6.826   1.039   5.852
10528WAT     H231827   6.763   1.169   5.777
10529WAT      O31828   2.136   1.387   0.298
10529WAT     H131829   2.134   1.290   0.320
10529WAT     H231830   2.131   1.441   0.382
10530WAT      O31831   1.991   8.601   2.900
10530WAT     H131832   1.963   8.522   2.955
10530WAT     H231833   1.922   8.673   2.907
10531WAT      O31834   1.565   8.325   5.481
10531WAT     H131835   1.567   8.322   5.381
10531WAT     H231836   1.511   8.404   5.511
10532WAT      O31837   8.042   3.022   1.344
10532WAT     H131838   7.978   3.050   1.272
10532WAT     H231839   8.007   3.052   1.433
10533WAT      O31840   9.381   3.091   6.243
10533WAT     H131841   9.343   3.051   6.160
10533WAT     H231842   9.315   3.081   6.318
10534WAT      O31843   2.698   6.506   0.225
10534WAT     H131844   2.698   6.410   0.197
10534WAT     H231845   2.627   6.555   0.175
10535WAT      O31846   2.013   9.689   3.187
10535WAT     H131847   1.935   9.750   3.199
10535WAT     H231848   1.983   9.604   3.144
10536WAT      O31849   6.260   3.028   9.756
10536WAT     H131850   6.285   2.966   9.682
10536WAT     H231851   6.343   3.059   9.803
10537WAT      O31852   4.037   1.048   4.715
10537WAT     H131853   4.072   1.091   4.631
10537WAT     H231854   4.111   1.042   4.782
10538WAT      O31855   4.742   0.193   1.787
10538WAT     H131856   4.827   0.142   1.804
10538WAT     H231857   4.673   0.131   1.749
10539WAT      O31858   6.392   1.447   4.483
10539WAT     H131859   6.481   1.451   4.437
10539WAT     H231860   6.406   1.455   4.582
10540WAT      O31861   0.112   0.551   8.692
10540WAT     H131862   0.028   0.496   8.696
10540WAT     H231863   0.153   0.557   8.783
10541WAT      O31864   8.486   2.630   1.750
10541WAT     H131865   8.422   2.706   1.761
10541WAT     H231866   8.531   2.612   1.837
10542WAT      O31867   7.058   2.366   8.202
10542WAT     H131868   6.972   2.418   8.210
10542WAT     H231869   7.039   2.269   8.215
10543WAT      O31870   0.309   2.286   6.015
10543WAT     H131871   0.215   2.315   6.033
10543WAT     H231872   0.319   2.267   5.917
10544WAT      O31873   3.667   9.485   1.580
10544WAT     H131874   3.652   9.466   1.676
10544WAT     H231875   3.760   9.459   1.555
10545WAT      O31876   0.831   2.095   6.079
10545WAT     H131877   0.877   2.010   6.104
10545WAT     H231878   0.871   2.131   5.994
10546WAT      O31879   3.082   5.641   4.890
10546WAT     H131880   3.155   5.604   4.832
10546WAT     H231881   2.994   5.615   4.852
10547WAT      O31882   7.542   8.895   4.168
10547WAT     H131883   7.628   8.858   4.204
10547WAT     H231884   7.465   8.844   4.205
10548WAT      O31885   3.247   8.949   5.796
10548WAT     H131886   3.232   9.046   5.777
10548WAT     H231887   3.248   8.935   5.895
10549WAT      O31888   4.657   2.093   4.321
10549WAT     H131889   4.742   2.113   4.371
10549WAT     H231890   4.611   2.179   4.299
10550WAT      O31891   3.853   4.744   4.154
10550WAT     H131892   3.830   4.839   4.131
10550WAT     H231893   3.878   4.738   4.250
10551WAT      O31894   4.266   2.518   6.450
10551WAT     H131895   4.284   2.595   6.511
10551WAT     H231896   4.253   2.435   6.505
10552WAT      O31897   7.315   0.055   9.025
10552WAT     H131898   7.263   0.106   9.094
10552WAT     H231899   7.359   0.119   8.962
10553WAT      O31900   3.205   1.121   4.770
10553WAT     H131901   3.158   1.196   4.816
10553WAT     H231902   3.259   1.157   4.694
10554WAT      O31903   4.360   1.802   6.650
10554WAT     H131904   4.395   1.738   6.582
10554WAT     H231905   4.273   1.767   6.686
10555WAT      O31906   5.678   3.451   7.361
10555WAT     H131907   5.775   3.449   7.385
10555WAT     H231908   5.652   3.545   7.338
10556WAT      O31909   5.732   5.839   9.366
10556WAT     H131910   5.745   5.925   9.317
10556WAT     H231911   5.801   5.773   9.335
10557WAT      O31912   2.456   2.872   9.718
10557WAT     H131913   2.385   2.912   9.776
10557WAT     H231914   2.460   2.922   9.631
10558WAT      O31915   6.007   7.992   2.360
10558WAT     H131916   5.984   8.041   2.444
10558WAT     H231917   5.986   8.049   2.281
10559WAT      O31918   5.237   4.419   9.112
10559WAT     H131919   5.288   4.404   9.027
10559WAT     H231920   5.140   4.431   9.091
10560WAT      O31921   8.425   8.489   5.677
10560WAT     H131922   8.366   8.408   5.671
10560WAT     H231923   8.410   8.546   5.597
10561WAT      O31924   8.556   1.158   6.896
10561WAT     H131925   8.537   1.092   6.969
10561WAT     H231926   8.652   1.184   6.899
10562WAT      O31927   3.282   2.159   1.778
10562WAT     H131928   3.277   2.093   1.703
10562WAT     H231929   3.364   2.142   1.832
10563WAT      O31930   6.378   4.832   8.640
10563WAT     H131931   6.304   4.843   8.574
10563WAT     H231932   6.464   4.863   8.600
10564WAT      O31933   9.348   3.045   9.339
10564WAT     H131934   9.270   3.056   9.400
10564WAT     H231935   9.432   3.062   9.390
10565WAT      O31936   3.050   6.731   1.822
10565WAT     H131937   2.967   6.742   1.768
10565WAT     H231938   3.118   6.799   1.794
10566WAT      O31939   6.487   9.342   7.665
10566WAT     H131940   6.548   9.421   7.658
10566WAT     H231941   6.428   9.353   7.745
10567WAT      O31942   1.918   8.845   9.371
10567WAT     H131943   1.928   8.827   9.469
10567WAT     H231944   1.987   8.794   9.320
10568WAT      O31945   0.409   1.612   1.234
10568WAT     H131946   0.469   1.692   1.228
10568WAT     H231947   0.399   1.572   1.143
10569WAT      O31948   2.292   7.684   4.054
10569WAT     H131949   2.344   7.754   4.006
10569WAT     H231950   2.312   7.594   4.015
10570WAT      O31951   9.705   6.870   0.618
10570WAT     H131952   9.630   6.896   0.679
10570WAT     H231953   9.772   6.816   0.669
10571WAT      O31954   8.447   6.708   8.978
10571WAT     H131955   8.416   6.795   9.015
10571WAT     H231956   8.547   6.710   8.970
10572WAT      O31957   5.443   1.018   6.868
10572WAT     H131958   5.381   0.942   6.886
10572WAT     H231959   5.448   1.034   6.770
10573WAT      O31960   7.334   9.634   7.169
10573WAT     H131961   7.379   9.581   7.097
10573WAT     H231962   7.386   9.627   7.254
10574WAT      O31963   5.239   6.579   0.363
10574WAT     H131964   5.163   6.586   0.298
10574WAT     H231965   5.324   6.563   0.313
10575WAT      O31966   8.225   8.422   6.094
10575WAT     H131967   8.201   8.502   6.038
10575WAT     H231968   8.313   8.437   6.138
10576WAT      O31969   5.369   6.649   4.247
10576WAT     H131970   5.468   6.660   4.261
10576WAT     H231971   5.342   6.700   4.165
10577WAT      O31972   7.851   5.340   0.906
10577WAT     H131973   7.868   5.261   0.965
10577WAT     H231974   7.877   5.318   0.812
10578WAT      O31975   2.732   8.179   8.528
10578WAT     H131976   2.723   8.193   8.626
10578WAT     H231977   2.681   8.250   8.480
10579WAT      O31978   8.545   1.037   0.435
10579WAT     H131979   8.628   1.066   0.387
10579WAT     H231980   8.485   1.116   0.448
10580WAT      O31981   3.186   1.405   5.513
10580WAT     H131982   3.246   1.485   5.501
10580WAT     H231983   3.240   1.321   5.504
10581WAT      O31984   8.349   4.343   2.206
10581WAT     H131985   8.332   4.282   2.284
10581WAT     H231986   8.289   4.422   2.211
10582WAT      O31987   0.823   8.045   2.126
10582WAT     H131988   0.742   8.097   2.098
10582WAT     H231989   0.870   8.010   2.045
10583WAT      O31990   5.718   4.018   0.274
10583WAT     H131991   5.786   4.042   0.343
10583WAT     H231992   5.708   4.092   0.209
10584WAT      O31993   7.830   0.656   8.198
10584WAT     H131994   7.912   0.660   8.140
10584WAT     H231995   7.761   0.597   8.155
10585WAT      O31996   4.220   1.098   5.479
10585WAT     H131997   4.209   0.999   5.486
10585WAT     H231998   4.134   1.139   5.449
10586WAT      O31999   8.886   7.102   1.514
10586WAT     H132000   8.851   7.009   1.502
10586WAT     H232001   8.818   7.168   1.481
10587WAT      O32002   6.871   4.156   8.567
10587WAT     H132003   6.872   4.137   8.469
10587WAT     H232004   6.943   4.222   8.588
10588WAT      O32005   8.552   2.975   1.996
10588WAT     H132006   8.624   2.964   2.065
10588WAT     H232007   8.560   3.066   1.954
10589WAT      O32008   2.608   9.215   5.681
10589WAT     H132009   2.547   9.174   5.614
10589WAT     H232010   2.690   9.250   5.635
10590WAT      O32011   8.895   0.865   2.579
10590WAT     H132012   8.909   0.955   2.619
10590WAT     H232013   8.951   0.798   2.628
10591WAT      O32014   8.356   0.140   6.705
10591WAT     H132015   8.321   0.168   6.616
10591WAT     H232016   8.339   0.212   6.772
10592WAT      O32017   3.741   5.537   5.084
10592WAT     H132018   3.802   5.542   5.163
10592WAT     H232019   3.672   5.609   5.090
10593WAT      O32020   7.825   6.225   9.027
10593WAT     H132021   7.893   6.298   9.015
10593WAT     H232022   7.869   6.145   9.068
10594WAT      O32023   9.264   1.117   9.012
10594WAT     H132024   9.305   1.168   9.088
10594WAT     H232025   9.168   1.144   9.002
10595WAT      O32026   2.694   8.350   3.137
10595WAT     H132027   2.655   8.349   3.229
10595WAT     H232028   2.627   8.317   3.071
10596WAT      O32029   5.630   3.077   0.642
10596WAT     H132030   5.674   3.013   0.580
10596WAT     H232031   5.559   3.029   0.694
10597WAT      O32032   5.870   5.423   7.165
10597WAT     H132033   5.867   5.456   7.259
10597WAT     H232034   5.959   5.446   7.124
10598WAT      O32035   1.237   3.188   4.684
10598WAT     H132036   1.261   3.269   4.631
10598WAT     H232037   1.313   3.164   4.745
10599WAT      O32038   7.948   9.465   2.582
10599WAT     H132039   8.000   9.545   2.614
10599WAT     H232040   7.916   9.412   2.661
10600WAT      O32041   3.763   1.861   6.861
10600WAT     H132042   3.738   1.891   6.769
10600WAT     H232043   3.827   1.926   6.902
10601WAT      O32044   0.087   6.135   9.280
10601WAT     H132045   0.137   6.221   9.285
10601WAT     H232046   0.151   6.059   9.266
10602WAT      O32047   8.324   2.216   0.474
10602WAT     H132048   8.377   2.230   0.558
10602WAT     H232049   8.294   2.120   0.471
10603WAT      O32050   8.823   0.119   2.910
10603WAT     H132051   8.884   0.047   2.877
10603WAT     H232052   8.877   0.199   2.938
10604WAT      O32053   0.135   0.210   0.544
10604WAT     H132054   0.184   0.134   0.588
10604WAT     H232055   0.037   0.200   0.559
10605WAT      O32056   2.819   7.387   3.438
10605WAT     H132057   2.774   7.476   3.445
10605WAT     H232058   2.854   7.375   3.345
10606WAT      O32059   3.086   7.292   7.131
10606WAT     H132060   3.035   7.215   7.094
10606WAT     H232061   3.123   7.347   7.055
10607WAT      O32062   9.572   0.335   6.438
10607WAT     H132063   9.479   0.343   6.401
10607WAT     H232064   9.618   0.257   6.396
10608WAT      O32065   5.284   0.593   6.080
10608WAT     H132066   5.209   0.530   6.055
10608WAT     H232067   5.254   0.687   6.066
10609WAT      O32068   3.924   8.611   7.577
10609WAT     H132069   4.002   8.663   7.543
10609WAT     H232070   3.888   8.553   7.503
10610WAT      O32071   5.722   8.380   3.602
10610WAT     H132072   5.791   8.431   3.654
10610WAT     H232073   5.709   8.290   3.643
10611WAT      O32074   4.693   2.680   6.769
10611WAT     H132075   4.690   2.677   6.869
10611WAT     H232076   4.653   2.766   6.737
10612WAT      O32077   2.008   6.626   2.014
10612WAT     H132078   1.970   6.718   2.026
10612WAT     H232079   2.070   6.606   2.090
10613WAT      O32080   5.129   7.333   1.283
10613WAT     H132081   5.114   7.278   1.201
10613WAT     H232082   5.045   7.382   1.307
10614WAT      O32083   4.000   9.800   9.189
10614WAT     H132084   4.062   9.731   9.226
10614WAT     H232085   3.988   9.874   9.257
10615WAT      O32086   8.379   7.872   7.853
10615WAT     H132087   8.464   7.847   7.806
10615WAT     H232088   8.302   7.864   7.790
10616WAT      O32089   8.197   0.163   5.987
10616WAT     H132090   8.253   0.087   5.955
10616WAT     H232091   8.163   0.214   5.908
10617WAT      O32092   1.762   7.346   4.685
10617WAT     H132093   1.684   7.305   4.637
10617WAT     H232094   1.842   7.287   4.676
10618WAT      O32095   5.372   1.072   7.551
10618WAT     H132096   5.367   0.989   7.608
10618WAT     H232097   5.281   1.112   7.544
10619WAT      O32098   7.000   8.559   9.589
10619WAT     H132099   7.028   8.570   9.684
10619WAT     H232100   7.000   8.462   9.564
10620WAT      O32101   8.522   5.610   5.925
10620WAT     H132102   8.582   5.548   5.975
10620WAT     H232103   8.560   5.626   5.833
10621WAT      O32104   1.835   7.069   5.751
10621WAT     H132105   1.752   7.034   5.795
10621WAT     H232106   1.846   7.025   5.662
10622WAT      O32107   7.366   8.636   2.039
10622WAT     H132108   7.401   8.699   1.970
10622WAT     H232109   7.305   8.569   1.996
10623WAT      O32110   5.525   1.114   4.944
10623WAT     H132111   5.427   1.098   4.961
10623WAT     H232112   5.563   1.038   4.892
10624WAT      O32113   2.940   5.835   8.489
10624WAT     H132114   2.966   5.745   8.455
10624WAT     H232115   3.019   5.876   8.536
10625WAT      O32116   7.975   7.611   1.159
10625WAT     H132117   8.065   7.570   1.141
10625WAT     H232118   7.975   7.706   1.128
10626WAT      O32119   8.951   9.183   5.663
10626WAT     H132120   9.011   9.124   5.718
10626WAT     H232121   8.947   9.274   5.705
10627WAT      O32122   0.342   7.581   8.754
10627WAT     H132123   0.339   7.674   8.792
10627WAT     H232124   0.423   7.572   8.696
10628WAT      O32125   4.348   8.896   4.625
10628WAT     H132126   4.331   8.948   4.541
10628WAT     H232127   4.264   8.889   4.678
10629WAT      O32128   4.666   8.173   1.427
10629WAT     H132129   4.611   8.149   1.346
10629WAT     H232130   4.750   8.120   1.427
10630WAT      O32131   4.529   0.681   7.434
10630WAT     H132132   4.457   0.618   7.403
10630WAT     H232133   4.596   0.631   7.488
10631WAT      O32134   4.857   1.470   8.322
10631WAT     H132135   4.790   1.404   8.356
10631WAT     H232136   4.946   1.452   8.364
10632WAT      O32137   7.681   9.723   1.024
10632WAT     H132138   7.777   9.752   1.026
10632WAT     H232139   7.631   9.778   0.958
10633WAT      O32140   9.425   8.947   1.160
10633WAT     H132141   9.467   8.873   1.108
10633WAT     H232142   9.327   8.953   1.137
10634WAT      O32143   1.237   5.741   8.232
10634WAT     H132144   1.149   5.732   8.184
10634WAT     H232145   1.227   5.807   8.306
10635WAT      O32146   8.940   1.090   2.082
10635WAT     H132147   8.938   1.013   2.018
10635WAT     H232148   8.948   1.176   2.031
10636WAT      O32149   8.592   2.635   3.998
10636WAT     H132150   8.650   2.654   4.077
10636WAT     H232151   8.618   2.695   3.923
10637WAT      O32152   0.808   2.981   5.939
10637WAT     H132153   0.843   3.040   5.866
10637WAT     H232154   0.711   3.002   5.956
10638WAT      O32155   3.574   5.360   6.847
10638WAT     H132156   3.504   5.427   6.824
10638WAT     H232157   3.645   5.360   6.776
10639WAT      O32158   6.240   8.747   0.567
10639WAT     H132159   6.299   8.695   0.505
10639WAT     H232160   6.268   8.730   0.661
10640WAT      O32161   4.667   5.353   7.552
10640WAT     H132162   4.681   5.421   7.479
10640WAT     H232163   4.604   5.282   7.520
10641WAT      O32164   5.308   6.317   8.929
10641WAT     H132165   5.326   6.303   8.832
10641WAT     H232166   5.220   6.365   8.940
10642WAT      O32167   0.758   6.088   6.041
10642WAT     H132168   0.768   6.141   5.956
10642WAT     H232169   0.699   6.009   6.024
10643WAT      O32170   0.400   1.075   3.498
10643WAT     H132171   0.369   1.137   3.427
10643WAT     H232172   0.500   1.071   3.498
10644WAT      O32173   0.134   8.659   7.854
10644WAT     H132174   0.134   8.573   7.802
10644WAT     H232175   0.103   8.642   7.947
10645WAT      O32176   5.771   6.436   6.470
10645WAT     H132177   5.766   6.491   6.387
10645WAT     H232178   5.752   6.494   6.549
10646WAT      O32179   7.492   4.441   3.469
10646WAT     H132180   7.573   4.409   3.519
10646WAT     H232181   7.411   4.394   3.505
10647WAT      O32182   7.537   4.712   5.041
10647WAT     H132183   7.502   4.803   5.062
10647WAT     H232184   7.637   4.713   5.047
10648WAT      O32185   9.619   1.861   6.229
10648WAT     H132186   9.573   1.914   6.300
10648WAT     H232187   9.717   1.862   6.245
10649WAT      O32188   2.489   1.828   7.449
10649WAT     H132189   2.457   1.923   7.459
10649WAT     H232190   2.589   1.827   7.451
10650WAT      O32191   6.011   3.562   6.915
10650WAT     H132192   5.941   3.566   6.844
10650WAT     H232193   5.968   3.568   7.005
10651WAT      O32194   1.104   0.490   6.601
10651WAT     H132195   1.090   0.589   6.614
10651WAT     H232196   1.175   0.476   6.532
10652WAT      O32197   4.128   6.804   4.470
10652WAT     H132198   4.198   6.803   4.542
10652WAT     H232199   4.173   6.812   4.381
10653WAT      O32200   9.892   2.343   4.542
10653WAT     H132201   9.842   2.427   4.566
10653WAT     H232202   9.854   2.266   4.594
10654WAT      O32203   4.852   1.047   2.468
10654WAT     H132204   4.854   0.969   2.531
10654WAT     H232205   4.920   1.114   2.495
10655WAT      O32206   2.747   3.060   8.607
10655WAT     H132207   2.685   3.037   8.532
10655WAT     H232208   2.810   3.132   8.578
10656WAT      O32209   8.156   4.906   7.201
10656WAT     H132210   8.248   4.869   7.213
10656WAT     H232211   8.099   4.839   7.153
10657WAT      O32212   6.716   8.303   9.517
10657WAT     H132213   6.633   8.341   9.477
10657WAT     H232214   6.743   8.358   9.597
10658WAT      O32215   7.164   3.038   9.242
10658WAT     H132216   7.145   3.053   9.339
10658WAT     H232217   7.257   3.068   9.221
10659WAT      O32218   7.184   3.224   4.282
10659WAT     H132219   7.260   3.182   4.330
10659WAT     H232220   7.103   3.166   4.290
10660WAT      O32221   0.076   7.474   7.921
10660WAT     H132222  -0.014   7.510   7.946
10660WAT     H232223   0.079   7.458   7.822
10661WAT      O32224   2.119   6.271   1.106
10661WAT     H132225   2.185   6.224   1.047
10661WAT     H232226   2.153   6.272   1.200
10662WAT      O32227   3.976   9.078   9.764
10662WAT     H132228   3.896   9.025   9.737
10662WAT     H232229   3.950   9.144   9.835
10663WAT      O32230   1.500   6.030   2.413
10663WAT     H132231   1.528   5.934   2.421
10663WAT     H232232   1.405   6.040   2.443
10664WAT      O32233   8.098   5.726   0.850
10664WAT     H132234   8.115   5.648   0.911
10664WAT     H232235   8.180   5.781   0.843
10665WAT      O32236   3.842   6.482   0.054
10665WAT     H132237   3.768   6.423   0.022
10665WAT     H232238   3.851   6.560  -0.008
10666WAT      O32239   5.954   6.732   4.954
10666WAT     H132240   6.024   6.683   5.005
10666WAT     H232241   5.869   6.734   5.007
10667WAT      O32242   8.014   1.346   3.344
10667WAT     H132243   7.928   1.296   3.329
10667WAT     H232244   8.048   1.381   3.257
10668WAT      O32245   7.231   0.872   5.891
10668WAT     H132246   7.238   0.850   5.988
10668WAT     H232247   7.245   0.789   5.836
10669WAT      O32248   3.250   7.641   6.347
10669WAT     H132249   3.169   7.698   6.339
10669WAT     H232250   3.317   7.668   6.279
10670WAT      O32251   2.838   6.128   0.345
10670WAT     H132252   2.920   6.071   0.334
10670WAT     H232253   2.760   6.070   0.368
10671WAT      O32254   8.574   3.593   1.419
10671WAT     H132255   8.618   3.682   1.431
10671WAT     H232256   8.493   3.588   1.476
10672WAT      O32257   3.928   1.759   1.066
10672WAT     H132258   3.893   1.802   1.148
10672WAT     H232259   3.962   1.828   1.003
10673WAT      O32260   1.897   1.381   6.597
10673WAT     H132261   1.881   1.453   6.664
10673WAT     H232262   1.980   1.402   6.545
10674WAT      O32263   4.968   1.136   1.546
10674WAT     H132264   4.874   1.160   1.570
10674WAT     H232265   5.030   1.206   1.580
10675WAT      O32266   8.076   7.678   0.648
10675WAT     H132267   8.123   7.593   0.625
10675WAT     H232268   7.997   7.657   0.705
10676WAT      O32269   8.386   9.656   2.863
10676WAT     H132270   8.340   9.568   2.851
10676WAT     H232271   8.417   9.690   2.774
10677WAT      O32272   7.642   9.688   7.224
10677WAT     H132273   7.663   9.691   7.126
10677WAT     H232274   7.627   9.593   7.252
10678WAT      O32275   3.446   3.555   1.301
10678WAT     H132276   3.474   3.627   1.364
10678WAT     H232277   3.517   3.541   1.232
10679WAT      O32278   3.686   1.974   6.618
10679WAT     H132279   3.754   2.006   6.552
10679WAT     H232280   3.625   1.909   6.574
10680WAT      O32281   9.869   4.678   2.099
10680WAT     H132282   9.950   4.714   2.053
10680WAT     H232283   9.897   4.628   2.181
10681WAT      O32284   8.978   5.575   1.389
10681WAT     H132285   9.012   5.657   1.343
10681WAT     H232286   8.908   5.532   1.333
10682WAT      O32287   2.955   4.843   6.086
10682WAT     H132288   2.869   4.813   6.043
10682WAT     H232289   3.032   4.803   6.036
10683WAT      O32290   3.718   9.460   9.859
10683WAT     H132291   3.781   9.393   9.897
10683WAT     H232292   3.766   9.547   9.846
10684WAT      O32293   2.654   2.460   1.135
10684WAT     H132294   2.595   2.382   1.114
10684WAT     H232295   2.712   2.437   1.213
10685WAT      O32296   7.599   8.044   0.858
10685WAT     H132297   7.502   8.034   0.879
10685WAT     H232298   7.653   8.026   0.940
10686WAT      O32299   3.509   7.951   6.937
10686WAT     H132300   3.560   7.873   6.901
10686WAT     H232301   3.489   7.936   7.034
10687WAT      O32302   0.682   4.360   8.332
10687WAT     H132303   0.772   4.345   8.375
10687WAT     H232304   0.652   4.454   8.351
10688WAT      O32305   5.834   9.709   7.563
10688WAT     H132306   5.919   9.738   7.518
10688WAT     H232307   5.854   9.638   7.630
10689WAT      O32308   0.737   3.594   5.400
10689WAT     H132309   0.834   3.616   5.405
10689WAT     H232310   0.710   3.540   5.480
10690WAT      O32311   8.992   9.415   6.732
10690WAT     H132312   9.069   9.416   6.669
10690WAT     H232313   8.971   9.321   6.759
10691WAT      O32314   5.993   0.216   7.894
10691WAT     H132315   6.052   0.292   7.921
10691WAT     H232316   5.952   0.174   7.975
10692WAT      O32317   1.214   4.991   8.013
10692WAT     H132318   1.284   4.920   8.008
10692WAT     H232319   1.195   5.027   7.921
10693WAT      O32320   9.110   1.485   6.280
10693WAT     H132321   9.041   1.417   6.257
10693WAT     H232322   9.169   1.451   6.354
10694WAT      O32323   9.056   2.457   2.237
10694WAT     H132324   9.109   2.373   2.224
10694WAT     H232325   9.096   2.510   2.312
10695WAT      O32326   0.548   5.971   6.810
10695WAT     H132327   0.544   6.068   6.835
10695WAT     H232328   0.463   5.926   6.837
10696WAT      O32329   8.151   0.295   6.517
10696WAT     H132330   8.074   0.353   6.542
10696WAT     H232331   8.160   0.293   6.417
10697WAT      O32332   8.084   7.320   9.887
10697WAT     H132333   8.150   7.250   9.859
10697WAT     H232334   7.999   7.308   9.835
10698WAT      O32335   3.479   9.693   5.692
10698WAT     H132336   3.479   9.669   5.789
10698WAT     H232337   3.411   9.638   5.644
10699WAT      O32338   0.098   9.479   7.542
10699WAT     H132339   0.169   9.422   7.501
10699WAT     H232340   0.097   9.568   7.498
10700WAT      O32341   4.517   6.699   9.371
10700WAT     H132342   4.588   6.754   9.326
10700WAT     H232343   4.428   6.742   9.358
10701WAT      O32344   5.686   4.443   7.608
10701WAT     H132345   5.703   4.409   7.701
10701WAT     H232346   5.633   4.375   7.557
10702WAT      O32347   0.590   1.888   9.159
10702WAT     H132348   0.623   1.877   9.066
10702WAT     H232349   0.628   1.817   9.218
10703WAT      O32350   1.790   7.977   6.866
10703WAT     H132351   1.875   7.981   6.814
10703WAT     H232352   1.806   8.008   6.959
10704WAT      O32353   2.536   7.202   9.018
10704WAT     H132354   2.462   7.268   9.025
10704WAT     H232355   2.522   7.129   9.085
10705WAT      O32356   5.523   2.113   4.267
10705WAT     H132357   5.596   2.101   4.334
10705WAT     H232358   5.439   2.068   4.300
10706WAT      O32359   4.174   6.349   3.634
10706WAT     H132360   4.196   6.441   3.666
10706WAT     H232361   4.170   6.349   3.534
10707WAT      O32362   7.628   8.455   7.129
10707WAT     H132363   7.542   8.456   7.180
10707WAT     H232364   7.670   8.365   7.137
10708WAT      O32365   5.959   0.850   9.387
10708WAT     H132366   6.039   0.906   9.409
10708WAT     H232367   5.967   0.814   9.295
10709WAT      O32368   8.600   4.619   5.054
10709WAT     H132369   8.532   4.670   5.002
10709WAT     H232370   8.580   4.625   5.152
10710WAT      O32371   4.094   2.269   2.835
10710WAT     H132372   4.140   2.183   2.858
10710WAT     H232373   4.127   2.342   2.895
10711WAT      O32374   0.193   1.774   9.802
10711WAT     H132375   0.128   1.701   9.826
10711WAT     H232376   0.144   1.846   9.752
10712WAT      O32377   9.787   9.596   0.855
10712WAT     H132378   9.731   9.557   0.781
10712WAT     H232379   9.748   9.570   0.943
10713WAT      O32380   3.917   4.859   0.364
10713WAT     H132381   3.825   4.881   0.396
10713WAT     H232382   3.917   4.856   0.264
10714WAT      O32383   2.968   2.039   8.798
10714WAT     H132384   3.062   2.007   8.799
10714WAT     H232385   2.906   1.962   8.812
10715WAT      O32386  -0.001   7.531   1.638
10715WAT     H132387   0.097   7.545   1.628
10715WAT     H232388  -0.046   7.542   1.550
10716WAT      O32389   1.008   1.567   0.962
10716WAT     H132390   0.963   1.491   1.011
10716WAT     H232391   0.942   1.610   0.900
10717WAT      O32392   3.857   8.348   1.095
10717WAT     H132393   3.941   8.402   1.098
10717WAT     H232394   3.789   8.396   1.040
10718WAT      O32395   5.946   2.508   3.900
10718WAT     H132396   5.996   2.554   3.973
10718WAT     H232397   6.011   2.466   3.837
10719WAT      O32398   7.626   0.017   5.718
10719WAT     H132399   7.600   0.055   5.629
10719WAT     H232400   7.579   0.067   5.791
10720WAT      O32401   9.701   9.144   7.384
10720WAT     H132402   9.763   9.196   7.443
10720WAT     H232403   9.612   9.191   7.379
10721WAT      O32404   0.165   8.919   6.431
10721WAT     H132405   0.122   8.952   6.347
10721WAT     H232406   0.095   8.898   6.499
10722WAT      O32407   0.443   5.541   6.103
10722WAT     H132408   0.384   5.471   6.064
10722WAT     H232409   0.534   5.536   6.060
10723WAT      O32410   2.523   7.989   7.193
10723WAT     H132411   2.489   7.984   7.099
10723WAT     H232412   2.581   7.909   7.211
10724WAT      O32413   8.700   8.421   8.384
10724WAT     H132414   8.761   8.466   8.450
10724WAT     H232415   8.623   8.380   8.433
10725WAT      O32416   6.889   7.243   3.602
10725WAT     H132417   6.927   7.157   3.638
10725WAT     H232418   6.948   7.319   3.629
10726WAT      O32419   8.544   0.637   4.782
10726WAT     H132420   8.462   0.596   4.821
10726WAT     H232421   8.596   0.568   4.733
10727WAT      O32422   8.277   4.365   1.451
10727WAT     H132423   8.236   4.456   1.457
10727WAT     H232424   8.364   4.364   1.500
10728WAT      O32425   1.682   3.708   3.615
10728WAT     H132426   1.687   3.627   3.674
10728WAT     H232427   1.597   3.705   3.562
10729WAT      O32428   7.609   1.865   5.719
10729WAT     H132429   7.575   1.887   5.811
10729WAT     H232430   7.639   1.770   5.717
10730WAT      O32431   2.409   9.308   8.082
10730WAT     H132432   2.315   9.297   8.113
10730WAT     H232433   2.425   9.250   8.001
10731WAT      O32434   3.747   5.631   8.701
10731WAT     H132435   3.765   5.533   8.713
10731WAT     H232436   3.795   5.683   8.772
10732WAT      O32437   3.245   4.539   4.806
10732WAT     H132438   3.322   4.569   4.750
10732WAT     H232439   3.268   4.454   4.852
10733WAT      O32440   0.879   1.111   6.916
10733WAT     H132441   0.949   1.164   6.867
10733WAT     H232442   0.823   1.061   6.850
10734WAT      O32443   4.190   8.756   3.281
10734WAT     H132444   4.107   8.703   3.299
10734WAT     H232445   4.269   8.695   3.276
10735WAT      O32446   5.160   0.926   7.154
10735WAT     H132447   5.254   0.944   7.181
10735WAT     H232448   5.158   0.875   7.068
10736WAT      O32449   8.576   9.367   5.982
10736WAT     H132450   8.556   9.418   5.898
10736WAT     H232451   8.657   9.311   5.968
10737WAT      O32452   5.229   2.045   0.873
10737WAT     H132453   5.279   1.975   0.925
10737WAT     H232454   5.134   2.046   0.902
10738WAT      O32455   6.223   4.903   3.482
10738WAT     H132456   6.209   4.943   3.573
10738WAT     H232457   6.258   4.974   3.420
10739WAT      O32458   7.435   6.288   9.565
10739WAT     H132459   7.425   6.222   9.639
10739WAT     H232460   7.432   6.241   9.477
10740WAT      O32461   0.556   4.170   5.114
10740WAT     H132462   0.583   4.247   5.056
10740WAT     H232463   0.463   4.184   5.147
10741WAT      O32464   4.529   4.916   2.657
10741WAT     H132465   4.431   4.902   2.672
10741WAT     H232466   4.573   4.827   2.646
10742WAT      O32467   4.816   6.753   5.568
10742WAT     H132468   4.792   6.829   5.628
10742WAT     H232469   4.909   6.766   5.533
10743WAT      O32470   2.297   7.042   5.722
10743WAT     H132471   2.212   7.089   5.745
10743WAT     H232472   2.367   7.109   5.700
10744WAT      O32473   7.042   3.562   9.772
10744WAT     H132474   7.137   3.571   9.744
10744WAT     H232475   6.984   3.545   9.692
10745WAT      O32476   8.858   1.503   3.523
10745WAT     H132477   8.954   1.490   3.549
10745WAT     H232478   8.853   1.537   3.429
10746WAT      O32479   8.476   2.379   3.984
10746WAT     H132480   8.526   2.465   3.983
10746WAT     H232481   8.422   2.372   4.068
10747WAT      O32482   2.016   4.693   2.496
10747WAT     H132483   1.962   4.620   2.537
10747WAT     H232484   1.965   4.734   2.421
10748WAT      O32485   0.566   4.927   1.993
10748WAT     H132486   0.577   4.959   2.087
10748WAT     H232487   0.480   4.962   1.956
10749WAT      O32488   0.264   2.825   0.728
10749WAT     H132489   0.190   2.813   0.661
10749WAT     H232490   0.339   2.876   0.686
10750WAT      O32491   5.410   0.254   5.150
10750WAT     H132492   5.441   0.215   5.237
10750WAT     H232493   5.318   0.219   5.129
10751WAT      O32494   1.005   1.262   3.212
10751WAT     H132495   0.968   1.173   3.185
10751WAT     H232496   1.088   1.248   3.266
10752WAT      O32497   6.486   9.390   2.223
10752WAT     H132498   6.436   9.367   2.139
10752WAT     H232499   6.448   9.338   2.299
10753WAT      O32500   5.407   4.885   3.790
10753WAT     H132501   5.461   4.949   3.734
10753WAT     H232502   5.310   4.899   3.771
10754WAT      O32503   2.241   8.437   5.445
10754WAT     H132504   2.186   8.447   5.362
10754WAT     H232505   2.260   8.340   5.461
10755WAT      O32506   9.146   4.264   4.972
10755WAT     H132507   9.178   4.202   4.901
10755WAT     H232508   9.074   4.323   4.935
10756WAT      O32509   9.153   5.804   0.643
10756WAT     H132510   9.085   5.745   0.599
10756WAT     H232511   9.212   5.845   0.573
10757WAT      O32512   0.644   5.850   3.444
10757WAT     H132513   0.704   5.928   3.423
10757WAT     H232514   0.649   5.784   3.369
10758WAT      O32515   6.004   8.570   1.360
10758WAT     H132516   6.037   8.665   1.359
10758WAT     H232517   6.050   8.518   1.288
10759WAT      O32518   1.198   2.840   4.430
10759WAT     H132519   1.205   2.908   4.357
10759WAT     H232520   1.240   2.754   4.399
10760WAT      O32521   1.109   4.192   1.590
10760WAT     H132522   1.059   4.277   1.571
10760WAT     H232523   1.189   4.186   1.530
10761WAT      O32524   2.132   6.627   5.672
10761WAT     H132525   2.112   6.678   5.756
10761WAT     H232526   2.072   6.659   5.599
10762WAT      O32527   6.796   8.645   9.418
10762WAT     H132528   6.830   8.667   9.327
10762WAT     H232529   6.872   8.613   9.475
10763WAT      O32530   4.455   5.405   1.878
10763WAT     H132531   4.490   5.355   1.799
10763WAT     H232532   4.355   5.411   1.872
10764WAT      O32533   2.524   4.774   2.701
10764WAT     H132534   2.512   4.678   2.679
10764WAT     H232535   2.593   4.814   2.641
10765WAT      O32536   1.326   3.391   4.530
10765WAT     H132537   1.409   3.429   4.571
10765WAT     H232538   1.330   3.403   4.431
10766WAT      O32539   1.276   0.246   2.647
10766WAT     H132540   1.264   0.234   2.548
10766WAT     H232541   1.187   0.261   2.689
10767WAT      O32542   1.046   5.910   0.301
10767WAT     H132543   1.112   5.969   0.255
10767WAT     H232544   0.954   5.931   0.267
10768WAT      O32545   6.409   0.953   4.898
10768WAT     H132546   6.328   0.978   4.846
10768WAT     H232547   6.382   0.923   4.990
10769WAT      O32548   3.645   4.733   1.408
10769WAT     H132549   3.611   4.651   1.454
10769WAT     H232550   3.651   4.715   1.309
10770WAT      O32551   3.285   5.412   7.136
10770WAT     H132552   3.238   5.436   7.051
10770WAT     H232553   3.268   5.482   7.205
10771WAT      O32554   6.896   8.824   0.803
10771WAT     H132555   6.946   8.910   0.795
10771WAT     H232556   6.956   8.748   0.779
10772WAT      O32557   5.612   5.086   2.272
10772WAT     H132558   5.582   5.051   2.360
10772WAT     H232559   5.534   5.122   2.221
10773WAT      O32560   6.718   4.323   3.626
10773WAT     H132561   6.625   4.338   3.590
10773WAT     H232562   6.744   4.401   3.683
10774WAT      O32563   5.623   4.234   9.164
10774WAT     H132564   5.533   4.192   9.153
10774WAT     H232565   5.619   4.330   9.135
10775WAT      O32566   8.767   3.853   8.174
10775WAT     H132567   8.834   3.820   8.240
10775WAT     H232568   8.774   3.952   8.166
10776WAT      O32569   9.332   1.430   5.928
10776WAT     H132570   9.343   1.499   5.856
10776WAT     H232571   9.238   1.395   5.926
10777WAT      O32572   3.557   5.428   1.582
10777WAT     H132573   3.522   5.475   1.663
10777WAT     H232574   3.548   5.488   1.503
10778WAT      O32575   6.094   6.980   9.186
10778WAT     H132576   6.111   6.883   9.171
10778WAT     H232577   6.128   7.006   9.276
10779WAT      O32578   7.244   5.593   4.771
10779WAT     H132579   7.187   5.674   4.759
10779WAT     H232580   7.246   5.567   4.867
10780WAT      O32581   0.283   9.704   9.575
10780WAT     H132582   0.245   9.706   9.482
10780WAT     H232583   0.322   9.613   9.593
10781WAT      O32584   1.960   9.817   8.701
10781WAT     H132585   2.006   9.905   8.697
10781WAT     H232586   1.866   9.826   8.668
10782WAT      O32587   6.236   9.754   3.980
10782WAT     H132588   6.249   9.744   4.078
10782WAT     H232589   6.177   9.680   3.946
10783WAT      O32590   2.600   6.761   0.966
10783WAT     H132591   2.502   6.742   0.977
10783WAT     H232592   2.640   6.697   0.901
10784WAT      O32593   8.799   5.356   8.916
10784WAT     H132594   8.853   5.332   8.996
10784WAT     H232595   8.852   5.340   8.833
10785WAT      O32596   0.105   5.916   8.150
10785WAT     H132597   0.163   5.907   8.231
10785WAT     H232598   0.151   5.875   8.071
10786WAT      O32599   7.649   8.443   0.182
10786WAT     H132600   7.599   8.400   0.107
10786WAT     H232601   7.734   8.391   0.199
10787WAT      O32602   4.440   1.474   4.734
10787WAT     H132603   4.525   1.514   4.702
10787WAT     H232604   4.436   1.479   4.834
10788WAT      O32605   1.002   7.580   8.396
10788WAT     H132606   0.915   7.627   8.385
10788WAT     H232607   1.076   7.647   8.405
10789WAT      O32608   1.332   6.743   1.805
10789WAT     H132609   1.329   6.817   1.872
10789WAT     H232610   1.287   6.662   1.843
10790WAT      O32611   3.609   1.638   5.606
10790WAT     H132612   3.527   1.651   5.550
10790WAT     H232613   3.642   1.544   5.597
10791WAT      O32614   0.036   4.641   6.320
10791WAT     H132615   0.048   4.546   6.291
10791WAT     H232616  -0.046   4.648   6.377
10792WAT      O32617   2.368   5.494   7.623
10792WAT     H132618   2.372   5.401   7.658
10792WAT     H232619   2.287   5.505   7.566
10793WAT      O32620   9.425   2.363   5.681
10793WAT     H132621   9.442   2.327   5.773
10793WAT     H232622   9.511   2.374   5.632
10794WAT      O32623   7.102   6.595   5.756
10794WAT     H132624   7.164   6.586   5.833
10794WAT     H232625   7.101   6.509   5.704
10795WAT      O32626   4.573   1.099   2.440
10795WAT     H132627   4.520   1.031   2.389
10795WAT     H232628   4.665   1.064   2.458
10796WAT      O32629   8.871   4.679   2.799
10796WAT     H132630   8.907   4.675   2.705
10796WAT     H232631   8.872   4.774   2.830
10797WAT      O32632   5.434   6.929   8.419
10797WAT     H132633   5.352   6.885   8.456
10797WAT     H232634   5.431   6.925   8.319
10798WAT      O32635   0.777   7.955   9.603
10798WAT     H132636   0.803   7.875   9.657
10798WAT     H232637   0.694   7.934   9.551
10799WAT      O32638   5.129   5.911   6.494
10799WAT     H132639   5.182   5.984   6.537
10799WAT     H232640   5.139   5.916   6.395
10800WAT      O32641   8.568   6.834   9.841
10800WAT     H132642   8.502   6.759   9.846
10800WAT     H232643   8.539   6.908   9.903
10801WAT      O32644   1.481   4.603   7.184
10801WAT     H132645   1.558   4.598   7.248
10801WAT     H232646   1.404   4.649   7.227
10802WAT      O32647   3.109   3.599   7.836
10802WAT     H132648   3.023   3.607   7.886
10802WAT     H232649   3.167   3.531   7.881
10803WAT      O32650   1.649   4.129   6.567
10803WAT     H132651   1.592   4.069   6.623
10803WAT     H232652   1.723   4.076   6.526
10804WAT      O32653   3.297   3.600   7.408
10804WAT     H132654   3.307   3.638   7.500
10804WAT     H232655   3.355   3.520   7.398
10805WAT      O32656   6.700   5.188   8.638
10805WAT     H132657   6.634   5.214   8.568
10805WAT     H232658   6.689   5.090   8.659
10806WAT      O32659   8.451   1.272   2.366
10806WAT     H132660   8.370   1.306   2.412
10806WAT     H232661   8.522   1.252   2.433
10807WAT      O32662   4.510   9.775   9.425
10807WAT     H132663   4.606   9.755   9.441
10807WAT     H232664   4.454   9.703   9.466
10808WAT      O32665   4.950   0.864   5.014
10808WAT     H132666   4.867   0.821   5.048
10808WAT     H232667   5.025   0.798   5.013
10809WAT      O32668   9.403   4.614   5.167
10809WAT     H132669   9.420   4.518   5.145
10809WAT     H232670   9.307   4.636   5.150
10810WAT      O32671   6.689   1.313   5.818
10810WAT     H132672   6.634   1.336   5.898
10810WAT     H232673   6.755   1.387   5.801
10811WAT      O32674   6.308   3.933   0.601
10811WAT     H132675   6.400   3.956   0.633
10811WAT     H232676   6.313   3.897   0.508
10812WAT      O32677   8.072   8.985   4.245
10812WAT     H132678   7.977   8.978   4.275
10812WAT     H232679   8.093   9.081   4.224
10813WAT      O32680   6.694   1.842   4.778
10813WAT     H132681   6.687   1.817   4.874
10813WAT     H232682   6.787   1.872   4.758
10814WAT      O32683   4.378   0.423   8.728
10814WAT     H132684   4.429   0.473   8.797
10814WAT     H232685   4.360   0.330   8.761
10815WAT      O32686   7.208   2.581   6.520
10815WAT     H132687   7.261   2.661   6.492
10815WAT     H232688   7.149   2.552   6.445
10816WAT      O32689   1.309   8.400   5.109
10816WAT     H132690   1.320   8.468   5.037
10816WAT     H232691   1.285   8.312   5.068
10817WAT      O32692   7.193   8.436   1.956
10817WAT     H132693   7.252   8.355   1.953
10817WAT     H232694   7.138   8.440   1.873
10818WAT      O32695   1.038   7.856   3.840
10818WAT     H132696   1.051   7.927   3.772
10818WAT     H232697   1.126   7.812   3.860
10819WAT      O32698   4.218   3.206   4.019
10819WAT     H132699   4.138   3.223   3.961
10819WAT     H232700   4.282   3.147   3.971
10820WAT      O32701   5.069   1.525   5.080
10820WAT     H132702   5.065   1.624   5.064
10820WAT     H232703   5.028   1.477   5.003
10821WAT      O32704   9.075   5.856   5.407
10821WAT     H132705   9.032   5.941   5.380
10821WAT     H232706   9.043   5.829   5.498
10822WAT      O32707   7.366   1.192   3.069
10822WAT     H132708   7.372   1.268   3.134
10822WAT     H232709   7.397   1.223   2.979
10823WAT      O32710   1.568   9.818   8.825
10823WAT     H132711   1.587   9.720   8.833
10823WAT     H232712   1.652   9.870   8.841
10824WAT      O32713   6.466   8.116   4.071
10824WAT     H132714   6.383   8.133   4.018
10824WAT     H232715   6.445   8.058   4.150
10825WAT      O32716   2.683   3.713   6.470
10825WAT     H132717   2.670   3.770   6.551
10825WAT     H232718   2.634   3.627   6.481
10826WAT      O32719   9.516   0.530   4.525
10826WAT     H132720   9.444   0.477   4.570
10826WAT     H232721   9.551   0.599   4.588
10827WAT      O32722   1.531   0.218   6.441
10827WAT     H132723   1.461   0.262   6.386
10827WAT     H232724   1.611   0.198   6.384
10828WAT      O32725   7.601   6.884   7.505
10828WAT     H132726   7.606   6.967   7.449
10828WAT     H232727   7.656   6.812   7.463
10829WAT      O32728   6.819   0.213   1.052
10829WAT     H132729   6.810   0.115   1.069
10829WAT     H232730   6.739   0.246   1.002
10830WAT      O32731   7.929   3.325   5.728
10830WAT     H132732   7.846   3.304   5.677
10830WAT     H232733   7.945   3.253   5.796
10831WAT      O32734   7.089   7.520   8.872
10831WAT     H132735   7.043   7.432   8.865
10831WAT     H232736   7.185   7.511   8.845
10832WAT      O32737   0.774   6.274   5.739
10832WAT     H132738   0.779   6.190   5.685
10832WAT     H232739   0.684   6.316   5.728
10833WAT      O32740   4.351   2.607   7.203
10833WAT     H132741   4.256   2.628   7.225
10833WAT     H232742   4.411   2.663   7.261
10834WAT      O32743   1.581   2.372   8.155
10834WAT     H132744   1.631   2.314   8.219
10834WAT     H232745   1.498   2.405   8.199
10835WAT      O32746   3.080   0.829   8.759
10835WAT     H132747   3.129   0.912   8.735
10835WAT     H232748   2.999   0.819   8.700
10836WAT      O32749   3.946   2.868   4.935
10836WAT     H132750   3.951   2.888   5.033
10836WAT     H232751   4.004   2.933   4.885
10837WAT      O32752   2.830   2.508   0.180
10837WAT     H132753   2.880   2.562   0.247
10837WAT     H232754   2.880   2.424   0.159
10838WAT      O32755   5.106   9.287   5.712
10838WAT     H132756   5.083   9.341   5.793
10838WAT     H232757   5.205   9.272   5.708
10839WAT      O32758   8.296   7.593   3.884
10839WAT     H132759   8.288   7.644   3.970
10839WAT     H232760   8.370   7.631   3.830
10840WAT      O32761   3.685   0.030   5.266
10840WAT     H132762   3.624   0.043   5.188
10840WAT     H232763   3.643  -0.032   5.332
10841WAT      O32764   5.117   3.594   9.650
10841WAT     H132765   5.198   3.541   9.674
10841WAT     H232766   5.046   3.581   9.719
10842WAT      O32767   5.161   4.343   8.714
10842WAT     H132768   5.170   4.407   8.638
10842WAT     H232769   5.083   4.283   8.699
10843WAT      O32770   4.443   9.720   0.675
10843WAT     H132771   4.406   9.635   0.712
10843WAT     H232772   4.390   9.748   0.595
10844WAT      O32773   5.765   3.561   2.085
10844WAT     H132774   5.703   3.507   2.028
10844WAT     H232775   5.792   3.507   2.165
10845WAT      O32776   4.943   3.641   7.710
10845WAT     H132777   4.858   3.592   7.692
10845WAT     H232778   4.925   3.740   7.710
10846WAT      O32779   7.673   1.811   5.074
10846WAT     H132780   7.752   1.851   5.027
10846WAT     H232781   7.705   1.745   5.142
10847WAT      O32782   0.637   7.856   5.405
10847WAT     H132783   0.728   7.821   5.427
10847WAT     H232784   0.644   7.947   5.366
10848WAT      O32785   2.169   6.704   4.153
10848WAT     H132786   2.244   6.766   4.176
10848WAT     H232787   2.176   6.677   4.057
10849WAT      O32788   0.865   3.810   4.710
10849WAT     H132789   0.836   3.714   4.713
10849WAT     H232790   0.944   3.819   4.649
10850WAT      O32791   8.862   2.529   5.964
10850WAT     H132792   8.777   2.581   5.961
10850WAT     H232793   8.859   2.456   5.895
10851WAT      O32794   0.089   1.766   1.326
10851WAT     H132795   0.163   1.719   1.373
10851WAT     H232796   0.003   1.752   1.375
10852WAT      O32797   0.234   4.669   5.451
10852WAT     H132798   0.160   4.639   5.391
10852WAT     H232799   0.292   4.591   5.474
10853WAT      O32800   3.605   3.707   0.297
10853WAT     H132801   3.665   3.783   0.322
10853WAT     H232802   3.626   3.677   0.204
10854WAT      O32803   7.505   8.063   5.665
10854WAT     H132804   7.482   8.156   5.637
10854WAT     H232805   7.465   7.998   5.601
10855WAT      O32806   7.602   5.459   5.064
10855WAT     H132807   7.573   5.545   5.022
10855WAT     H232808   7.701   5.459   5.076
10856WAT      O32809   4.002   4.589   6.967
10856WAT     H132810   4.011   4.491   6.986
10856WAT     H232811   3.994   4.639   7.053
10857WAT      O32812   4.354   7.161   0.222
10857WAT     H132813   4.343   7.229   0.294
10857WAT     H232814   4.273   7.103   0.219
10858WAT      O32815   0.019   9.555   4.907
10858WAT     H132816   0.096   9.598   4.954
10858WAT     H232817  -0.009   9.613   4.830
10859WAT      O32818   1.823   7.592   2.552
10859WAT     H132819   1.810   7.687   2.577
10859WAT     H232820   1.735   7.545   2.551
10860WAT      O32821   2.268   2.075   5.283
10860WAT     H132822   2.242   1.997   5.339
10860WAT     H232823   2.204   2.085   5.207
10861WAT      O32824   4.841   2.315   2.129
10861WAT     H132825   4.878   2.255   2.058
10861WAT     H232826   4.897   2.306   2.212
10862WAT      O32827   0.178   9.814   1.039
10862WAT     H132828   0.126   9.851   0.962
10862WAT     H232829   0.115   9.773   1.105
10863WAT      O32830   7.655   1.289   1.109
10863WAT     H132831   7.693   1.348   1.038
10863WAT     H232832   7.559   1.270   1.088
10864WAT      O32833   7.940   6.718   3.418
10864WAT     H132834   7.986   6.701   3.505
10864WAT     H232835   7.932   6.816   3.403
10865WAT      O32836   4.866   5.616   4.998
10865WAT     H132837   4.819   5.649   4.916
10865WAT     H232838   4.867   5.689   5.066
10866WAT      O32839   6.296   5.244   7.945
10866WAT     H132840   6.277   5.194   8.030
10866WAT     H232841   6.393   5.266   7.940
10867WAT      O32842   3.539   3.374   9.349
10867WAT     H132843   3.609   3.445   9.356
10867WAT     H232844   3.560   3.301   9.415
10868WAT      O32845   8.113   3.459   0.054
10868WAT     H132846   8.110   3.504  -0.035
10868WAT     H232847   8.191   3.395   0.056
10869WAT      O32848   3.720   3.218   6.116
10869WAT     H132849   3.810   3.254   6.094
10869WAT     H232850   3.721   3.179   6.208
10870WAT      O32851   2.145   8.528   4.272
10870WAT     H132852   2.088   8.557   4.349
10870WAT     H232853   2.166   8.431   4.280
10871WAT      O32854   6.704   1.235   1.393
10871WAT     H132855   6.625   1.256   1.450
10871WAT     H232856   6.674   1.220   1.299
10872WAT      O32857   7.132   4.364   9.521
10872WAT     H132858   7.062   4.314   9.470
10872WAT     H232859   7.158   4.446   9.470
10873WAT      O32860   6.939   8.951   6.250
10873WAT     H132861   6.878   9.006   6.307
10873WAT     H232862   6.948   8.994   6.160
10874WAT      O32863   9.151   5.088   2.792
10874WAT     H132864   9.104   5.168   2.754
10874WAT     H232865   9.247   5.111   2.808
10875WAT      O32866   2.694   3.177   6.791
10875WAT     H132867   2.672   3.220   6.878
10875WAT     H232868   2.793   3.170   6.780
10876WAT      O32869   3.387   9.147   1.644
10876WAT     H132870   3.381   9.173   1.741
10876WAT     H232871   3.449   9.070   1.634
10877WAT      O32872   4.768   4.694   8.488
10877WAT     H132873   4.780   4.736   8.577
10877WAT     H232874   4.729   4.761   8.424
10878WAT      O32875   6.855   9.282   8.734
10878WAT     H132876   6.884   9.376   8.752
10878WAT     H232877   6.870   9.261   8.637
10879WAT      O32878   3.871   3.992   7.047
10879WAT     H132879   3.847   3.942   7.130
10879WAT     H232880   3.958   3.959   7.012
10880WAT      O32881   4.910   2.571   2.078
10880WAT     H132882   4.864   2.604   1.995
10880WAT     H232883   4.870   2.482   2.104
10881WAT      O32884   8.839   0.478   2.058
10881WAT     H132885   8.830   0.392   2.108
10881WAT     H232886   8.854   0.553   2.122
10882WAT      O32887   4.274   9.642   6.940
10882WAT     H132888   4.202   9.619   6.874
10882WAT     H232889   4.285   9.567   7.005
10883WAT      O32890   9.595   9.359   6.340
10883WAT     H132891   9.693   9.350   6.358
10883WAT     H232892   9.544   9.328   6.420
10884WAT      O32893   7.481   2.691   6.913
10884WAT     H132894   7.474   2.727   6.820
10884WAT     H232895   7.577   2.692   6.942
10885WAT      O32896   8.435   4.382   4.745
10885WAT     H132897   8.489   4.397   4.662
10885WAT     H232898   8.342   4.416   4.731
10886WAT      O32899   8.267   2.020   6.919
10886WAT     H132900   8.312   1.948   6.867
10886WAT     H232901   8.307   2.025   7.011
10887WAT      O32902   4.295   1.365   2.263
10887WAT     H132903   4.337   1.355   2.173
10887WAT     H232904   4.212   1.420   2.255
10888WAT      O32905   6.664   8.277   3.365
10888WAT     H132906   6.659   8.301   3.268
10888WAT     H232907   6.718   8.345   3.414
10889WAT      O32908   6.241   1.636   7.481
10889WAT     H132909   6.302   1.675   7.549
10889WAT     H232910   6.286   1.559   7.436
10890WAT      O32911   2.474   2.507   7.411
10890WAT     H132912   2.389   2.547   7.447
10890WAT     H232913   2.456   2.414   7.379
10891WAT      O32914   6.844   3.285   9.711
10891WAT     H132915   6.757   3.325   9.741
10891WAT     H232916   6.876   3.333   9.630
10892WAT      O32917   2.919   6.256   0.663
10892WAT     H132918   2.929   6.283   0.759
10892WAT     H232919   2.825   6.273   0.633
10893WAT      O32920   3.326   6.790   3.732
10893WAT     H132921   3.349   6.718   3.667
10893WAT     H232922   3.321   6.878   3.685
10894WAT      O32923   8.525   1.083   9.168
10894WAT     H132924   8.563   1.018   9.103
10894WAT     H232925   8.457   1.037   9.226
10895WAT      O32926   3.556   6.717   2.799
10895WAT     H132927   3.527   6.728   2.894
10895WAT     H232928   3.481   6.677   2.746
10896WAT      O32929   6.029   0.723   3.069
10896WAT     H132930   6.111   0.780   3.081
10896WAT     H232931   6.043   0.635   3.114
10897WAT      O32932   3.772   1.084   5.325
10897WAT     H132933   3.797   1.119   5.235
10897WAT     H232934   3.838   1.116   5.393
10898WAT      O32935   7.634   4.843   1.311
10898WAT     H132936   7.554   4.783   1.308
10898WAT     H232937   7.714   4.790   1.337
10899WAT      O32938   3.468   7.379   0.866
10899WAT     H132939   3.400   7.322   0.818
10899WAT     H232940   3.545   7.321   0.895
10900WAT      O32941   4.866   3.119   9.266
10900WAT     H132942   4.790   3.057   9.247
10900WAT     H232943   4.894   3.109   9.361
10901WAT      O32944   0.225   1.408   4.652
10901WAT     H132945   0.317   1.436   4.680
10901WAT     H232946   0.206   1.317   4.689
10902WAT      O32947   9.159   6.848   3.037
10902WAT     H132948   9.207   6.931   3.064
10902WAT     H232949   9.144   6.790   3.117
10903WAT      O32950   9.116   4.253   9.742
10903WAT     H132951   9.102   4.221   9.649
10903WAT     H232952   9.028   4.258   9.789
10904WAT      O32953   0.390   5.494   2.448
10904WAT     H132954   0.399   5.541   2.535
10904WAT     H232955   0.295   5.495   2.419
10905WAT      O32956   4.456   1.397   1.540
10905WAT     H132957   4.475   1.308   1.499
10905WAT     H232958   4.541   1.438   1.573
10906WAT      O32959   2.421   5.569   6.620
10906WAT     H132960   2.377   5.516   6.693
10906WAT     H232961   2.430   5.664   6.649
10907WAT      O32962   7.283   4.482   2.750
10907WAT     H132963   7.328   4.503   2.836
10907WAT     H232964   7.189   4.516   2.752
10908WAT      O32965   5.235   3.016   8.708
10908WAT     H132966   5.296   2.950   8.665
10908WAT     H232967   5.263   3.109   8.681
10909WAT      O32968   7.029   2.536   4.562
10909WAT     H132969   6.982   2.511   4.646
10909WAT     H232970   7.078   2.457   4.526
10910WAT      O32971   6.019   1.717   7.620
10910WAT     H132972   6.084   1.666   7.562
10910WAT     H232973   6.067   1.753   7.700
10911WAT      O32974   6.076   4.246   9.415
10911WAT     H132975   6.009   4.298   9.467
10911WAT     H232976   6.123   4.307   9.351
10912WAT      O32977   2.930   9.680   1.607
10912WAT     H132978   2.970   9.727   1.529
10912WAT     H232979   2.906   9.747   1.678
10913WAT      O32980   7.062   3.856   6.504
10913WAT     H132981   7.137   3.873   6.567
10913WAT     H232982   7.058   3.758   6.483
10914WAT      O32983   6.119   1.514   5.064
10914WAT     H132984   6.172   1.466   5.135
10914WAT     H232985   6.059   1.581   5.107
10915WAT      O32986   9.522   7.988   0.176
10915WAT     H132987   9.464   7.907   0.163
10915WAT     H232988   9.617   7.962   0.162
10916WAT      O32989   0.974   6.430   7.392
10916WAT     H132990   1.026   6.380   7.462
10916WAT     H232991   0.949   6.520   7.427
10917WAT      O32992   1.444   6.162   8.905
10917WAT     H132993   1.540   6.177   8.925
10917WAT     H232994   1.391   6.162   8.990
10918WAT      O32995   9.075   3.467   5.984
10918WAT     H132996   9.051   3.508   6.073
10918WAT     H232997   9.022   3.383   5.971
10919WAT      O32998   4.152   2.698   3.085
10919WAT     H132999   4.076   2.732   3.140
10919WAT     H233000   4.231   2.759   3.095
10920WAT      O33001   4.120   3.220   1.303
10920WAT     H133002   4.170   3.289   1.250
10920WAT     H233003   4.169   3.133   1.300
10921WAT      O33004   6.541   9.770   9.067
10921WAT     H133005   6.606   9.843   9.047
10921WAT     H233006   6.509   9.779   9.162
10922WAT      O33007   9.426   5.228   7.595
10922WAT     H133008   9.417   5.175   7.510
10922WAT     H233009   9.480   5.176   7.661
10923WAT      O33010   2.378   9.093   0.903
10923WAT     H133011   2.342   9.001   0.886
10923WAT     H233012   2.474   9.085   0.933
10924WAT      O33013   6.237   5.455   2.338
10924WAT     H133014   6.227   5.488   2.244
10924WAT     H233015   6.147   5.453   2.382
10925WAT      O33016   9.185   1.035   7.769
10925WAT     H133017   9.260   0.991   7.818
10925WAT     H233018   9.210   1.045   7.673
10926WAT      O33019   3.108   2.182   0.716
10926WAT     H133020   3.182   2.228   0.766
10926WAT     H233021   3.044   2.251   0.682
10927WAT      O33022   1.087   2.973   4.024
10927WAT     H133023   1.016   2.905   4.010
10927WAT     H233024   1.175   2.936   3.994
10928WAT      O33025   6.030   8.834   0.090
10928WAT     H133026   6.025   8.736   0.071
10928WAT     H233027   5.938   8.872   0.095
10929WAT      O33028   5.064   1.894   7.530
10929WAT     H133029   5.071   1.820   7.596
10929WAT     H233030   5.099   1.865   7.442
10930WAT      O33031   2.487   8.585   9.096
10930WAT     H133032   2.508   8.573   8.999
10930WAT     H233033   2.562   8.634   9.141
10931WAT      O33034   4.283   3.015   1.014
10931WAT     H133035   4.306   2.998   1.110
10931WAT     H233036   4.271   2.928   0.967
10932WAT      O33037   3.952   1.361   6.879
10932WAT     H133038   4.049   1.352   6.860
10932WAT     H233039   3.938   1.384   6.976
10933WAT      O33040   9.727   4.501   4.589
10933WAT     H133041   9.660   4.458   4.530
10933WAT     H233042   9.681   4.560   4.655
10934WAT      O33043   3.188   9.623   1.762
10934WAT     H133044   3.245   9.640   1.681
10934WAT     H233045   3.093   9.616   1.734
10935WAT      O33046   3.764   4.533   8.126
10935WAT     H133047   3.825   4.502   8.199
10935WAT     H233048   3.819   4.555   8.045
10936WAT      O33049   7.025   0.533   3.957
10936WAT     H133050   6.947   0.577   3.912
10936WAT     H233051   7.064   0.596   4.024
10937WAT      O33052   8.050   1.503   7.811
10937WAT     H133053   8.013   1.441   7.742
10937WAT     H233054   7.983   1.518   7.883
10938WAT      O33055   2.986   9.488   8.786
10938WAT     H133056   3.083   9.466   8.797
10938WAT     H233057   2.937   9.407   8.755
10939WAT      O33058   5.468   6.082   7.479
10939WAT     H133059   5.481   6.064   7.577
10939WAT     H233060   5.549   6.050   7.428
10940WAT      O33061   4.462   8.442   3.656
10940WAT     H133062   4.561   8.447   3.644
10940WAT     H233063   4.436   8.347   3.674
10941WAT      O33064   3.815   6.604   9.310
10941WAT     H133065   3.770   6.514   9.309
10941WAT     H233066   3.898   6.598   9.366
10942WAT      O33067   0.555   9.669   4.124
10942WAT     H133068   0.499   9.696   4.046
10942WAT     H233069   0.640   9.628   4.091
10943WAT      O33070   2.115   6.945   2.597
10943WAT     H133071   2.166   6.960   2.681
10943WAT     H233072   2.156   6.998   2.523
10944WAT      O33073   8.457   8.334   9.732
10944WAT     H133074   8.528   8.269   9.761
10944WAT     H233075   8.456   8.412   9.795
10945WAT      O33076   4.224   4.375   3.608
10945WAT     H133077   4.168   4.294   3.591
10945WAT     H233078   4.279   4.361   3.691
10946WAT      O33079   1.881   7.245   9.737
10946WAT     H133080   1.901   7.221   9.832
10946WAT     H233081   1.807   7.312   9.734
10947WAT      O33082   2.120   3.535   7.995
10947WAT     H133083   2.054   3.468   8.030
10947WAT     H233084   2.075   3.596   7.930
10948WAT      O33085   3.318   7.899   1.659
10948WAT     H133086   3.333   7.807   1.696
10948WAT     H233087   3.241   7.941   1.707
10949WAT      O33088   0.755   0.981   6.731
10949WAT     H133089   0.664   0.997   6.770
10949WAT     H233090   0.746   0.971   6.631
10950WAT      O33091   2.331   2.990   1.566
10950WAT     H133092   2.241   2.950   1.549
10950WAT     H233093   2.374   3.011   1.478
10951WAT      O33094   7.364   3.428   3.002
10951WAT     H133095   7.297   3.359   2.975
10951WAT     H233096   7.377   3.426   3.101
10952WAT      O33097   8.745   2.547   7.415
10952WAT     H133098   8.698   2.507   7.336
10952WAT     H233099   8.836   2.507   7.423
10953WAT      O33100   2.800   5.876   4.726
10953WAT     H133101   2.819   5.943   4.798
10953WAT     H233102   2.823   5.785   4.759
10954WAT      O33103   4.256   5.978   5.973
10954WAT     H133104   4.228   6.071   5.947
10954WAT     H233105   4.181   5.914   5.955
10955WAT      O33106   0.432   9.242   9.449
10955WAT     H133107   0.488   9.264   9.529
10955WAT     H233108   0.490   9.203   9.378
10956WAT      O33109   1.037   7.263   2.888
10956WAT     H133110   1.031   7.177   2.939
10956WAT     H233111   1.082   7.333   2.944
10957WAT      O33112   7.896   9.617   5.016
10957WAT     H133113   7.909   9.602   4.918
10957WAT     H233114   7.818   9.563   5.048
10958WAT      O33115   5.750   7.857   9.520
10958WAT     H133116   5.788   7.831   9.608
10958WAT     H233117   5.758   7.780   9.456
10959WAT      O33118   7.968   5.978   5.040
10959WAT     H133119   7.883   5.988   5.092
10959WAT     H233120   8.039   6.036   5.081
10960WAT      O33121   0.525   9.020   6.583
10960WAT     H133122   0.493   9.075   6.660
10960WAT     H233123   0.620   8.993   6.598
10961WAT      O33124   8.260   6.781   8.407
10961WAT     H133125   8.194   6.851   8.435
10961WAT     H233126   8.223   6.728   8.331
10962WAT      O33127   9.768   7.161   1.253
10962WAT     H133128   9.687   7.176   1.197
10962WAT     H233129   9.844   7.130   1.196
10963WAT      O33130   7.530   7.829   6.735
10963WAT     H133131   7.609   7.810   6.794
10963WAT     H233132   7.523   7.758   6.665
10964WAT      O33133   7.507   9.680   2.790
10964WAT     H133134   7.496   9.584   2.814
10964WAT     H233135   7.546   9.730   2.868
10965WAT      O33136   9.430   4.790   3.306
10965WAT     H133137   9.489   4.783   3.225
10965WAT     H233138   9.335   4.774   3.280
10966WAT      O33139   2.048   6.701   3.884
10966WAT     H133140   1.971   6.733   3.938
10966WAT     H233141   2.017   6.625   3.825
10967WAT      O33142   2.631   4.224   0.218
10967WAT     H133143   2.654   4.321   0.213
10967WAT     H233144   2.611   4.189   0.127
10968WAT      O33145   2.384   4.383   8.691
10968WAT     H133146   2.359   4.459   8.752
10968WAT     H233147   2.400   4.301   8.745
10969WAT      O33148   8.562   6.734   8.104
10969WAT     H133149   8.479   6.773   8.064
10969WAT     H233150   8.604   6.671   8.039
10970WAT      O33151   8.407   7.586   0.638
10970WAT     H133152   8.379   7.544   0.552
10970WAT     H233153   8.361   7.542   0.714
10971WAT      O33154   8.623   5.603   5.620
10971WAT     H133155   8.532   5.616   5.579
10971WAT     H233156   8.660   5.515   5.592
10972WAT      O33157   8.715   5.231   3.830
10972WAT     H133158   8.803   5.206   3.789
10972WAT     H233159   8.729   5.304   3.896
10973WAT      O33160   8.239   3.746   6.377
10973WAT     H133161   8.333   3.716   6.388
10973WAT     H233162   8.198   3.764   6.467
10974WAT      O33163   6.484   4.471   0.863
10974WAT     H133164   6.494   4.481   0.962
10974WAT     H233165   6.546   4.401   0.830
10975WAT      O33166   1.691   1.002   9.386
10975WAT     H133167   1.761   0.969   9.450
10975WAT     H233168   1.601   0.971   9.417
10976WAT      O33169   4.363   8.180   8.342
10976WAT     H133170   4.409   8.153   8.426
10976WAT     H233171   4.372   8.107   8.274
10977WAT      O33172   2.889   3.548   3.141
10977WAT     H133173   2.837   3.576   3.060
10977WAT     H233174   2.984   3.576   3.131
10978WAT      O33175   0.542   2.694   5.985
10978WAT     H133176   0.577   2.620   5.928
10978WAT     H233177   0.447   2.674   6.010
10979WAT      O33178   1.444   6.600   5.487
10979WAT     H133179   1.415   6.507   5.509
10979WAT     H233180   1.472   6.604   5.391
10980WAT      O33181   4.816   2.192   3.965
10980WAT     H133182   4.852   2.112   3.918
10980WAT     H233183   4.722   2.174   3.995
10981WAT      O33184   6.838   6.578   5.867
10981WAT     H133185   6.937   6.575   5.852
10981WAT     H233186   6.817   6.539   5.956
10982WAT      O33187   0.762   3.676   3.469
10982WAT     H133188   0.847   3.641   3.432
10982WAT     H233189   0.695   3.686   3.395
10983WAT      O33190   1.766   6.098   8.774
10983WAT     H133191   1.771   6.002   8.801
10983WAT     H233192   1.831   6.151   8.828
10984WAT      O33193   6.966   2.384   3.055
10984WAT     H133194   7.029   2.423   2.987
10984WAT     H233195   6.899   2.326   3.009
10985WAT      O33196   3.020   6.965   8.311
10985WAT     H133197   3.055   6.871   8.315
10985WAT     H233198   2.921   6.964   8.321
10986WAT      O33199   0.884   0.223   9.727
10986WAT     H133200   0.877   0.263   9.819
10986WAT     H233201   0.840   0.284   9.661
10987WAT      O33202   5.551   8.142   8.220
10987WAT     H133203   5.530   8.240   8.217
10987WAT     H233204   5.595   8.121   8.307
10988WAT      O33205   4.497   3.650   2.757
10988WAT     H133206   4.545   3.730   2.719
10988WAT     H233207   4.547   3.617   2.837
10989WAT      O33208   0.507   3.084   2.382
10989WAT     H133209   0.411   3.109   2.388
10989WAT     H233210   0.527   3.046   2.292
10990WAT      O33211   2.122   1.408   7.696
10990WAT     H133212   2.063   1.485   7.723
10990WAT     H233213   2.092   1.326   7.745
10991WAT      O33214   8.615   9.546   3.273
10991WAT     H133215   8.655   9.459   3.246
10991WAT     H233216   8.600   9.602   3.192
10992WAT      O33217   8.966   4.705   5.580
10992WAT     H133218   8.999   4.637   5.645
10992WAT     H233219   9.043   4.751   5.537
10993WAT      O33220   0.775   9.593   0.847
10993WAT     H133221   0.835   9.593   0.767
10993WAT     H233222   0.778   9.503   0.890
10994WAT      O33223   8.668   0.075   3.609
10994WAT     H133224   8.581   0.096   3.653
10994WAT     H233225   8.673  -0.024   3.593
10995WAT      O33226   7.021   6.251   4.965
10995WAT     H133227   6.922   6.248   4.980
10995WAT     H233228   7.052   6.165   4.926
10996WAT      O33229   7.069   1.044   9.477
10996WAT     H133230   7.069   0.973   9.547
10996WAT     H233231   7.163   1.077   9.462
10997WAT      O33232   3.038   0.188   5.038
10997WAT     H133233   2.957   0.207   4.981
10997WAT     H233234   3.115   0.241   5.004
10998WAT      O33235   5.933   6.783   7.053
10998WAT     H133236   5.870   6.811   6.980
10998WAT     H233237   5.938   6.854   7.123
10999WAT      O33238   2.188   3.152   0.731
10999WAT     H133239   2.194   3.148   0.831
10999WAT     H233240   2.155   3.243   0.704
11000WAT      O33241   4.177   0.871   6.946
11000WAT     H133242   4.204   0.867   7.042
11000WAT     H233243   4.232   0.940   6.899
11001WAT      O33244   8.828   0.028   7.344
11001WAT     H133245   8.825  -0.069   7.322
11001WAT     H233246   8.743   0.054   7.391
11002WAT      O33247   9.627   9.414   7.013
11002WAT     H133248   9.629   9.315   7.020
11002WAT     H233249   9.561   9.441   6.942
11003WAT      O33250   5.452   8.823   7.243
11003WAT     H133251   5.532   8.881   7.229
11003WAT     H233252   5.478   8.727   7.234
11004WAT      O33253   3.632   5.733   1.041
11004WAT     H133254   3.703   5.675   1.082
11004WAT     H233255   3.673   5.788   0.968
11005WAT      O33256   7.759   9.616   1.671
11005WAT     H133257   7.738   9.532   1.621
11005WAT     H233258   7.764   9.595   1.769
11006WAT      O33259   0.946   9.173   3.179
11006WAT     H133260   0.909   9.159   3.271
11006WAT     H233261   0.891   9.121   3.113
11007WAT      O33262   4.988   3.252   9.784
11007WAT     H133263   4.937   3.333   9.812
11007WAT     H233264   5.026   3.267   9.692
11008WAT      O33265   7.191   7.754   9.620
11008WAT     H133266   7.217   7.800   9.705
11008WAT     H233267   7.208   7.656   9.629
11009WAT      O33268   4.356   8.642   0.154
11009WAT     H133269   4.331   8.661   0.059
11009WAT     H233270   4.446   8.679   0.173
11010WAT      O33271   9.515   1.179   7.509
11010WAT     H133272   9.460   1.095   7.505
11010WAT     H233273   9.459   1.255   7.542
11011WAT      O33274   0.253   4.042   8.782
11011WAT     H133275   0.182   4.002   8.724
11011WAT     H233276   0.219   4.051   8.875
11012WAT      O33277   1.483   3.494   5.926
11012WAT     H133278   1.556   3.434   5.893
11012WAT     H233279   1.430   3.528   5.848
11013WAT      O33280   2.600   8.789   6.580
11013WAT     H133281   2.657   8.858   6.535
11013WAT     H233282   2.560   8.728   6.511
11014WAT      O33283   6.504   2.717   9.391
11014WAT     H133284   6.571   2.769   9.337
11014WAT     H233285   6.519   2.619   9.377
11015WAT      O33286   7.369   6.730   4.469
11015WAT     H133287   7.276   6.696   4.483
11015WAT     H233288   7.433   6.677   4.526
11016WAT      O33289   7.016   6.832   1.239
11016WAT     H133290   6.991   6.809   1.333
11016WAT     H233291   7.097   6.779   1.212
11017WAT      O33292   6.842   1.587   2.668
11017WAT     H133293   6.926   1.600   2.616
11017WAT     H233294   6.849   1.504   2.723
11018WAT      O33295   4.635   1.812   3.844
11018WAT     H133296   4.722   1.854   3.871
11018WAT     H233297   4.599   1.858   3.763
11019WAT      O33298   5.343   3.562   3.165
11019WAT     H133299   5.379   3.495   3.229
11019WAT     H233300   5.339   3.523   3.073
11020WAT      O33301   5.104   1.582   3.932
11020WAT     H133302   5.144   1.664   3.891
11020WAT     H233303   5.173   1.510   3.937
11021WAT      O33304   8.793   7.224   5.627
11021WAT     H133305   8.874   7.282   5.623
11021WAT     H233306   8.791   7.163   5.548
11022WAT      O33307   4.974   0.860   1.648
11022WAT     H133308   4.918   0.808   1.584
11022WAT     H233309   4.999   0.948   1.608
11023WAT      O33310   2.232   7.201   6.401
11023WAT     H133311   2.319   7.166   6.434
11023WAT     H233312   2.244   7.295   6.370
11024WAT      O33313   0.857   6.051   2.928
11024WAT     H133314   0.802   6.037   2.846
11024WAT     H233315   0.938   6.105   2.905
11025WAT      O33316   2.684   8.808   1.503
11025WAT     H133317   2.639   8.893   1.476
11025WAT     H233318   2.743   8.825   1.582
11026WAT      O33319   4.561   6.814   3.715
11026WAT     H133320   4.660   6.825   3.716
11026WAT     H233321   4.519   6.891   3.667
11027WAT      O33322   3.445   9.629   4.821
11027WAT     H133323   3.445   9.692   4.743
11027WAT     H233324   3.515   9.659   4.887
11028WAT      O33325   3.669   8.009   8.210
11028WAT     H133326   3.764   8.019   8.239
11028WAT     H233327   3.641   7.914   8.223
11029WAT      O33328   6.881   3.147   4.559
11029WAT     H133329   6.792   3.123   4.522
11029WAT     H233330   6.879   3.242   4.592
11030WAT      O33331   5.801   4.893   5.875
11030WAT     H133332   5.873   4.857   5.815
11030WAT     H233333   5.811   4.856   5.967
11031WAT      O33334   0.726   8.891   7.638
11031WAT     H133335   0.789   8.846   7.574
11031WAT     H233336   0.665   8.952   7.587
11032WAT      O33337   5.650   7.589   4.880
11032WAT     H133338   5.617   7.555   4.969
11032WAT     H233339   5.739   7.634   4.893
11033WAT      O33340   4.090   0.628   0.349
11033WAT     H133341   4.096   0.690   0.427
11033WAT     H233342   4.144   0.664   0.273
11034WAT      O33343   6.166   8.844   5.952
11034WAT     H133344   6.229   8.767   5.958
11034WAT     H233345   6.193   8.903   5.876
11035WAT      O33346   1.539   3.663   6.685
11035WAT     H133347   1.634   3.634   6.693
11035WAT     H233348   1.479   3.591   6.721
11036WAT      O33349   1.296   0.618   9.499
11036WAT     H133350   1.214   0.565   9.521
11036WAT     H233351   1.377   0.566   9.526
11037WAT      O33352   4.288   9.006   0.265
11037WAT     H133353   4.356   9.072   0.297
11037WAT     H233354   4.294   8.923   0.321
11038WAT      O33355   5.836   5.879   7.147
11038WAT     H133356   5.826   5.954   7.213
11038WAT     H233357   5.750   5.864   7.099
11039WAT      O33358   8.422   6.467   2.355
11039WAT     H133359   8.457   6.392   2.300
11039WAT     H233360   8.322   6.466   2.354
11040WAT      O33361   7.847   2.523   1.931
11040WAT     H133362   7.751   2.506   1.908
11040WAT     H233363   7.860   2.516   2.030
11041WAT      O33364   0.777   4.934   2.296
11041WAT     H133365   0.789   4.835   2.309
11041WAT     H233366   0.867   4.978   2.295
11042WAT      O33367   2.044   8.921   3.705
11042WAT     H133368   2.083   9.010   3.728
11042WAT     H233369   1.964   8.934   3.647
11043WAT      O33370   0.149   1.499   3.338
11043WAT     H133371   0.229   1.490   3.397
11043WAT     H233372   0.091   1.574   3.371
11044WAT      O33373   7.916   3.630   3.092
11044WAT     H133374   7.849   3.569   3.136
11044WAT     H233375   7.885   3.725   3.102
11045WAT      O33376   5.639   7.201   1.832
11045WAT     H133377   5.568   7.250   1.783
11045WAT     H233378   5.641   7.106   1.803
11046WAT      O33379   3.489   3.482   7.757
11046WAT     H133380   3.570   3.513   7.707
11046WAT     H233381   3.461   3.393   7.722
11047WAT      O33382   1.669   3.840   3.160
11047WAT     H133383   1.650   3.844   3.062
11047WAT     H233384   1.652   3.930   3.201
11048WAT      O33385   2.617   9.283   0.795
11048WAT     H133386   2.570   9.345   0.857
11048WAT     H233387   2.706   9.258   0.833
11049WAT      O33388   2.334   1.362   2.638
11049WAT     H133389   2.300   1.308   2.561
11049WAT     H233390   2.374   1.447   2.604
11050WAT      O33391   2.541   3.374   6.113
11050WAT     H133392   2.605   3.445   6.083
11050WAT     H233393   2.466   3.417   6.163
11051WAT      O33394   6.627   0.371   9.137
11051WAT     H133395   6.711   0.419   9.111
11051WAT     H233396   6.554   0.395   9.074
11052WAT      O33397   1.432   0.018   5.567
11052WAT     H133398   1.380  -0.067   5.556
11052WAT     H233399   1.496   0.009   5.643
11053WAT      O33400   4.445   8.469   0.400
11053WAT     H133401   4.456   8.569   0.402
11053WAT     H233402   4.407   8.438   0.487
11054WAT      O33403   6.096   3.576   7.972
11054WAT     H133404   6.115   3.511   7.898
11054WAT     H233405   6.107   3.530   8.060
11055WAT      O33406   8.590   7.078   0.872
11055WAT     H133407   8.535   7.145   0.921
11055WAT     H233408   8.686   7.088   0.898
11056WAT      O33409   6.750   2.149   0.591
11056WAT     H133410   6.663   2.099   0.597
11056WAT     H233411   6.790   2.134   0.500
11057WAT      O33412   5.570   3.776   1.457
11057WAT     H133413   5.543   3.713   1.384
11057WAT     H233414   5.595   3.864   1.416
11058WAT      O33415   3.574   2.795   8.656
11058WAT     H133416   3.638   2.720   8.670
11058WAT     H233417   3.623   2.874   8.619
11059WAT      O33418   4.227   7.518   6.002
11059WAT     H133419   4.199   7.569   6.084
11059WAT     H233420   4.229   7.580   5.924
11060WAT      O33421   5.928   1.102   4.424
11060WAT     H133422   5.952   1.053   4.340
11060WAT     H233423   5.833   1.130   4.419
11061WAT      O33424   8.430   7.998   1.543
11061WAT     H133425   8.471   8.058   1.474
11061WAT     H233426   8.487   7.999   1.625
11062WAT      O33427   3.942   2.897   9.651
11062WAT     H133428   3.863   2.952   9.677
11062WAT     H233429   4.026   2.946   9.674
11063WAT      O33430   6.776   8.503   0.793
11063WAT     H133431   6.844   8.431   0.775
11063WAT     H233432   6.685   8.469   0.769
11064WAT      O33433   7.021   7.376   5.189
11064WAT     H133434   7.089   7.437   5.231
11064WAT     H233435   6.985   7.314   5.259
11065WAT      O33436   1.711   2.242   8.843
11065WAT     H133437   1.750   2.301   8.772
11065WAT     H233438   1.686   2.153   8.803
11066WAT      O33439   1.842   9.671   6.115
11066WAT     H133440   1.877   9.692   6.024
11066WAT     H233441   1.773   9.599   6.109
11067WAT      O33442   5.272   4.978   4.124
11067WAT     H133443   5.218   5.052   4.165
11067WAT     H233444   5.210   4.912   4.081
11068WAT      O33445   4.182   8.444   6.077
11068WAT     H133446   4.262   8.471   6.023
11068WAT     H233447   4.113   8.515   6.073
11069WAT      O33448   0.347   3.952   4.981
11069WAT     H133449   0.432   3.916   5.019
11069WAT     H233450   0.347   3.937   4.882
11070WAT      O33451   4.641   6.176   0.464
11070WAT     H133452   4.644   6.142   0.558
11070WAT     H233453   4.724   6.228   0.444
11071WAT      O33454   3.081   5.153   8.343
11071WAT     H133455   3.171   5.188   8.371
11071WAT     H233456   3.035   5.222   8.287
11072WAT      O33457   8.162   1.241   2.014
11072WAT     H133458   8.201   1.183   2.086
11072WAT     H233459   8.140   1.186   1.934
11073WAT      O33460   8.293   5.022   9.838
11073WAT     H133461   8.319   4.927   9.858
11073WAT     H233462   8.349   5.084   9.893
11074WAT      O33463   7.647   4.221   0.441
11074WAT     H133464   7.571   4.184   0.496
11074WAT     H233465   7.636   4.320   0.432
11075WAT      O33466   1.805   3.623   9.561
11075WAT     H133467   1.892   3.667   9.544
11075WAT     H233468   1.737   3.655   9.496
11076WAT      O33469   8.393   8.967   4.953
11076WAT     H133470   8.470   8.906   4.969
11076WAT     H233471   8.421   9.062   4.969
11077WAT      O33472   6.852   5.694   5.845
11077WAT     H133473   6.822   5.602   5.870
11077WAT     H233474   6.876   5.745   5.927
11078WAT      O33475   5.601   0.511   2.988
11078WAT     H133476   5.573   0.607   2.990
11078WAT     H233477   5.679   0.500   2.927
11079WAT      O33478   5.813   7.922   7.255
11079WAT     H133479   5.836   7.829   7.285
11079WAT     H233480   5.855   7.940   7.166
11080WAT      O33481   2.979   7.249   0.742
11080WAT     H133482   2.998   7.310   0.665
11080WAT     H233483   2.985   7.154   0.711
11081WAT      O33484   4.429   9.525   9.502
11081WAT     H133485   4.369   9.449   9.478
11081WAT     H233486   4.524   9.493   9.501
11082WAT      O33487   8.557   7.486   7.797
11082WAT     H133488   8.611   7.464   7.716
11082WAT     H233489   8.553   7.585   7.808
11083WAT      O33490   9.267   1.210   9.648
11083WAT     H133491   9.244   1.307   9.639
11083WAT     H233492   9.298   1.175   9.560
11084WAT      O33493   4.377   8.217   7.229
11084WAT     H133494   4.360   8.301   7.177
11084WAT     H233495   4.446   8.162   7.182
11085WAT      O33496   4.779   3.871   5.719
11085WAT     H133497   4.759   3.839   5.626
11085WAT     H233498   4.751   3.966   5.728
11086WAT      O33499   4.486   3.490   2.000
11086WAT     H133500   4.464   3.494   2.098
11086WAT     H233501   4.425   3.424   1.956
11087WAT      O33502   6.813   5.102   1.627
11087WAT     H133503   6.886   5.163   1.657
11087WAT     H233504   6.853   5.019   1.588
11088WAT      O33505   5.792   9.730   4.370
11088WAT     H133506   5.791   9.719   4.469
11088WAT     H233507   5.825   9.646   4.327
11089WAT      O33508   7.469   6.241   4.923
11089WAT     H133509   7.420   6.195   4.849
11089WAT     H233510   7.517   6.173   4.979
11090WAT      O33511   6.718   4.031   9.099
11090WAT     H133512   6.688   3.966   9.169
11090WAT     H233513   6.656   4.026   9.021
11091WAT      O33514   6.117   5.369   6.601
11091WAT     H133515   6.175   5.449   6.591
11091WAT     H233516   6.127   5.309   6.521
11092WAT      O33517   2.471   9.015   1.891
11092WAT     H133518   2.434   9.105   1.871
11092WAT     H233519   2.568   9.022   1.913
11093WAT      O33520   8.875   0.422   8.716
11093WAT     H133521   8.944   0.416   8.788
11093WAT     H233522   8.912   0.476   8.640
11094WAT      O33523   2.739   5.404   9.831
11094WAT     H133524   2.674   5.340   9.870
11094WAT     H233525   2.695   5.492   9.816
11095WAT      O33526   7.668   1.796   8.726
11095WAT     H133527   7.590   1.756   8.775
11095WAT     H233528   7.689   1.740   8.645
11096WAT      O33529   4.690   0.462   6.277
11096WAT     H133530   4.605   0.412   6.290
11096WAT     H233531   4.680   0.555   6.314
11097WAT      O33532   9.273   8.275   5.251
11097WAT     H133533   9.177   8.297   5.268
11097WAT     H233534   9.329   8.315   5.323
11098WAT      O33535   9.111   4.420   9.068
11098WAT     H133536   9.184   4.484   9.042
11098WAT     H233537   9.057   4.461   9.142
11099WAT      O33538   8.699   7.377   7.542
11099WAT     H133539   8.640   7.440   7.492
11099WAT     H233540   8.775   7.349   7.484
11100WAT      O33541   8.810   9.631   0.121
11100WAT     H133542   8.900   9.666   0.149
11100WAT     H233543   8.739   9.678   0.172
11101WAT      O33544   0.030   6.376   5.268
11101WAT     H133545   0.106   6.424   5.311
11101WAT     H233546  -0.044   6.363   5.334
11102WAT      O33547   1.436   9.143   2.135
11102WAT     H133548   1.428   9.243   2.142
11102WAT     H233549   1.374   9.110   2.064
11103WAT      O33550   9.736   7.456   5.958
11103WAT     H133551   9.726   7.431   5.862
11103WAT     H233552   9.831   7.480   5.977
11104WAT      O33553   0.822   0.808   9.726
11104WAT     H133554   0.860   0.724   9.765
11104WAT     H233555   0.891   0.880   9.728
11105WAT      O33556   8.876   8.762   0.339
11105WAT     H133557   8.945   8.828   0.309
11105WAT     H233558   8.797   8.765   0.278
11106WAT      O33559   0.533   2.875   4.920
11106WAT     H133560   0.463   2.819   4.873
11106WAT     H233561   0.544   2.961   4.870
11107WAT      O33562   8.774   3.213   4.466
11107WAT     H133563   8.831   3.133   4.444
11107WAT     H233564   8.793   3.286   4.401
11108WAT      O33565   2.493   5.934   1.311
11108WAT     H133566   2.591   5.920   1.326
11108WAT     H233567   2.472   5.919   1.214
11109WAT      O33568   5.935   4.302   1.598
11109WAT     H133569   5.866   4.335   1.663
11109WAT     H233570   5.890   4.252   1.524
11110WAT      O33571   5.356   8.779   0.153
11110WAT     H133572   5.433   8.786   0.216
11110WAT     H233573   5.366   8.846   0.079
11111WAT      O33574   9.566   6.858   9.832
11111WAT     H133575   9.646   6.897   9.876
11111WAT     H233576   9.594   6.795   9.760
11112WAT      O33577   8.024   4.192   3.840
11112WAT     H133578   8.055   4.109   3.794
11112WAT     H233579   7.981   4.253   3.774
11113WAT      O33580   9.166   0.274   7.089
11113WAT     H133581   9.082   0.329   7.082
11113WAT     H233582   9.152   0.201   7.156
11114WAT      O33583   1.857   0.803   3.071
11114WAT     H133584   1.948   0.831   3.039
11114WAT     H233585   1.793   0.804   2.994
11115WAT      O33586   6.859   6.838   2.149
11115WAT     H133587   6.820   6.917   2.102
11115WAT     H233588   6.786   6.787   2.194
11116WAT      O33589   6.224   4.687   6.721
11116WAT     H133590   6.180   4.769   6.757
11116WAT     H233591   6.259   4.705   6.629
11117WAT      O33592   9.337   6.125   5.727
11117WAT     H133593   9.436   6.128   5.734
11117WAT     H233594   9.311   6.061   5.655
11118WAT      O33595   4.468   2.121   9.026
11118WAT     H133596   4.410   2.165   8.957
11118WAT     H233597   4.454   2.167   9.114
11119WAT      O33598   3.731   4.672   2.691
11119WAT     H133599   3.698   4.680   2.597
11119WAT     H233600   3.667   4.615   2.743
11120WAT      O33601   8.942   5.239   5.716
11120WAT     H133602   8.879   5.288   5.656
11120WAT     H233603   8.989   5.168   5.663
11121WAT      O33604   5.396   6.428   5.387
11121WAT     H133605   5.409   6.430   5.288
11121WAT     H233606   5.313   6.478   5.411
11122WAT      O33607   0.874   4.938   6.657
11122WAT     H133608   0.834   4.874   6.723
11122WAT     H233609   0.920   4.887   6.585
11123WAT      O33610   8.498   8.815   4.660
11123WAT     H133611   8.564   8.890   4.672
11123WAT     H233612   8.485   8.797   4.563
11124WAT      O33613   9.443   7.797   7.301
11124WAT     H133614   9.514   7.791   7.230
11124WAT     H233615   9.477   7.755   7.385
11125WAT      O33616   6.344   0.102   3.636
11125WAT     H133617   6.327   0.075   3.541
11125WAT     H233618   6.367   0.200   3.639
11126WAT      O33619   8.247   3.631   4.291
11126WAT     H133620   8.299   3.633   4.206
11126WAT     H233621   8.171   3.567   4.282
11127WAT      O33622   7.442   1.503   1.995
11127WAT     H133623   7.426   1.565   1.918
11127WAT     H233624   7.406   1.412   1.972
11128WAT      O33625   6.613   4.448   7.813
11128WAT     H133626   6.523   4.411   7.789
11128WAT     H233627   6.664   4.468   7.729
11129WAT      O33628   6.028   2.090   5.343
11129WAT     H133629   6.022   2.189   5.326
11129WAT     H233630   5.967   2.042   5.280
11130WAT      O33631   2.191   2.739   5.225
11130WAT     H133632   2.192   2.758   5.323
11130WAT     H233633   2.280   2.765   5.186
11131WAT      O33634   5.907   1.122   4.716
11131WAT     H133635   5.931   1.091   4.624
11131WAT     H233636   5.991   1.142   4.767
11132WAT      O33637   2.563   8.049   4.328
11132WAT     H133638   2.464   8.039   4.320
11132WAT     H233639   2.589   8.042   4.425
11133WAT      O33640   1.946   5.487   8.767
11133WAT     H133641   1.992   5.471   8.680
11133WAT     H233642   1.848   5.499   8.751
11134WAT      O33643   6.928   8.099   5.071
11134WAT     H133644   6.875   8.120   4.988
11134WAT     H233645   7.023   8.126   5.057
11135WAT      O33646   3.993   5.459   0.407
11135WAT     H133647   3.971   5.405   0.326
11135WAT     H233648   4.088   5.441   0.434
11136WAT      O33649   3.431   7.959   0.349
11136WAT     H133650   3.474   7.923   0.432
11136WAT     H233651   3.499   8.008   0.294
11137WAT      O33652   3.059   0.593   7.683
11137WAT     H133653   3.011   0.591   7.595
11137WAT     H233654   2.995   0.621   7.755
11138WAT      O33655   3.130   6.587   1.567
11138WAT     H133656   3.185   6.624   1.641
11138WAT     H233657   3.105   6.492   1.589
11139WAT      O33658   1.785   9.103   0.337
11139WAT     H133659   1.702   9.158   0.337
11139WAT     H233660   1.761   9.007   0.323
11140WAT      O33661   2.635   5.651   9.752
11140WAT     H133662   2.542   5.616   9.741
11140WAT     H233663   2.635   5.722   9.823
11141WAT      O33664   6.049   1.928   2.612
11141WAT     H133665   6.007   2.019   2.613
11141WAT     H233666   5.993   1.865   2.665
11142WAT      O33667   6.420   3.058   6.744
11142WAT     H133668   6.384   3.047   6.651
11142WAT     H233669   6.488   3.131   6.744
11143WAT      O33670   4.436   1.422   0.416
11143WAT     H133671   4.422   1.445   0.320
11143WAT     H233672   4.404   1.329   0.433
11144WAT      O33673   6.909   1.634   7.008
11144WAT     H133674   6.986   1.578   6.978
11144WAT     H233675   6.869   1.681   6.930
11145WAT      O33676   7.198   2.397   5.930
11145WAT     H133677   7.238   2.439   5.849
11145WAT     H233678   7.209   2.298   5.925
11146WAT      O33679   6.946   0.579   7.732
11146WAT     H133680   7.041   0.547   7.729
11146WAT     H233681   6.885   0.503   7.708
11147WAT      O33682   0.574   7.253   9.106
11147WAT     H133683   0.484   7.214   9.083
11147WAT     H233684   0.646   7.191   9.073
11148WAT      O33685   1.797   3.401   2.578
11148WAT     H133686   1.698   3.408   2.593
11148WAT     H233687   1.846   3.443   2.654
11149WAT      O33688   9.226   3.385   2.724
11149WAT     H133689   9.215   3.453   2.796
11149WAT     H233690   9.268   3.428   2.644
11150WAT      O33691   7.590   5.776   3.708
11150WAT     H133692   7.589   5.709   3.633
11150WAT     H233693   7.633   5.734   3.789
11151WAT      O33694   6.059   7.157   1.675
11151WAT     H133695   6.018   7.066   1.688
11151WAT     H233696   6.066   7.177   1.577
11152WAT      O33697   4.776   2.980   7.707
11152WAT     H133698   4.761   2.958   7.803
11152WAT     H233699   4.814   2.900   7.660
11153WAT      O33700   3.870   2.013   5.137
11153WAT     H133701   3.915   1.923   5.137
11153WAT     H233702   3.804   2.017   5.212
11154WAT      O33703   3.632   4.183   5.871
11154WAT     H133704   3.607   4.259   5.810
11154WAT     H233705   3.724   4.200   5.907
11155WAT      O33706   7.344   8.004   7.638
11155WAT     H133707   7.308   8.078   7.580
11155WAT     H233708   7.354   8.037   7.731
11156WAT      O33709   1.496   8.605   2.976
11156WAT     H133710   1.501   8.641   2.883
11156WAT     H233711   1.560   8.655   3.034
11157WAT      O33712   2.852   4.018   7.165
11157WAT     H133713   2.858   4.085   7.239
11157WAT     H233714   2.940   4.014   7.116
11158WAT      O33715   0.941   4.451   7.764
11158WAT     H133716   0.969   4.430   7.671
11158WAT     H233717   0.930   4.366   7.816
11159WAT      O33718   3.461   3.002   6.992
11159WAT     H133719   3.529   2.936   6.961
11159WAT     H233720   3.497   3.094   6.982
11160WAT      O33721   9.850   0.773   8.874
11160WAT     H133722   9.839   0.843   8.944
11160WAT     H233723   9.826   0.684   8.912
11161WAT      O33724   2.154   1.875   0.607
11161WAT     H133725   2.108   1.939   0.545
11161WAT     H233726   2.176   1.791   0.558
11162WAT      O33727   7.774   4.530   4.857
11162WAT     H133728   7.829   4.550   4.776
11162WAT     H233729   7.708   4.458   4.836
11163WAT      O33730   8.132   4.530   1.110
11163WAT     H133731   8.142   4.622   1.148
11163WAT     H233732   8.221   4.498   1.078
11164WAT      O33733   0.109   1.693   1.680
11164WAT     H133734   0.128   1.608   1.730
11164WAT     H233735   0.157   1.692   1.592
11165WAT      O33736   7.267   1.973   8.466
11165WAT     H133737   7.226   1.937   8.550
11165WAT     H233738   7.267   2.073   8.469
11166WAT      O33739   6.589   6.819   4.130
11166WAT     H133740   6.526   6.853   4.060
11166WAT     H233741   6.609   6.723   4.113
11167WAT      O33742   4.457   2.502   0.075
11167WAT     H133743   4.361   2.487   0.101
11167WAT     H233744   4.462   2.571   0.002
11168WAT      O33745   6.289   2.693   9.070
11168WAT     H133746   6.249   2.780   9.100
11168WAT     H233747   6.302   2.634   9.150
11169WAT      O33748   9.462   3.647   3.186
11169WAT     H133749   9.510   3.656   3.274
11169WAT     H233750   9.393   3.576   3.193
11170WAT      O33751   7.240   4.771   9.030
11170WAT     H133752   7.288   4.816   8.956
11170WAT     H233753   7.252   4.822   9.115
11171WAT      O33754   0.659   1.186   2.030
11171WAT     H133755   0.689   1.263   1.974
11171WAT     H233756   0.561   1.172   2.018
11172WAT      O33757   3.815   3.560   8.289
11172WAT     H133758   3.761   3.600   8.215
11172WAT     H233759   3.911   3.553   8.261
11173WAT      O33760   5.969   0.184   8.484
11173WAT     H133761   6.035   0.230   8.544
11173WAT     H233762   5.877   0.215   8.507
11174WAT      O33763   4.438   2.513   8.741
11174WAT     H133764   4.511   2.505   8.674
11174WAT     H233765   4.392   2.601   8.730
11175WAT      O33766   2.750   1.335   0.706
11175WAT     H133767   2.663   1.337   0.657
11175WAT     H233768   2.736   1.298   0.798
11176WAT      O33769   3.705   6.896   4.745
11176WAT     H133770   3.656   6.822   4.790
11176WAT     H233771   3.663   6.984   4.770
11177WAT      O33772   7.996   8.852   9.416
11177WAT     H133773   8.001   8.830   9.319
11177WAT     H233774   8.033   8.943   9.432
11178WAT      O33775   0.785   9.311   4.576
11178WAT     H133776   0.857   9.249   4.545
11178WAT     H233777   0.826   9.393   4.616
11179WAT      O33778   9.238   5.210   1.847
11179WAT     H133779   9.141   5.230   1.834
11179WAT     H233780   9.252   5.111   1.841
11180WAT      O33781   1.210   8.015   2.532
11180WAT     H133782   1.175   8.017   2.626
11180WAT     H233783   1.301   8.057   2.530
11181WAT      O33784   5.678   8.717   5.616
11181WAT     H133785   5.608   8.770   5.665
11181WAT     H233786   5.651   8.704   5.521
11182WAT      O33787   3.582   2.027   5.639
11182WAT     H133788   3.540   2.102   5.690
11182WAT     H233789   3.561   1.940   5.684
11183WAT      O33790   4.178   9.483   5.626
11183WAT     H133791   4.262   9.535   5.635
11183WAT     H233792   4.152   9.446   5.715
11184WAT      O33793   2.117   9.209   7.672
11184WAT     H133794   2.135   9.307   7.686
11184WAT     H233795   2.122   9.189   7.574
11185WAT      O33796   8.792   8.609   3.629
11185WAT     H133797   8.811   8.703   3.655
11185WAT     H233798   8.753   8.607   3.537
11186WAT      O33799   9.518   8.406   8.226
11186WAT     H133800   9.477   8.367   8.144
11186WAT     H233801   9.613   8.375   8.232
11187WAT      O33802   3.347   2.857   0.301
11187WAT     H133803   3.369   2.944   0.258
11187WAT     H233804   3.411   2.839   0.376
11188WAT      O33805   1.722   3.284   1.804
11188WAT     H133806   1.729   3.215   1.732
11188WAT     H233807   1.814   3.311   1.834
11189WAT      O33808   1.890   8.153   7.219
11189WAT     H133809   1.885   8.062   7.178
11189WAT     H233810   1.967   8.157   7.284
11190WAT      O33811   4.761   7.336   2.550
11190WAT     H133812   4.682   7.326   2.610
11190WAT     H233813   4.737   7.308   2.458
11191WAT      O33814   7.531   8.186   3.055
11191WAT     H133815   7.542   8.087   3.047
11191WAT     H233816   7.560   8.230   2.970
11192WAT      O33817   3.805   3.892   5.634
11192WAT     H133818   3.780   3.982   5.599
11192WAT     H233819   3.903   3.877   5.623
11193WAT      O33820   5.876   2.947   5.377
11193WAT     H133821   5.806   3.009   5.343
11193WAT     H233822   5.924   2.990   5.454
11194WAT      O33823   3.109   7.620   1.023
11194WAT     H133824   3.188   7.596   1.080
11194WAT     H233825   3.093   7.718   1.028
11195WAT      O33826   4.584   2.181   6.848
11195WAT     H133827   4.607   2.271   6.812
11195WAT     H233828   4.528   2.132   6.781
11196WAT      O33829   5.798   2.287   6.273
11196WAT     H133830   5.896   2.270   6.283
11196WAT     H233831   5.776   2.377   6.312
11197WAT      O33832   5.586   4.061   2.787
11197WAT     H133833   5.668   4.107   2.820
11197WAT     H233834   5.565   3.982   2.845
11198WAT      O33835   3.539   8.185   0.893
11198WAT     H133836   3.612   8.251   0.873
11198WAT     H233837   3.568   8.094   0.864
11199WAT      O33838   2.284   9.281   5.706
11199WAT     H133839   2.295   9.246   5.799
11199WAT     H233840   2.348   9.234   5.645
11200WAT      O33841   8.095   2.782   8.637
11200WAT     H133842   8.111   2.817   8.730
11200WAT     H233843   8.012   2.824   8.600
11201WAT      O33844   3.394   0.983   4.941
11201WAT     H133845   3.340   1.057   4.900
11201WAT     H233846   3.471   0.961   4.880
11202WAT      O33847   6.954   7.829   0.658
11202WAT     H133848   6.979   7.842   0.754
11202WAT     H233849   7.030   7.787   0.609
11203WAT      O33850   5.032   5.327   7.022
11203WAT     H133851   4.996   5.251   7.077
11203WAT     H233852   5.116   5.299   6.976
11204WAT      O33853   9.142   2.513   5.763
11204WAT     H133854   9.175   2.449   5.833
11204WAT     H233855   9.174   2.484   5.673
11205WAT      O33856   8.442   7.950   6.187
11205WAT     H133857   8.369   7.911   6.243
11205WAT     H233858   8.420   7.938   6.090
11206WAT      O33859   7.178   8.954   7.728
11206WAT     H133860   7.084   8.988   7.736
11206WAT     H233861   7.237   9.028   7.695
11207WAT      O33862   7.514   9.399   8.890
11207WAT     H133863   7.420   9.402   8.924
11207WAT     H233864   7.578   9.409   8.966
11208WAT      O33865   8.779   8.193   5.473
11208WAT     H133866   8.850   8.227   5.412
11208WAT     H233867   8.817   8.182   5.565
11209WAT      O33868   1.973   7.175   4.634
11209WAT     H133869   1.996   7.103   4.699
11209WAT     H233870   2.032   7.168   4.554
11210WAT      O33871   9.426   9.245   1.292
11210WAT     H133872   9.496   9.229   1.223
11210WAT     H233873   9.468   9.249   1.382
11211WAT      O33874   4.264   2.393   4.261
11211WAT     H133875   4.248   2.429   4.353
11211WAT     H233876   4.360   2.364   4.253
11212WAT      O33877   6.575   2.288   0.028
11212WAT     H133878   6.605   2.205   0.077
11212WAT     H233879   6.525   2.262  -0.054
11213WAT      O33880   6.127   5.522   7.094
11213WAT     H133881   6.137   5.471   7.009
11213WAT     H233882   6.202   5.499   7.156
11214WAT      O33883   5.070   4.091   1.517
11214WAT     H133884   5.097   4.180   1.555
11214WAT     H233885   5.039   4.032   1.591
11215WAT      O33886   3.919   3.439   7.671
11215WAT     H133887   3.872   3.387   7.742
11215WAT     H233888   4.007   3.396   7.650
11216WAT      O33889   6.361   4.152   1.153
11216WAT     H133890   6.262   4.139   1.157
11216WAT     H233891   6.398   4.104   1.073
11217WAT      O33892   1.409   5.856   6.627
11217WAT     H133893   1.472   5.814   6.691
11217WAT     H233894   1.407   5.955   6.641
11218WAT      O33895   2.495   5.241   4.346
11218WAT     H133896   2.473   5.339   4.339
11218WAT     H233897   2.592   5.230   4.367
11219WAT      O33898   9.278   2.976   4.339
11219WAT     H133899   9.229   2.890   4.354
11219WAT     H233900   9.364   2.957   4.293
11220WAT      O33901   0.563   6.431   4.634
11220WAT     H133902   0.654   6.402   4.606
11220WAT     H233903   0.522   6.487   4.562
11221WAT      O33904   9.537   2.831   5.495
11221WAT     H133905   9.622   2.872   5.460
11221WAT     H233906   9.559   2.748   5.545
11222WAT      O33907   9.713   4.150   2.547
11222WAT     H133908   9.720   4.110   2.638
11222WAT     H233909   9.785   4.219   2.534
11223WAT      O33910   1.891   1.561   0.591
11223WAT     H133911   1.988   1.542   0.606
11223WAT     H233912   1.866   1.644   0.640
11224WAT      O33913   0.178   6.669   0.294
11224WAT     H133914   0.164   6.570   0.299
11224WAT     H233915   0.274   6.689   0.277
11225WAT      O33916   9.213   4.246   3.027
11225WAT     H133917   9.293   4.219   2.973
11225WAT     H233918   9.143   4.283   2.967
11226WAT      O33919   0.342   8.048   5.940
11226WAT     H133920   0.420   7.987   5.949
11226WAT     H233921   0.361   8.133   5.989
11227WAT      O33922   8.793   5.901   1.079
11227WAT     H133923   8.736   5.852   1.145
11227WAT     H233924   8.759   5.995   1.069
11228WAT      O33925   5.917   3.455   6.179
11228WAT     H133926   5.885   3.549   6.190
11228WAT     H233927   6.001   3.455   6.125
11229WAT      O33928   2.337   9.719   9.505
11229WAT     H133929   2.342   9.621   9.486
11229WAT     H233930   2.254   9.757   9.464
11230WAT      O33931   9.117   2.224   5.420
11230WAT     H133932   9.138   2.322   5.419
11230WAT     H233933   9.200   2.173   5.443
11231WAT      O33934   4.014   4.690   3.033
11231WAT     H133935   3.996   4.756   3.105
11231WAT     H233936   4.099   4.713   2.986
11232WAT      O33937   1.977   5.680   4.062
11232WAT     H133938   1.903   5.667   4.128
11232WAT     H233939   2.048   5.611   4.077
11233WAT      O33940   2.070   2.550   1.684
11233WAT     H133941   2.088   2.530   1.587
11233WAT     H233942   1.997   2.619   1.690
11234WAT      O33943   1.318   8.883   3.318
11234WAT     H133944   1.303   8.788   3.343
11234WAT     H233945   1.240   8.916   3.264
11235WAT      O33946   0.198   9.636   2.773
11235WAT     H133947   0.177   9.538   2.771
11235WAT     H233948   0.141   9.684   2.707
11236WAT      O33949   9.620   3.937   3.442
11236WAT     H133950   9.664   3.888   3.517
11236WAT     H233951   9.542   3.989   3.478
11237WAT      O33952   3.017   6.602   4.052
11237WAT     H133953   3.029   6.677   3.987
11237WAT     H233954   3.088   6.607   4.123
11238WAT      O33955   4.800   9.722   7.910
11238WAT     H133956   4.741   9.698   7.833
11238WAT     H233957   4.863   9.647   7.929
11239WAT      O33958   8.304   6.890   2.348
11239WAT     H133959   8.212   6.918   2.376
11239WAT     H233960   8.339   6.954   2.280
11240WAT      O33961   8.472   8.249   8.763
11240WAT     H133962   8.385   8.284   8.799
11240WAT     H233963   8.454   8.195   8.681
11241WAT      O33964   4.117   4.393   1.300
11241WAT     H133965   4.176   4.320   1.266
11241WAT     H233966   4.032   4.354   1.335
11242WAT      O33967   3.588   1.442   9.883
11242WAT     H133968   3.577   1.345   9.903
11242WAT     H233969   3.567   1.460   9.787
11243WAT      O33970   9.459   5.261   0.556
11243WAT     H133971   9.540   5.224   0.602
11243WAT     H233972   9.470   5.359   0.543
11244WAT      O33973   9.070   3.087   9.066
11244WAT     H133974   9.023   3.095   9.154
11244WAT     H233975   9.123   3.002   9.064
11245WAT      O33976   8.719   1.888   1.106
11245WAT     H133977   8.711   1.967   1.045
11245WAT     H233978   8.649   1.893   1.177
11246WAT      O33979   9.772   9.809   2.886
11246WAT     H133980   9.821   9.889   2.919
11246WAT     H233981   9.749   9.750   2.963
11247WAT      O33982   0.044   4.219   4.317
11247WAT     H133983   0.141   4.220   4.341
11247WAT     H233984   0.022   4.133   4.271
11248WAT      O33985   2.232   3.629   6.791
11248WAT     H133986   2.330   3.641   6.778
11248WAT     H233987   2.216   3.553   6.854
11249WAT      O33988   5.932   8.533   7.191
11249WAT     H133989   5.969   8.474   7.263
11249WAT     H233990   5.948   8.492   7.102
11250WAT      O33991   7.596   0.283   2.019
11250WAT     H133992   7.578   0.382   2.022
11250WAT     H233993   7.648   0.262   1.936
11251WAT      O33994   0.504   0.463   9.660
11251WAT     H133995   0.439   0.388   9.665
11251WAT     H233996   0.590   0.430   9.620
11252WAT      O33997   7.666   5.795   1.927
11252WAT     H133998   7.703   5.727   1.864
11252WAT     H233999   7.567   5.797   1.919
11253WAT      O34000   5.651   6.928   7.148
11253WAT     H134001   5.601   6.866   7.089
11253WAT     H234002   5.675   7.011   7.097
11254WAT      O34003   9.117   8.186   0.469
11254WAT     H134004   9.082   8.273   0.504
11254WAT     H234005   9.125   8.121   0.545
11255WAT      O34006   5.200   7.571   9.587
11255WAT     H134007   5.179   7.560   9.684
11255WAT     H234008   5.116   7.582   9.535
11256WAT      O34009   4.932   8.504   2.248
11256WAT     H134010   4.994   8.457   2.311
11256WAT     H234011   4.848   8.528   2.296
11257WAT      O34012   2.852   4.887   6.670
11257WAT     H134013   2.854   4.795   6.709
11257WAT     H234014   2.757   4.917   6.664
11258WAT      O34015   2.290   1.004   0.478
11258WAT     H134016   2.298   0.910   0.513
11258WAT     H234017   2.347   1.014   0.397
11259WAT      O34018   4.500   0.324   8.493
11259WAT     H134019   4.480   0.272   8.410
11259WAT     H234020   4.509   0.262   8.570
11260WAT      O34021   6.276   1.781   1.357
11260WAT     H134022   6.276   1.687   1.322
11260WAT     H234023   6.370   1.809   1.377
11261WAT      O34024   4.167   9.465   0.491
11261WAT     H134025   4.080   9.506   0.466
11261WAT     H234026   4.239   9.498   0.430
11262WAT      O34027   7.381   4.194   2.306
11262WAT     H134028   7.361   4.098   2.325
11262WAT     H234029   7.374   4.210   2.207
11263WAT      O34030   2.332   3.144   1.948
11263WAT     H134031   2.403   3.073   1.953
11263WAT     H234032   2.251   3.107   1.904
11264WAT      O34033   4.482   8.152   8.589
11264WAT     H134034   4.557   8.086   8.600
11264WAT     H234035   4.412   8.134   8.657
11265WAT      O34036   0.986   0.994   8.685
11265WAT     H134037   0.920   0.931   8.644
11265WAT     H234038   0.989   1.078   8.632
11266WAT      O34039   4.198   5.459   7.746
11266WAT     H134040   4.297   5.465   7.757
11266WAT     H234041   4.176   5.446   7.649
11267WAT      O34042   5.849   7.073   9.141
11267WAT     H134043   5.780   7.015   9.185
11267WAT     H234044   5.940   7.049   9.176
11268WAT      O34045   1.940   8.812   9.638
11268WAT     H134046   2.030   8.848   9.612
11268WAT     H234047   1.945   8.776   9.731
11269WAT      O34048   2.588   8.210   3.745
11269WAT     H134049   2.649   8.147   3.793
11269WAT     H234050   2.639   8.292   3.718
11270WAT      O34051   4.469   5.138   2.238
11270WAT     H134052   4.510   5.225   2.214
11270WAT     H234053   4.371   5.141   2.218
11271WAT      O34054   0.968   9.613   2.382
11271WAT     H134055   1.039   9.679   2.360
11271WAT     H234056   0.899   9.612   2.309
11272WAT      O34057   8.475   8.833   7.482
11272WAT     H134058   8.485   8.743   7.439
11272WAT     H234059   8.383   8.841   7.520
11273WAT      O34060   3.478   5.466   4.095
11273WAT     H134061   3.450   5.496   4.185
11273WAT     H234062   3.496   5.368   4.096
11274WAT      O34063   5.232   1.058   2.253
11274WAT     H134064   5.232   0.980   2.316
11274WAT     H234065   5.151   1.115   2.271
11275WAT      O34066   9.318   3.408   3.260
11275WAT     H134067   9.293   3.456   3.344
11275WAT     H234068   9.263   3.326   3.251
11276WAT      O34069   3.770   1.854   4.900
11276WAT     H134070   3.821   1.931   4.937
11276WAT     H234071   3.830   1.774   4.894
11277WAT      O34072   1.091   2.662   5.353
11277WAT     H134073   1.040   2.590   5.400
11277WAT     H234074   1.128   2.626   5.267
11278WAT      O34075   3.672   6.949   4.330
11278WAT     H134076   3.632   7.040   4.314
11278WAT     H234077   3.762   6.959   4.371
11279WAT      O34078   2.670   5.590   3.544
11279WAT     H134079   2.573   5.614   3.534
11279WAT     H234080   2.678   5.495   3.574
11280WAT      O34081   2.148   6.409   3.336
11280WAT     H134082   2.201   6.396   3.420
11280WAT     H234083   2.153   6.505   3.308
11281WAT      O34084   9.735   4.526   0.291
11281WAT     H134085   9.742   4.587   0.370
11281WAT     H234086   9.790   4.562   0.216
11282WAT      O34087   7.560   1.986   6.305
11282WAT     H134088   7.599   2.025   6.388
11282WAT     H234089   7.461   2.002   6.304
11283WAT      O34090   2.920   5.435   8.643
11283WAT     H134091   2.830   5.469   8.671
11283WAT     H234092   2.916   5.337   8.628
11284WAT      O34093   9.089   9.149   5.036
11284WAT     H134094   9.107   9.051   5.030
11284WAT     H234095   9.044   9.180   4.952
11285WAT      O34096   1.397   0.134   7.542
11285WAT     H134097   1.428   0.202   7.608
11285WAT     H234098   1.378   0.178   7.455
11286WAT      O34099   6.660   9.596   7.607
11286WAT     H134100   6.750   9.559   7.582
11286WAT     H234101   6.636   9.671   7.545
11287WAT      O34102   2.657   1.252   8.312
11287WAT     H134103   2.679   1.196   8.392
11287WAT     H234104   2.663   1.348   8.336
11288WAT      O34105   7.262   5.654   3.618
11288WAT     H134106   7.269   5.597   3.700
11288WAT     H234107   7.280   5.749   3.642
11289WAT      O34108   5.033   6.984   1.198
11289WAT     H134109   5.002   6.965   1.105
11289WAT     H234110   4.974   7.052   1.240
11290WAT      O34111   7.229   2.005   1.610
11290WAT     H134112   7.206   2.001   1.707
11290WAT     H234113   7.149   2.038   1.559
11291WAT      O34114   2.834   9.273   1.762
11291WAT     H134115   2.838   9.328   1.845
11291WAT     H234116   2.927   9.260   1.726
11292WAT      O34117   9.558   5.480   8.696
11292WAT     H134118   9.558   5.468   8.795
11292WAT     H234119   9.639   5.532   8.669
11293WAT      O34120   6.042   4.830   1.443
11293WAT     H134121   6.127   4.779   1.436
11293WAT     H234122   6.031   4.889   1.362
11294WAT      O34123   6.361   9.791   5.792
11294WAT     H134124   6.391   9.819   5.701
11294WAT     H234125   6.264   9.811   5.803
11295WAT      O34126   8.471   8.544   4.399
11295WAT     H134127   8.533   8.485   4.450
11295WAT     H234128   8.500   8.640   4.410
11296WAT      O34129   4.564   7.780   0.271
11296WAT     H134130   4.567   7.796   0.172
11296WAT     H234131   4.613   7.853   0.318
11297WAT      O34132   3.378   4.425   3.241
11297WAT     H134133   3.349   4.382   3.327
11297WAT     H234134   3.339   4.517   3.236
11298WAT      O34135   4.828   5.983   5.998
11298WAT     H134136   4.862   6.075   5.978
11298WAT     H234137   4.734   5.974   5.965
11299WAT      O34138   0.230   0.670   6.513
11299WAT     H134139   0.137   0.665   6.551
11299WAT     H234140   0.248   0.763   6.482
11300WAT      O34141   6.589   5.712   7.751
11300WAT     H134142   6.563   5.748   7.840
11300WAT     H234143   6.551   5.621   7.739
11301WAT      O34144   8.429   0.242   1.995
11301WAT     H134145   8.439   0.219   2.091
11301WAT     H234146   8.497   0.194   1.941
11302WAT      O34147   2.020   3.165   4.705
11302WAT     H134148   2.095   3.111   4.743
11302WAT     H234149   1.940   3.106   4.691
11303WAT      O34150   6.590   0.859   0.345
11303WAT     H134151   6.541   0.919   0.282
11303WAT     H234152   6.527   0.826   0.415
11304WAT      O34153   6.103   4.878   5.465
11304WAT     H134154   6.129   4.787   5.431
11304WAT     H234155   6.186   4.929   5.489
11305WAT      O34156   5.178   5.271   6.449
11305WAT     H134157   5.128   5.267   6.535
11305WAT     H234158   5.195   5.366   6.425
11306WAT      O34159   8.408   0.878   6.572
11306WAT     H134160   8.324   0.824   6.585
11306WAT     H234161   8.393   0.971   6.606
11307WAT      O34162   5.480   4.239   0.706
11307WAT     H134163   5.477   4.208   0.801
11307WAT     H234164   5.453   4.164   0.645
11308WAT      O34165   1.398   2.835   4.734
11308WAT     H134166   1.439   2.867   4.820
11308WAT     H234167   1.301   2.860   4.732
11309WAT      O34168   4.602   3.258   4.961
11309WAT     H134169   4.695   3.269   4.927
11309WAT     H234170   4.564   3.347   4.985
11310WAT      O34171   1.943   0.953   4.212
11310WAT     H134172   2.000   0.985   4.137
11310WAT     H234173   1.850   0.938   4.180
11311WAT      O34174   9.649   9.168   4.976
11311WAT     H134175   9.745   9.142   4.986
11311WAT     H234176   9.624   9.232   5.048
11312WAT      O34177   3.313   7.978   4.613
11312WAT     H134178   3.269   7.969   4.703
11312WAT     H234179   3.243   7.983   4.542
11313WAT      O34180   5.556   4.575   0.961
11313WAT     H134181   5.470   4.593   1.009
11313WAT     H234182   5.587   4.483   0.982
11314WAT      O34183   1.423   3.814   8.785
11314WAT     H134184   1.347   3.835   8.846
11314WAT     H234185   1.388   3.785   8.696
11315WAT      O34186   4.386   2.923   8.867
11315WAT     H134187   4.360   2.927   8.964
11315WAT     H234188   4.485   2.923   8.859
11316WAT      O34189   1.369   8.124   1.132
11316WAT     H134190   1.360   8.160   1.039
11316WAT     H234191   1.279   8.093   1.164
11317WAT      O34192   7.513   7.096   7.750
11317WAT     H134193   7.607   7.061   7.753
11317WAT     H234194   7.451   7.028   7.789
11318WAT      O34195   2.556   2.951   4.870
11318WAT     H134196   2.595   2.875   4.819
11318WAT     H234197   2.627   3.019   4.888
11319WAT      O34198   0.265   3.723   1.875
11319WAT     H134199   0.265   3.625   1.857
11319WAT     H234200   0.324   3.770   1.808
11320WAT      O34201   5.794   8.056   5.725
11320WAT     H134202   5.742   7.977   5.693
11320WAT     H234203   5.875   8.025   5.775
11321WAT      O34204   7.984   2.714   2.572
11321WAT     H134205   7.984   2.747   2.478
11321WAT     H234206   8.028   2.624   2.576
11322WAT      O34207   0.148   5.936   0.790
11322WAT     H134208   0.208   5.973   0.861
11322WAT     H234209   0.196   5.866   0.738
11323WAT      O34210   8.291   7.719   1.959
11323WAT     H134211   8.216   7.712   1.893
11323WAT     H234212   8.272   7.659   2.036
11324WAT      O34213   3.002   6.277   1.509
11324WAT     H134214   3.010   6.313   1.416
11324WAT     H234215   2.947   6.339   1.565
11325WAT      O34216   0.052   0.898   6.167
11325WAT     H134217   0.040   0.809   6.122
11325WAT     H234218   0.034   0.971   6.101
11326WAT      O34219   8.723   7.920   7.153
11326WAT     H134220   8.721   8.010   7.198
11326WAT     H234221   8.817   7.886   7.152
11327WAT      O34222   3.639   2.312   9.366
11327WAT     H134223   3.703   2.369   9.313
11327WAT     H234224   3.609   2.361   9.447
11328WAT      O34225   0.935   4.568   9.005
11328WAT     H134226   0.976   4.590   8.916
11328WAT     H234227   0.857   4.628   9.022
11329WAT      O34228   9.395   7.313   8.157
11329WAT     H134229   9.360   7.401   8.126
11329WAT     H234230   9.441   7.325   8.245
11330WAT      O34231   6.093   3.592   1.476
11330WAT     H134232   6.175   3.649   1.478
11330WAT     H234233   6.030   3.621   1.547
11331WAT      O34234   8.526   3.987   7.036
11331WAT     H134235   8.622   3.968   7.015
11331WAT     H234236   8.490   4.052   6.970
11332WAT      O34237   8.714   5.448   6.079
11332WAT     H134238   8.795   5.481   6.030
11332WAT     H234239   8.707   5.349   6.067
11333WAT      O34240   8.346   8.301   2.115
11333WAT     H134241   8.329   8.227   2.179
11333WAT     H234242   8.263   8.355   2.102
11334WAT      O34243   7.052   4.930   1.867
11334WAT     H134244   7.081   4.855   1.926
11334WAT     H234245   6.971   4.973   1.906
11335WAT      O34246   9.371   5.839   6.539
11335WAT     H134247   9.401   5.920   6.489
11335WAT     H234248   9.300   5.865   6.604
11336WAT      O34249   7.620   7.501   1.049
11336WAT     H134250   7.528   7.463   1.053
11336WAT     H234251   7.642   7.544   1.137
11337WAT      O34252   0.272   9.102   0.308
11337WAT     H134253   0.290   9.195   0.340
11337WAT     H234254   0.358   9.051   0.303
11338WAT      O34255   0.816   0.421   7.229
11338WAT     H134256   0.848   0.397   7.321
11338WAT     H234257   0.769   0.509   7.232
11339WAT      O34258   5.701   3.475   4.492
11339WAT     H134259   5.746   3.549   4.542
11339WAT     H234260   5.769   3.426   4.437
11340WAT      O34261   1.557   5.765   7.867
11340WAT     H134262   1.487   5.831   7.841
11340WAT     H234263   1.569   5.768   7.967
11341WAT      O34264   4.825   5.244   8.813
11341WAT     H134265   4.908   5.265   8.762
11341WAT     H234266   4.820   5.146   8.832
11342WAT      O34267   5.608   2.705   8.254
11342WAT     H134268   5.672   2.765   8.303
11342WAT     H234269   5.631   2.704   8.157
11343WAT      O34270   8.297   8.838   2.169
11343WAT     H134271   8.386   8.797   2.191
11343WAT     H234272   8.312   8.921   2.115
11344WAT      O34273   9.656   5.027   5.055
11344WAT     H134274   9.592   4.986   5.119
11344WAT     H234275   9.713   5.094   5.102
11345WAT      O34276   9.204   7.508   2.944
11345WAT     H134277   9.184   7.583   2.881
11345WAT     H234278   9.301   7.513   2.970
11346WAT      O34279   9.781   5.223   5.760
11346WAT     H134280   9.842   5.177   5.697
11346WAT     H234281   9.829   5.241   5.846
11347WAT      O34282   4.087   3.266   1.602
11347WAT     H134283   4.092   3.293   1.506
11347WAT     H234284   4.168   3.213   1.627
11348WAT      O34285   4.611   7.557   4.395
11348WAT     H134286   4.580   7.612   4.472
11348WAT     H234287   4.640   7.617   4.320
11349WAT      O34288   0.187   6.553   2.007
11349WAT     H134289   0.220   6.580   2.097
11349WAT     H234290   0.145   6.462   2.013
11350WAT      O34291   7.760   5.186   0.200
11350WAT     H134292   7.821   5.188   0.280
11350WAT     H234293   7.749   5.091   0.169
11351WAT      O34294   8.174   7.194   5.645
11351WAT     H134295   8.214   7.110   5.608
11351WAT     H234296   8.176   7.266   5.575
11352WAT      O34297   6.237   6.570   6.149
11352WAT     H134298   6.205   6.475   6.146
11352WAT     H234299   6.209   6.612   6.235
11353WAT      O34300   4.156   3.252   0.500
11353WAT     H134301   4.118   3.183   0.561
11353WAT     H234302   4.142   3.224   0.405
11354WAT      O34303   0.436   2.100   3.168
11354WAT     H134304   0.442   2.013   3.217
11354WAT     H234305   0.341   2.119   3.144
11355WAT      O34306   8.092   8.465   7.194
11355WAT     H134307   8.015   8.528   7.181
11355WAT     H234308   8.058   8.378   7.231
11356WAT      O34309   2.643   6.248   6.249
11356WAT     H134310   2.612   6.276   6.158
11356WAT     H234311   2.565   6.211   6.301
11357WAT      O34312   7.340   2.357   3.448
11357WAT     H134313   7.391   2.334   3.364
11357WAT     H234314   7.271   2.287   3.464
11358WAT      O34315   3.511   3.513   5.664
11358WAT     H134316   3.587   3.464   5.707
11358WAT     H234317   3.548   3.578   5.598
11359WAT      O34318   4.798   0.309   7.425
11359WAT     H134319   4.757   0.294   7.336
11359WAT     H234320   4.770   0.398   7.460
11360WAT      O34321   0.526   1.643   7.267
11360WAT     H134322   0.479   1.730   7.285
11360WAT     H234323   0.613   1.662   7.221
11361WAT      O34324   4.240   3.667   2.801
11361WAT     H134325   4.219   3.755   2.759
11361WAT     H234326   4.337   3.646   2.786
11362WAT      O34327   9.798   7.755   9.192
11362WAT     H134328   9.724   7.694   9.164
11362WAT     H234329   9.873   7.750   9.126
11363WAT      O34330   5.635   2.477   8.395
11363WAT     H134331   5.649   2.557   8.336
11363WAT     H234332   5.538   2.455   8.400
11364WAT      O34333   3.637   7.482   7.383
11364WAT     H134334   3.555   7.443   7.424
11364WAT     H234335   3.632   7.582   7.386
11365WAT      O34336   0.779   9.747   1.120
11365WAT     H134337   0.777   9.846   1.133
11365WAT     H234338   0.738   9.723   1.032
11366WAT      O34339   0.458   4.329   7.113
11366WAT     H134340   0.408   4.288   7.037
11366WAT     H234341   0.516   4.260   7.156
11367WAT      O34342   4.101   1.800   8.351
11367WAT     H134343   4.135   1.806   8.445
11367WAT     H234344   4.085   1.704   8.328
11368WAT      O34345   8.444   1.901   3.300
11368WAT     H134346   8.475   1.858   3.216
11368WAT     H234347   8.481   1.994   3.306
11369WAT      O34348   3.253   1.606   3.990
11369WAT     H134349   3.232   1.676   3.922
11369WAT     H234350   3.260   1.648   4.080
11370WAT      O34351   4.472   7.618   2.953
11370WAT     H134352   4.498   7.620   2.857
11370WAT     H234353   4.540   7.568   3.005
11371WAT      O34354   8.077   4.324   0.643
11371WAT     H134355   8.060   4.420   0.664
11371WAT     H234356   8.000   4.269   0.673
11372WAT      O34357   6.977   8.325   6.641
11372WAT     H134358   6.885   8.361   6.624
11372WAT     H234359   6.976   8.225   6.631
11373WAT      O34360   8.923   9.794   7.049
11373WAT     H134361   8.965   9.736   6.979
11373WAT     H234362   8.961   9.771   7.139
11374WAT      O34363   8.912   9.466   2.913
11374WAT     H134364   8.947   9.396   2.851
11374WAT     H234365   8.977   9.480   2.988
11375WAT      O34366   5.438   9.137   1.646
11375WAT     H134367   5.475   9.053   1.685
11375WAT     H234368   5.487   9.215   1.683
11376WAT      O34369   1.490   7.437   3.774
11376WAT     H134370   1.573   7.482   3.808
11376WAT     H234371   1.473   7.354   3.827
11377WAT      O34372   9.875   8.268   3.120
11377WAT     H134373   9.867   8.187   3.178
11377WAT     H234374   9.797   8.272   3.057
11378WAT      O34375   6.342   2.649   0.206
11378WAT     H134376   6.280   2.653   0.128
11378WAT     H234377   6.311   2.713   0.276
11379WAT      O34378   4.637   8.772   1.191
11379WAT     H134379   4.644   8.684   1.238
11379WAT     H234380   4.709   8.833   1.224
11380WAT      O34381   4.613   1.563   6.754
11380WAT     H134382   4.640   1.538   6.847
11380WAT     H234383   4.638   1.659   6.737
11381WAT      O34384   3.172   3.942   7.330
11381WAT     H134385   3.216   3.985   7.409
11381WAT     H234386   3.241   3.927   7.259
11382WAT      O34387   7.753   6.952   9.237
11382WAT     H134388   7.763   6.908   9.148
11382WAT     H234389   7.657   6.978   9.251
11383WAT      O34390   4.206   0.796   1.926
11383WAT     H134391   4.169   0.761   2.012
11383WAT     H234392   4.297   0.758   1.911
11384WAT      O34393   4.406   1.615   3.624
11384WAT     H134394   4.310   1.606   3.653
11384WAT     H234395   4.436   1.709   3.638
11385WAT      O34396   6.626   5.766   2.011
11385WAT     H134397   6.710   5.789   2.059
11385WAT     H234398   6.646   5.754   1.913
11386WAT      O34399   9.577   8.073   3.638
11386WAT     H134400   9.614   7.982   3.657
11386WAT     H234401   9.652   8.134   3.612
11387WAT      O34402   1.002   2.294   5.102
11387WAT     H134403   0.983   2.209   5.150
11387WAT     H234404   0.938   2.365   5.133
11388WAT      O34405   9.049   3.418   4.924
11388WAT     H134406   9.118   3.378   4.985
11388WAT     H234407   8.960   3.416   4.969
11389WAT      O34408   8.385   8.357   7.360
11389WAT     H134409   8.430   8.446   7.356
11389WAT     H234410   8.367   8.324   7.267
11390WAT      O34411   9.609   5.006   5.805
11390WAT     H134412   9.627   4.949   5.724
11390WAT     H234413   9.658   5.092   5.796
11391WAT      O34414   8.354   3.878   0.643
11391WAT     H134415   8.298   3.958   0.665
11391WAT     H234416   8.334   3.804   0.706
11392WAT      O34417   7.719   5.122   8.592
11392WAT     H134418   7.728   5.197   8.527
11392WAT     H234419   7.790   5.130   8.662
11393WAT      O34420   0.600   4.973   3.370
11393WAT     H134421   0.510   5.013   3.350
11393WAT     H234422   0.653   5.038   3.424
11394WAT      O34423   0.836   7.896   8.213
11394WAT     H134424   0.924   7.926   8.250
11394WAT     H234425   0.791   7.836   8.280
11395WAT      O34426   3.155   3.237   4.751
11395WAT     H134427   3.074   3.186   4.781
11395WAT     H234428   3.202   3.275   4.830
11396WAT      O34429   1.906   6.122   6.729
11396WAT     H134430   2.003   6.139   6.741
11396WAT     H234431   1.886   6.026   6.748
11397WAT      O34432   0.494   9.818   9.723
11397WAT     H134433   0.480   9.799   9.821
11397WAT     H234434   0.411   9.796   9.672
11398WAT      O34435   7.894   7.800   2.586
11398WAT     H134436   7.812   7.753   2.553
11398WAT     H234437   7.969   7.784   2.522
11399WAT      O34438   9.365   4.111   3.449
11399WAT     H134439   9.282   4.124   3.504
11399WAT     H234440   9.418   4.196   3.448
11400WAT      O34441   1.154   3.243   5.099
11400WAT     H134442   1.229   3.299   5.065
11400WAT     H234443   1.175   3.146   5.083
11401WAT      O34444   2.828   9.638   4.443
11401WAT     H134445   2.845   9.685   4.530
11401WAT     H234446   2.900   9.664   4.378
11402WAT      O34447   4.498   7.766   7.391
11402WAT     H134448   4.497   7.752   7.292
11402WAT     H234449   4.475   7.861   7.411
11403WAT      O34450   3.921   9.467   8.014
11403WAT     H134451   3.827   9.485   8.042
11403WAT     H234452   3.949   9.534   7.946
11404WAT      O34453   9.275   8.121   4.186
11404WAT     H134454   9.336   8.149   4.112
11404WAT     H234455   9.328   8.082   4.261
11405WAT      O34456   0.268   6.000   7.068
11405WAT     H134457   0.187   5.988   7.012
11405WAT     H234458   0.300   5.910   7.100
11406WAT      O34459   7.792   6.023   8.808
11406WAT     H134460   7.883   6.062   8.818
11406WAT     H234461   7.762   5.987   8.896
11407WAT      O34462   2.758   7.542   0.443
11407WAT     H134463   2.684   7.558   0.378
11407WAT     H234464   2.752   7.608   0.518
11408WAT      O34465   7.593   1.173   0.071
11408WAT     H134466   7.540   1.093   0.097
11408WAT     H234467   7.554   1.214  -0.011
11409WAT      O34468   5.495   8.699   0.717
11409WAT     H134469   5.540   8.627   0.770
11409WAT     H234470   5.444   8.758   0.779
11410WAT      O34471   7.818   4.695   1.407
11410WAT     H134472   7.904   4.744   1.421
11410WAT     H234473   7.824   4.605   1.449
11411WAT      O34474   8.614   0.697   5.951
11411WAT     H134475   8.656   0.787   5.967
11411WAT     H234476   8.667   0.627   5.997
11412WAT      O34477   8.829   7.369   5.221
11412WAT     H134478   8.871   7.440   5.164
11412WAT     H234479   8.887   7.287   5.220
11413WAT      O34480   8.695   6.720   5.752
11413WAT     H134481   8.672   6.809   5.790
11413WAT     H234482   8.619   6.686   5.697
11414WAT      O34483   5.397   2.645   9.869
11414WAT     H134484   5.425   2.593   9.951
11414WAT     H234485   5.476   2.695   9.833
11415WAT      O34486   4.292   3.949   7.939
11415WAT     H134487   4.367   3.982   7.882
11415WAT     H234488   4.295   3.995   8.028
11416WAT      O34489   0.534   1.887   5.805
11416WAT     H134490   0.535   1.825   5.884
11416WAT     H234491   0.615   1.871   5.748
11417WAT      O34492   9.279   1.928   5.005
11417WAT     H134493   9.254   1.991   5.077
11417WAT     H234494   9.223   1.846   5.011
11418WAT      O34495   5.104   0.473   1.788
11418WAT     H134496   5.086   0.411   1.864
11418WAT     H234497   5.022   0.525   1.767
11419WAT      O34498   9.578   9.462   3.972
11419WAT     H134499   9.658   9.516   3.948
11419WAT     H234500   9.517   9.516   4.030
11420WAT      O34501   9.829   6.405   1.813
11420WAT     H134502   9.754   6.412   1.879
11420WAT     H234503   9.792   6.407   1.720
11421WAT      O34504   2.848   8.141   7.929
11421WAT     H134505   2.785   8.068   7.902
11421WAT     H234506   2.822   8.226   7.885
11422WAT      O34507   6.506   2.810   1.513
11422WAT     H134508   6.425   2.807   1.572
11422WAT     H234509   6.496   2.885   1.447
11423WAT      O34510   7.031   3.579   1.342
11423WAT     H134511   6.963   3.541   1.405
11423WAT     H234512   6.985   3.615   1.261
11424WAT      O34513   3.801   9.747   3.164
11424WAT     H134514   3.824   9.674   3.228
11424WAT     H234515   3.734   9.809   3.205
11425WAT      O34516   2.600   5.278   4.642
11425WAT     H134517   2.585   5.179   4.640
11425WAT     H234518   2.688   5.300   4.599
11426WAT      O34519   4.257   2.454   8.517
11426WAT     H134520   4.338   2.456   8.575
11426WAT     H234521   4.266   2.381   8.449
11427WAT      O34522   1.640   3.649   6.086
11427WAT     H134523   1.580   3.595   6.028
11427WAT     H234524   1.650   3.604   6.175
11428WAT      O34525   0.096   2.449   4.808
11428WAT     H134526   0.028   2.444   4.881
11428WAT     H234527   0.136   2.359   4.792
11429WAT      O34528   6.385   5.427   9.162
11429WAT     H134529   6.357   5.392   9.072
11429WAT     H234530   6.312   5.409   9.228
11430WAT      O34531   9.269   9.828   8.652
11430WAT     H134532   9.252   9.926   8.639
11430WAT     H234533   9.277   9.808   8.749
11431WAT      O34534   1.421   7.247   5.118
11431WAT     H134535   1.456   7.158   5.146
11431WAT     H234536   1.433   7.258   5.019
11432WAT      O34537   0.280   7.843   7.827
11432WAT     H134538   0.260   7.823   7.731
11432WAT     H234539   0.371   7.808   7.850
11433WAT      O34540   1.253   1.592   3.392
11433WAT     H134541   1.163   1.550   3.380
11433WAT     H234542   1.294   1.607   3.302
11434WAT      O34543   1.872   7.360   6.114
11434WAT     H134544   1.939   7.291   6.142
11434WAT     H234545   1.857   7.424   6.190
11435WAT      O34546   1.247   5.831   0.900
11435WAT     H134547   1.238   5.856   0.804
11435WAT     H234548   1.344   5.818   0.923
11436WAT      O34549   7.867   0.643   7.200
11436WAT     H134550   7.841   0.663   7.105
11436WAT     H234551   7.919   0.558   7.203
11437WAT      O34552   4.337   9.634   8.383
11437WAT     H134553   4.414   9.698   8.384
11437WAT     H234554   4.256   9.680   8.419
11438WAT      O34555   9.035   0.006   3.324
11438WAT     H134556   8.958   0.068   3.343
11438WAT     H234557   9.115   0.036   3.376
11439WAT      O34558   8.324   1.194   0.503
11439WAT     H134559   8.353   1.263   0.438
11439WAT     H234560   8.224   1.188   0.503
11440WAT      O34561   3.157   3.613   3.113
11440WAT     H134562   3.243   3.563   3.112
11440WAT     H234563   3.157   3.681   3.039
11441WAT      O34564   0.979   2.705   0.612
11441WAT     H134565   0.965   2.653   0.528
11441WAT     H234566   0.894   2.753   0.637
11442WAT      O34567   4.301   9.518   4.393
11442WAT     H134568   4.326   9.455   4.320
11442WAT     H234569   4.223   9.481   4.444
11443WAT      O34570   9.562   7.850   4.561
11443WAT     H134571   9.599   7.792   4.633
11443WAT     H234572   9.632   7.868   4.492
11444WAT      O34573   2.969   7.220   3.955
11444WAT     H134574   2.932   7.131   3.928
11444WAT     H234575   2.948   7.287   3.883
11445WAT      O34576   8.600   3.631   8.093
11445WAT     H134577   8.516   3.619   8.147
11445WAT     H234578   8.653   3.707   8.131
11446WAT      O34579   5.393   6.914   8.137
11446WAT     H134580   5.372   6.816   8.137
11446WAT     H234581   5.403   6.945   8.042
11447WAT      O34582   9.273   2.766   8.536
11447WAT     H134583   9.243   2.860   8.554
11447WAT     H234584   9.342   2.739   8.603
11448WAT      O34585   0.873   4.959   3.675
11448WAT     H134586   0.868   5.058   3.687
11448WAT     H234587   0.782   4.924   3.654
11449WAT      O34588   3.145   6.967   2.067
11449WAT     H134589   3.087   6.993   1.990
11449WAT     H234590   3.236   7.007   2.055
11450WAT      O34591   4.060   8.252   3.451
11450WAT     H134592   4.030   8.347   3.453
11450WAT     H234593   4.070   8.221   3.357
11451WAT      O34594   7.299   6.359   1.383
11451WAT     H134595   7.294   6.259   1.393
11451WAT     H234596   7.302   6.383   1.287
11452WAT      O34597   6.054   3.659   3.145
11452WAT     H134598   5.959   3.680   3.121
11452WAT     H234599   6.090   3.732   3.203
11453WAT      O34600   2.661   1.229   6.241
11453WAT     H134601   2.613   1.212   6.155
11453WAT     H234602   2.732   1.161   6.254
11454WAT      O34603   4.531   6.639   1.148
11454WAT     H134604   4.602   6.576   1.117
11454WAT     H234605   4.478   6.595   1.221
11455WAT      O34606   1.525   4.713   3.343
11455WAT     H134607   1.613   4.700   3.298
11455WAT     H234608   1.532   4.686   3.439
11456WAT      O34609   2.471   4.066   4.425
11456WAT     H134610   2.568   4.039   4.429
11456WAT     H234611   2.465   4.160   4.392
11457WAT      O34612   2.219   8.989   7.850
11457WAT     H134613   2.162   9.047   7.791
11457WAT     H234614   2.233   8.901   7.805
11458WAT      O34615   3.715   2.703   2.294
11458WAT     H134616   3.631   2.713   2.348
11458WAT     H234617   3.794   2.699   2.355
11459WAT      O34618   8.427   8.049   2.902
11459WAT     H134619   8.349   8.001   2.943
11459WAT     H234620   8.504   8.048   2.966
11460WAT      O34621   2.008   7.868   5.774
11460WAT     H134622   1.985   7.841   5.680
11460WAT     H234623   2.070   7.946   5.773
11461WAT      O34624   6.003   6.972   3.609
11461WAT     H134625   6.077   6.906   3.620
11461WAT     H234626   5.916   6.931   3.638
11462WAT      O34627   5.574   0.817   2.136
11462WAT     H134628   5.605   0.729   2.101
11462WAT     H234629   5.631   0.890   2.098
11463WAT      O34630   8.346   8.086   8.280
11463WAT     H134631   8.365   8.110   8.376
11463WAT     H234632   8.248   8.075   8.268
11464WAT      O34633   2.508   5.145   0.263
11464WAT     H134634   2.529   5.194   0.178
11464WAT     H234635   2.593   5.112   0.304
11465WAT      O34636   7.314   0.359   3.285
11465WAT     H134637   7.260   0.435   3.249
11465WAT     H234638   7.411   0.375   3.263
11466WAT      O34639   0.433   6.678   3.867
11466WAT     H134640   0.525   6.686   3.905
11466WAT     H234641   0.411   6.581   3.854
11467WAT      O34642   3.907   9.282   1.778
11467WAT     H134643   3.988   9.223   1.780
11467WAT     H234644   3.869   9.283   1.686
11468WAT      O34645   8.265   1.429   6.385
11468WAT     H134646   8.186   1.461   6.332
11468WAT     H234647   8.348   1.434   6.328
11469WAT      O34648   9.239   9.617   7.227
11469WAT     H134649   9.186   9.539   7.195
11469WAT     H234650   9.336   9.601   7.209
11470WAT      O34651   3.934   7.149   2.812
11470WAT     H134652   3.957   7.089   2.735
11470WAT     H234653   3.838   7.135   2.837
11471WAT      O34654   2.559   1.111   1.985
11471WAT     H134655   2.549   1.097   1.886
11471WAT     H234656   2.622   1.187   2.002
11472WAT      O34657   0.223   0.175   6.987
11472WAT     H134658   0.156   0.248   6.995
11472WAT     H234659   0.253   0.167   6.892
11473WAT      O34660   3.043   7.120   1.629
11473WAT     H134661   2.961   7.082   1.588
11473WAT     H234662   3.046   7.218   1.614
11474WAT      O34663   4.163   8.795   7.963
11474WAT     H134664   4.131   8.714   7.914
11474WAT     H234665   4.088   8.860   7.973
11475WAT      O34666   1.059   5.339   6.823
11475WAT     H134667   1.096   5.380   6.907
11475WAT     H234668   1.020   5.411   6.766
11476WAT      O34669   9.739   0.207   0.498
11476WAT     H134670   9.711   0.299   0.527
11476WAT     H234671   9.665   0.143   0.516
11477WAT      O34672   1.210   1.090   2.036
11477WAT     H134673   1.185   1.014   1.975
11477WAT     H234674   1.128   1.141   2.061
11478WAT      O34675   7.671   7.758   5.357
11478WAT     H134676   7.640   7.768   5.262
11478WAT     H234677   7.771   7.768   5.360
11479WAT      O34678   6.653   9.477   2.916
11479WAT     H134679   6.580   9.455   2.981
11479WAT     H234680   6.623   9.453   2.823
11480WAT      O34681   2.234   5.701   9.845
11480WAT     H134682   2.138   5.679   9.827
11480WAT     H234683   2.243   5.735   9.939
11481WAT      O34684   3.867   2.347   4.365
11481WAT     H134685   3.891   2.389   4.278
11481WAT     H234686   3.906   2.255   4.370
11482WAT      O34687   1.167   3.669   2.392
11482WAT     H134688   1.191   3.710   2.304
11482WAT     H234689   1.068   3.655   2.397
11483WAT      O34690   6.761   2.123   4.729
11483WAT     H134691   6.833   2.054   4.725
11483WAT     H234692   6.751   2.166   4.639
11484WAT      O34693   0.926   3.677   9.029
11484WAT     H134694   1.015   3.644   8.997
11484WAT     H234695   0.855   3.614   9.000
11485WAT      O34696   0.018   5.991   3.989
11485WAT     H134697   0.089   5.944   3.935
11485WAT     H234698  -0.031   5.923   4.045
11486WAT      O34699   2.108   2.545   1.408
11486WAT     H134700   2.067   2.629   1.372
11486WAT     H234701   2.168   2.505   1.339
11487WAT      O34702   2.901   0.122   2.308
11487WAT     H134703   2.902   0.144   2.211
11487WAT     H234704   2.979   0.164   2.353
11488WAT      O34705   5.046   2.352   2.870
11488WAT     H134706   5.037   2.414   2.792
11488WAT     H234707   5.025   2.259   2.841
11489WAT      O34708   5.826   8.847   1.581
11489WAT     H134709   5.849   8.837   1.484
11489WAT     H234710   5.737   8.805   1.599
11490WAT      O34711   7.716   5.191   1.877
11490WAT     H134712   7.738   5.193   1.780
11490WAT     H234713   7.793   5.151   1.928
11491WAT      O34714   6.599   3.888   2.755
11491WAT     H134715   6.561   3.930   2.672
11491WAT     H234716   6.649   3.957   2.808
11492WAT      O34717   3.046   1.290   6.784
11492WAT     H134718   3.013   1.348   6.710
11492WAT     H234719   3.068   1.199   6.748
11493WAT      O34720   6.252   6.427   7.928
11493WAT     H134721   6.271   6.506   7.871
11493WAT     H234722   6.329   6.363   7.926
11494WAT      O34723   8.806   1.673   4.872
11494WAT     H134724   8.865   1.699   4.948
11494WAT     H234725   8.859   1.671   4.788
11495WAT      O34726   5.353   2.766   1.999
11495WAT     H134727   5.319   2.764   2.093
11495WAT     H234728   5.279   2.744   1.936
11496WAT      O34729   8.165   8.772   4.958
11496WAT     H134730   8.203   8.680   4.952
11496WAT     H234731   8.240   8.838   4.965
11497WAT      O34732   6.947   7.320   0.987
11497WAT     H134733   7.018   7.305   0.918
11497WAT     H234734   6.877   7.249   0.979
11498WAT      O34735   6.346   1.067   0.281
11498WAT     H134736   6.396   1.044   0.198
11498WAT     H234737   6.302   0.984   0.317
11499WAT      O34738   7.489   6.541   6.074
11499WAT     H134739   7.472   6.487   6.157
11499WAT     H234740   7.502   6.480   5.996
11500WAT      O34741   6.371   3.327   8.021
11500WAT     H134742   6.280   3.310   8.060
11500WAT     H234743   6.399   3.249   7.966
11501WAT      O34744   1.334   5.734   6.414
11501WAT     H134745   1.357   5.786   6.496
11501WAT     H234746   1.323   5.637   6.438
11502WAT      O34747   6.826   5.166   5.768
11502WAT     H134748   6.863   5.155   5.861
11502WAT     H234749   6.870   5.101   5.707
11503WAT      O34750   6.470   9.205   4.060
11503WAT     H134751   6.487   9.303   4.046
11503WAT     H234752   6.428   9.167   3.977
11504WAT      O34753   1.718   0.655   2.716
11504WAT     H134754   1.656   0.605   2.776
11504WAT     H234755   1.809   0.613   2.721
11505WAT      O34756   0.716   5.400   6.589
11505WAT     H134757   0.679   5.428   6.500
11505WAT     H234758   0.796   5.456   6.611
11506WAT      O34759   2.424   2.291   3.978
11506WAT     H134760   2.362   2.323   3.906
11506WAT     H234761   2.375   2.287   4.065
11507WAT      O34762   1.267   1.665   0.934
11507WAT     H134763   1.177   1.633   0.963
11507WAT     H234764   1.310   1.595   0.877
11508WAT      O34765   4.799   6.099   1.600
11508WAT     H134766   4.799   6.001   1.618
11508WAT     H234767   4.885   6.139   1.633
11509WAT      O34768   7.427   2.305   7.172
11509WAT     H134769   7.522   2.290   7.202
11509WAT     H234770   7.427   2.334   7.076
11510WAT      O34771   4.553  -0.004   5.268
11510WAT     H134772   4.570   0.094   5.259
11510WAT     H234773   4.524  -0.025   5.361
11511WAT      O34774   3.055   5.483   1.101
11511WAT     H134775   3.097   5.569   1.128
11511WAT     H234776   3.025   5.433   1.183
11512WAT      O34777   3.466   5.591   6.768
11512WAT     H134778   3.546   5.651   6.759
11512WAT     H234779   3.397   5.636   6.825
11513WAT      O34780   1.674   7.997   6.301
11513WAT     H134781   1.597   8.003   6.237
11513WAT     H234782   1.702   7.902   6.310
11514WAT      O34783   7.939   9.481   6.912
11514WAT     H134784   8.023   9.510   6.958
11514WAT     H234785   7.906   9.555   6.853
11515WAT      O34786   4.729   1.485   9.558
11515WAT     H134787   4.822   1.517   9.541
11515WAT     H234788   4.706   1.497   9.654
11516WAT      O34789   0.373   2.178   4.749
11516WAT     H134790   0.319   2.254   4.713
11516WAT     H234791   0.315   2.121   4.807
11517WAT      O34792   1.776   1.485   6.154
11517WAT     H134793   1.725   1.483   6.240
11517WAT     H234794   1.761   1.399   6.104
11518WAT      O34795   3.842   1.451   5.090
11518WAT     H134796   3.787   1.523   5.132
11518WAT     H234797   3.936   1.456   5.124
11519WAT      O34798   9.825   4.202   0.950
11519WAT     H134799   9.892   4.165   1.015
11519WAT     H234800   9.737   4.213   0.996
11520WAT      O34801   6.504   2.388   3.043
11520WAT     H134802   6.527   2.369   3.138
11520WAT     H234803   6.559   2.465   3.009
11521WAT      O34804   2.451   4.477   0.323
11521WAT     H134805   2.505   4.558   0.299
11521WAT     H234806   2.441   4.418   0.243
11522WAT      O34807   7.825   7.064   4.352
11522WAT     H134808   7.741   7.117   4.338
11522WAT     H234809   7.802   6.971   4.381
11523WAT      O34810   9.869   1.416   1.913
11523WAT     H134811   9.886   1.427   2.011
11523WAT     H234812   9.942   1.461   1.861
11524WAT      O34813   7.762   0.440   2.703
11524WAT     H134814   7.859   0.426   2.689
11524WAT     H234815   7.714   0.352   2.700
11525WAT      O34816   1.487   6.856   3.388
11525WAT     H134817   1.580   6.821   3.393
11525WAT     H234818   1.434   6.820   3.465
11526WAT      O34819   6.037   4.717   7.347
11526WAT     H134820   5.964   4.650   7.360
11526WAT     H234821   6.070   4.748   7.436
11527WAT      O34822   6.512   1.454   5.437
11527WAT     H134823   6.457   1.519   5.383
11527WAT     H234824   6.470   1.364   5.431
11528WAT      O34825   6.675   5.450   2.714
11528WAT     H134826   6.678   5.394   2.631
11528WAT     H234827   6.727   5.534   2.698
11529WAT      O34828   0.565   5.865   8.909
11529WAT     H134829   0.563   5.888   8.811
11529WAT     H234830   0.526   5.941   8.961
11530WAT      O34831   3.803   8.781   8.227
11530WAT     H134832   3.891   8.819   8.197
11530WAT     H234833   3.811   8.682   8.235
11531WAT      O34834   0.342   3.044   4.300
11531WAT     H134835   0.411   2.972   4.302
11531WAT     H234836   0.333   3.083   4.391
11532WAT      O34837   0.581   6.988   4.040
11532WAT     H134838   0.665   7.040   4.055
11532WAT     H234839   0.604   6.895   4.013
11533WAT      O34840   5.324   3.795   3.348
11533WAT     H134841   5.297   3.728   3.279
11533WAT     H234842   5.319   3.887   3.308
11534WAT      O34843   7.013   4.675   9.882
11534WAT     H134844   7.007   4.677   9.782
11534WAT     H234845   7.084   4.611   9.910
11535WAT      O34846   1.244   6.710   1.456
11535WAT     H134847   1.263   6.620   1.497
11535WAT     H234848   1.329   6.750   1.423
11536WAT      O34849   1.310   9.529   4.363
11536WAT     H134850   1.335   9.532   4.460
11536WAT     H234851   1.376   9.583   4.310
11537WAT      O34852   8.524   5.196   4.979
11537WAT     H134853   8.555   5.110   5.019
11537WAT     H234854   8.488   5.179   4.887
11538WAT      O34855   4.254   6.460   7.377
11538WAT     H134856   4.264   6.486   7.473
11538WAT     H234857   4.232   6.542   7.323
11539WAT      O34858   4.724   8.289   9.378
11539WAT     H134859   4.807   8.306   9.325
11539WAT     H234860   4.725   8.195   9.412
11540WAT      O34861   7.648   5.633   0.361
11540WAT     H134862   7.685   5.541   0.352
11540WAT     H234863   7.598   5.657   0.278
11541WAT      O34864   6.013   7.409   3.013
11541WAT     H134865   5.977   7.335   3.069
11541WAT     H234866   5.953   7.489   3.020
11542WAT      O34867   8.105   0.827   0.669
11542WAT     H134868   8.202   0.842   0.688
11542WAT     H234869   8.097   0.758   0.596
11543WAT      O34870   0.814   2.318   8.838
11543WAT     H134871   0.746   2.247   8.820
11543WAT     H234872   0.767   2.403   8.863
11544WAT      O34873   3.027   6.209   9.150
11544WAT     H134874   3.058   6.289   9.202
11544WAT     H234875   2.938   6.180   9.183
11545WAT      O34876   1.647   2.968   4.863
11545WAT     H134877   1.734   2.964   4.913
11545WAT     H234878   1.659   3.026   4.782
11546WAT      O34879   7.238   2.811   2.492
11546WAT     H134880   7.211   2.861   2.575
11546WAT     H234881   7.283   2.726   2.518
11547WAT      O34882   7.769   8.006   6.610
11547WAT     H134883   7.675   8.027   6.636
11547WAT     H234884   7.775   7.995   6.511
11548WAT      O34885   7.644   6.579   8.100
11548WAT     H134886   7.737   6.544   8.109
11548WAT     H234887   7.613   6.615   8.189
11549WAT      O34888   1.654   0.054   6.795
11549WAT     H134889   1.579   0.078   6.733
11549WAT     H234890   1.710   0.135   6.812
11550WAT      O34891   7.040   3.041   8.722
11550WAT     H134892   7.064   3.011   8.814
11550WAT     H234893   7.103   2.999   8.656
11551WAT      O34894   0.793   5.841   4.495
11551WAT     H134895   0.876   5.894   4.509
11551WAT     H234896   0.715   5.903   4.489
11552WAT      O34897   0.887   0.144   9.048
11552WAT     H134898   0.947   0.078   9.004
11552WAT     H234899   0.832   0.098   9.118
11553WAT      O34900   3.681   5.793   9.122
11553WAT     H134901   3.771   5.833   9.105
11553WAT     H234902   3.692   5.714   9.184
11554WAT      O34903   9.459   8.593   5.260
11554WAT     H134904   9.423   8.685   5.277
11554WAT     H234905   9.478   8.582   5.163
11555WAT      O34906   6.452   1.199   3.660
11555WAT     H134907   6.434   1.297   3.655
11555WAT     H234908   6.377   1.154   3.708
11556WAT      O34909   9.432   5.763   9.176
11556WAT     H134910   9.417   5.744   9.079
11556WAT     H234911   9.492   5.693   9.214
11557WAT      O34912   7.160   6.130   6.804
11557WAT     H134913   7.085   6.072   6.836
11557WAT     H234914   7.127   6.192   6.733
11558WAT      O34915   3.567   9.495   6.554
11558WAT     H134916   3.598   9.562   6.487
11558WAT     H234917   3.499   9.435   6.512
11559WAT      O34918   3.776   7.504   5.126
11559WAT     H134919   3.740   7.501   5.219
11559WAT     H234920   3.874   7.480   5.127
11560WAT      O34921   4.214   4.241   9.413
11560WAT     H134922   4.171   4.216   9.500
11560WAT     H234923   4.294   4.183   9.398
11561WAT      O34924   4.293   2.034   9.344
11561WAT     H134925   4.222   2.031   9.273
11561WAT     H234926   4.366   2.097   9.316
11562WAT      O34927   2.683   3.343   2.739
11562WAT     H134928   2.595   3.320   2.697
11562WAT     H234929   2.719   3.427   2.697
11563WAT      O34930   6.725   4.291   5.572
11563WAT     H134931   6.680   4.324   5.489
11563WAT     H234932   6.715   4.192   5.578
11564WAT      O34933   5.853   0.752   4.687
11564WAT     H134934   5.893   0.683   4.747
11564WAT     H234935   5.916   0.828   4.675
11565WAT      O34936   8.769   9.592   2.563
11565WAT     H134937   8.868   9.599   2.548
11565WAT     H234938   8.742   9.496   2.558
11566WAT      O34939   7.530   8.608   0.826
11566WAT     H134940   7.626   8.630   0.812
11566WAT     H234941   7.475   8.691   0.827
11567WAT      O34942   3.062   9.573   3.314
11567WAT     H134943   3.005   9.595   3.235
11567WAT     H234944   3.158   9.570   3.286
11568WAT      O34945   3.321   4.243   7.903
11568WAT     H134946   3.382   4.233   7.824
11568WAT     H234947   3.228   4.262   7.871
11569WAT      O34948   8.410   2.839   8.096
11569WAT     H134949   8.422   2.749   8.136
11569WAT     H234950   8.353   2.896   8.156
11570WAT      O34951   4.296   7.302   1.370
11570WAT     H134952   4.280   7.281   1.274
11570WAT     H234953   4.391   7.279   1.394
11571WAT      O34954   4.156   8.901   5.192
11571WAT     H134955   4.172   8.998   5.171
11571WAT     H234956   4.218   8.845   5.137
11572WAT      O34957   6.957   6.647   7.001
11572WAT     H134958   7.033   6.702   7.035
11572WAT     H234959   6.981   6.608   6.912
11573WAT      O34960   4.697   7.364   1.288
11573WAT     H134961   4.704   7.415   1.202
11573WAT     H234962   4.767   7.397   1.351
11574WAT      O34963   7.986   8.369   8.250
11574WAT     H134964   7.886   8.369   8.250
11574WAT     H234965   8.019   8.463   8.259
11575WAT      O34966   4.639   9.689   7.672
11575WAT     H134967   4.699   9.647   7.604
11575WAT     H234968   4.546   9.694   7.635
11576WAT      O34969   1.846   3.831   0.888
11576WAT     H134970   1.886   3.758   0.944
11576WAT     H234971   1.790   3.791   0.816
11577WAT      O34972   8.860   4.194   3.210
11577WAT     H134973   8.928   4.236   3.271
11577WAT     H234974   8.905   4.164   3.126
11578WAT      O34975   2.381   6.472   7.837
11578WAT     H134976   2.416   6.565   7.834
11578WAT     H234977   2.437   6.413   7.779
11579WAT      O34978   5.417   7.420   1.197
11579WAT     H134979   5.394   7.513   1.167
11579WAT     H234980   5.335   7.374   1.230
11580WAT      O34981   3.119   6.373   8.056
11580WAT     H134982   3.115   6.386   8.155
11580WAT     H234983   3.124   6.276   8.035
11581WAT      O34984   2.337   5.222   1.907
11581WAT     H134985   2.427   5.179   1.922
11581WAT     H234986   2.332   5.307   1.960
11582WAT      O34987   1.312   7.165   6.074
11582WAT     H134988   1.278   7.102   6.143
11582WAT     H234989   1.329   7.115   5.989
11583WAT      O34990   8.911   3.987   7.863
11583WAT     H134991   8.973   4.012   7.788
11583WAT     H234992   8.956   4.005   7.951
11584WAT      O34993   4.330   9.215   7.403
11584WAT     H134994   4.317   9.116   7.401
11584WAT     H234995   4.258   9.259   7.350
11585WAT      O34996   3.523   9.641   0.044
11585WAT     H134997   3.544   9.554   0.001
11585WAT     H234998   3.577   9.651   0.128
11586WAT      O34999   6.731   5.438   8.747
11586WAT     H135000   6.779   5.479   8.669
11586WAT     H235001   6.712   5.341   8.727
11587WAT      O35002   6.850   7.384   0.393
11587WAT     H135003   6.805   7.426   0.471
11587WAT     H235004   6.949   7.387   0.406
11588WAT      O35005   7.585   2.020   8.903
11588WAT     H135006   7.609   1.957   8.829
11588WAT     H235007   7.538   1.969   8.976
11589WAT      O35008   0.176   2.529   6.359
11589WAT     H135009   0.217   2.565   6.443
11589WAT     H235010   0.076   2.539   6.363
11590WAT      O35011   8.851   3.886   4.387
11590WAT     H135012   8.883   3.791   4.383
11590WAT     H235013   8.787   3.896   4.464
11591WAT      O35014   9.227   1.680   6.659
11591WAT     H135015   9.133   1.665   6.688
11591WAT     H235016   9.278   1.727   6.731
11592WAT      O35017   9.880   0.548   1.549
11592WAT     H135018   9.825   0.624   1.516
11592WAT     H235019   9.852   0.524   1.643
11593WAT      O35020   7.117   1.088   6.291
11593WAT     H135021   7.031   1.126   6.323
11593WAT     H235022   7.122   1.097   6.191
11594WAT      O35023   6.496   2.577   9.710
11594WAT     H135024   6.532   2.570   9.802
11594WAT     H235025   6.570   2.571   9.643
11595WAT      O35026   9.034   4.496   5.757
11595WAT     H135027   8.995   4.517   5.847
11595WAT     H235028   9.007   4.404   5.730
11596WAT      O35029   5.166   1.358   7.226
11596WAT     H135030   5.186   1.280   7.166
11596WAT     H235031   5.072   1.351   7.260
11597WAT      O35032   3.353   0.568   2.146
11597WAT     H135033   3.364   0.550   2.048
11597WAT     H235034   3.404   0.650   2.171
11598WAT      O35035   3.522   4.552   7.312
11598WAT     H135036   3.521   4.452   7.323
11598WAT     H235037   3.504   4.576   7.217
11599WAT      O35038   4.734   4.545   5.281
11599WAT     H135039   4.713   4.490   5.200
11599WAT     H235040   4.667   4.526   5.352
11600WAT      O35041   0.126   3.265   5.042
11600WAT     H135042   0.144   3.218   5.128
11600WAT     H235043   0.190   3.342   5.033
11601WAT      O35044   5.074   6.806   0.002
11601WAT     H135045   5.086   6.720   0.052
11601WAT     H235046   5.069   6.882   0.068
11602WAT      O35047   5.826   3.109   4.490
11602WAT     H135048   5.823   3.170   4.411
11602WAT     H235049   5.756   3.039   4.482
11603WAT      O35050   8.326   2.908   2.182
11603WAT     H135051   8.411   2.943   2.143
11603WAT     H235052   8.287   2.976   2.244
11604WAT      O35053   5.270   7.453   3.142
11604WAT     H135054   5.366   7.423   3.147
11604WAT     H235055   5.215   7.380   3.101
11605WAT      O35056   7.951   9.707   9.001
11605WAT     H135057   8.034   9.651   9.009
11605WAT     H235058   7.928   9.718   8.904
11606WAT      O35059   9.607   8.908   6.129
11606WAT     H135060   9.508   8.911   6.143
11606WAT     H235061   9.637   8.993   6.086
11607WAT      O35062   7.063   6.770   1.521
11607WAT     H135063   7.014   6.712   1.587
11607WAT     H235064   7.148   6.726   1.494
11608WAT      O35065   9.159   8.307   3.529
11608WAT     H135066   9.220   8.287   3.605
11608WAT     H235067   9.119   8.222   3.494
11609WAT      O35068   4.703   1.504   9.265
11609WAT     H135069   4.681   1.504   9.362
11609WAT     H235070   4.770   1.576   9.246
11610WAT      O35071   7.383   3.418   5.500
11610WAT     H135072   7.459   3.451   5.445
11610WAT     H235073   7.383   3.466   5.588
11611WAT      O35074   3.794   5.319   9.116
11611WAT     H135075   3.706   5.363   9.098
11611WAT     H235076   3.868   5.377   9.082
11612WAT      O35077   9.194   8.090   0.708
11612WAT     H135078   9.271   8.147   0.678
11612WAT     H235079   9.225   7.995   0.717
11613WAT      O35080   9.397   5.440   3.311
11613WAT     H135081   9.431   5.482   3.396
11613WAT     H235082   9.371   5.513   3.247
11614WAT      O35083   7.650   6.206   0.149
11614WAT     H135084   7.728   6.257   0.186
11614WAT     H235085   7.604   6.262   0.080
11615WAT      O35086   8.901   0.687   3.020
11615WAT     H135087   8.856   0.773   3.043
11615WAT     H235088   8.838   0.630   2.966
11616WAT      O35089   5.913   9.750   2.871
11616WAT     H135090   5.828   9.799   2.853
11616WAT     H235091   5.963   9.796   2.944
11617WAT      O35092   1.494   1.319   6.168
11617WAT     H135093   1.537   1.294   6.081
11617WAT     H235094   1.483   1.238   6.224
11618WAT      O35095   7.485   0.629   4.139
11618WAT     H135096   7.511   0.568   4.213
11618WAT     H235097   7.390   0.658   4.152
11619WAT      O35098   7.122   8.453   3.979
11619WAT     H135099   7.093   8.546   3.954
11619WAT     H235100   7.151   8.404   3.898
11620WAT      O35101   0.337   6.872   4.086
11620WAT     H135102   0.410   6.939   4.074
11620WAT     H235103   0.364   6.785   4.047
11621WAT      O35104   8.944   1.960   2.631
11621WAT     H135105   8.981   2.016   2.557
11621WAT     H235106   8.900   2.019   2.699
11622WAT      O35107   2.582   3.002   1.981
11622WAT     H135108   2.675   2.999   2.017
11622WAT     H235109   2.586   3.009   1.881
11623WAT      O35110   6.025   4.970   8.378
11623WAT     H135111   6.083   4.890   8.393
11623WAT     H235112   5.982   4.963   8.288
11624WAT      O35113   3.339   6.531   7.994
11624WAT     H135114   3.264   6.467   8.007
11624WAT     H235115   3.390   6.542   8.080
11625WAT      O35116   9.582   1.526   0.757
11625WAT     H135117   9.575   1.624   0.738
11625WAT     H235118   9.629   1.512   0.844
11626WAT      O35119   3.138   8.249   8.182
11626WAT     H135120   3.063   8.206   8.231
11626WAT     H235121   3.106   8.334   8.140
11627WAT      O35122   6.826   3.408   8.348
11627WAT     H135123   6.836   3.312   8.375
11627WAT     H235124   6.748   3.418   8.287
11628WAT      O35125   5.172   5.755   1.684
11628WAT     H135126   5.110   5.747   1.762
11628WAT     H235127   5.120   5.747   1.599
11629WAT      O35128   0.664   5.164   2.726
11629WAT     H135129   0.703   5.086   2.776
11629WAT     H235130   0.605   5.129   2.653
11630WAT      O35131   0.445   9.461   1.572
11630WAT     H135132   0.427   9.400   1.495
11630WAT     H235133   0.410   9.420   1.656
11631WAT      O35134   0.488   6.723   0.774
11631WAT     H135135   0.503   6.809   0.824
11631WAT     H235136   0.394   6.719   0.742
11632WAT      O35137   0.471   1.000   6.284
11632WAT     H135138   0.539   1.072   6.298
11632WAT     H235139   0.470   0.973   6.187
11633WAT      O35140   4.258   4.801   8.318
11633WAT     H135141   4.325   4.874   8.336
11633WAT     H235142   4.290   4.745   8.242
11634WAT      O35143   6.144   0.360   1.309
11634WAT     H135144   6.163   0.295   1.382
11634WAT     H235145   6.129   0.311   1.224
11635WAT      O35146   8.531   1.406   8.342
11635WAT     H135147   8.595   1.475   8.375
11635WAT     H235148   8.452   1.451   8.299
11636WAT      O35149   8.571   5.820   3.517
11636WAT     H135150   8.622   5.757   3.575
11636WAT     H235151   8.540   5.898   3.572
11637WAT      O35152   7.885   1.661   4.590
11637WAT     H135153   7.802   1.625   4.632
11637WAT     H235154   7.919   1.595   4.522
11638WAT      O35155   9.131   8.844   4.453
11638WAT     H135156   9.045   8.800   4.428
11638WAT     H235157   9.184   8.863   4.370
11639WAT      O35158   1.778   8.903   8.869
11639WAT     H135159   1.782   8.875   8.965
11639WAT     H235160   1.713   8.979   8.860
11640WAT      O35161   6.724   1.010   6.222
11640WAT     H135162   6.691   0.929   6.270
11640WAT     H235163   6.663   1.087   6.242
11641WAT      O35164   6.740   3.525   5.416
11641WAT     H135165   6.796   3.495   5.494
11641WAT     H235166   6.745   3.456   5.344
11642WAT      O35167   6.926   3.858   7.222
11642WAT     H135168   6.936   3.925   7.148
11642WAT     H235169   6.845   3.880   7.277
11643WAT      O35170   3.943   9.038   4.635
11643WAT     H135171   3.873   9.011   4.568
11643WAT     H235172   3.964   9.135   4.624
11644WAT      O35173   9.636   1.827   3.875
11644WAT     H135174   9.729   1.834   3.911
11644WAT     H235175   9.587   1.913   3.891
11645WAT      O35176   3.678   8.703   6.855
11645WAT     H135177   3.704   8.628   6.916
11645WAT     H235178   3.596   8.677   6.804
11646WAT      O35179   4.547   9.733   6.894
11646WAT     H135180   4.556   9.634   6.907
11646WAT     H235181   4.453   9.756   6.868
11647WAT      O35182   2.225   6.757   9.121
11647WAT     H135183   2.261   6.678   9.171
11647WAT     H235184   2.287   6.834   9.132
11648WAT      O35185   6.423   3.981   7.760
11648WAT     H135186   6.358   4.023   7.824
11648WAT     H235187   6.484   3.919   7.810
11649WAT      O35188   2.416   1.793   4.115
11649WAT     H135189   2.431   1.886   4.081
11649WAT     H235190   2.326   1.789   4.159
11650WAT      O35191   9.417   5.750   6.163
11650WAT     H135192   9.380   5.659   6.145
11650WAT     H235193   9.487   5.743   6.234
11651WAT      O35194   4.247   2.000   0.798
11651WAT     H135195   4.263   2.074   0.864
11651WAT     H235196   4.334   1.973   0.757
11652WAT      O35197   1.674   2.145   5.912
11652WAT     H135198   1.582   2.106   5.903
11652WAT     H235199   1.729   2.087   5.972
11653WAT      O35200   6.032   0.528   7.394
11653WAT     H135201   6.032   0.550   7.297
11653WAT     H235202   5.974   0.594   7.443
11654WAT      O35203   3.915   0.979   1.468
11654WAT     H135204   3.939   1.058   1.411
11654WAT     H235205   3.863   1.010   1.547
11655WAT      O35206   2.247   5.830   8.706
11655WAT     H135207   2.294   5.766   8.646
11655WAT     H235208   2.165   5.786   8.743
11656WAT      O35209   3.057   0.578   1.794
11656WAT     H135210   2.960   0.582   1.815
11656WAT     H235211   3.094   0.489   1.823
11657WAT      O35212   9.495   7.588   6.294
11657WAT     H135213   9.430   7.623   6.226
11657WAT     H235214   9.568   7.654   6.309
11658WAT      O35215   4.446   0.337   1.375
11658WAT     H135216   4.379   0.265   1.357
11658WAT     H235217   4.423   0.418   1.320
11659WAT      O35218   6.909   9.614   4.402
11659WAT     H135219   6.924   9.712   4.420
11659WAT     H235220   6.874   9.571   4.485
11660WAT      O35221   0.931   0.292   9.363
11660WAT     H135222   0.935   0.338   9.275
11660WAT     H235223   1.000   0.220   9.366
11661WAT      O35224   4.591   8.742   7.426
11661WAT     H135225   4.583   8.786   7.515
11661WAT     H235226   4.511   8.684   7.410
11662WAT      O35227   4.088   1.530   8.218
11662WAT     H135228   4.025   1.454   8.231
11662WAT     H235229   4.051   1.592   8.148
11663WAT      O35230   3.650   7.374   8.172
11663WAT     H135231   3.654   7.474   8.175
11663WAT     H235232   3.726   7.338   8.118
11664WAT      O35233   7.635   0.833   0.230
11664WAT     H135234   7.678   0.744   0.212
11664WAT     H235235   7.598   0.833   0.323
11665WAT      O35236   4.354   0.468   3.392
11665WAT     H135237   4.330   0.501   3.483
11665WAT     H235238   4.409   0.385   3.400
11666WAT      O35239   8.476   4.385   3.983
11666WAT     H135240   8.527   4.470   3.971
11666WAT     H235241   8.513   4.315   3.921
11667WAT      O35242   3.339   1.541   6.030
11667WAT     H135243   3.423   1.487   6.030
11667WAT     H235244   3.328   1.586   5.942
11668WAT      O35245   0.803   8.768   6.479
11668WAT     H135246   0.826   8.746   6.574
11668WAT     H235247   0.709   8.801   6.474
11669WAT      O35248   7.143   0.413   7.379
11669WAT     H135249   7.182   0.325   7.408
11669WAT     H235250   7.188   0.442   7.294
11670WAT      O35251   7.598   5.981   6.339
11670WAT     H135252   7.511   6.030   6.336
11670WAT     H235253   7.666   6.029   6.283
11671WAT      O35254   5.273   5.348   2.790
11671WAT     H135255   5.342   5.321   2.723
11671WAT     H235256   5.299   5.436   2.830
11672WAT      O35257   9.590   0.269   1.710
11672WAT     H135258   9.600   0.349   1.650
11672WAT     H235259   9.669   0.209   1.698
11673WAT      O35260   0.900   8.244   8.407
11673WAT     H135261   0.967   8.285   8.345
11673WAT     H235262   0.908   8.287   8.497
11674WAT      O35263   7.052   9.240   3.801
11674WAT     H135264   7.115   9.233   3.878
11674WAT     H235265   6.960   9.263   3.835
11675WAT      O35266   7.364   8.807   5.421
11675WAT     H135267   7.346   8.904   5.436
11675WAT     H235268   7.396   8.793   5.327
11676WAT      O35269   5.294   7.192   4.067
11676WAT     H135270   5.390   7.215   4.081
11676WAT     H235271   5.236   7.258   4.114
11677WAT      O35272   1.660   2.086   4.316
11677WAT     H135273   1.683   2.171   4.363
11677WAT     H235274   1.565   2.062   4.333
11678WAT      O35275   0.512   4.858   8.439
11678WAT     H135276   0.492   4.911   8.357
11678WAT     H235277   0.554   4.771   8.414
11679WAT      O35278   6.905   6.894   0.847
11679WAT     H135279   6.924   6.809   0.896
11679WAT     H235280   6.810   6.894   0.816
11680WAT      O35281   3.736   3.639   3.358
11680WAT     H135282   3.644   3.634   3.396
11680WAT     H235283   3.764   3.547   3.328
11681WAT      O35284   0.437   7.861   8.188
11681WAT     H135285   0.512   7.861   8.254
11681WAT     H235286   0.426   7.770   8.150
11682WAT      O35287   8.012   1.196   4.107
11682WAT     H135288   8.023   1.202   4.206
11682WAT     H235289   7.942   1.261   4.078
11683WAT      O35290   4.355   4.454   7.057
11683WAT     H135291   4.321   4.546   7.075
11683WAT     H235292   4.338   4.396   7.136
11684WAT      O35293   9.071   1.300   8.896
11684WAT     H135294   9.100   1.345   8.811
11684WAT     H235295   9.017   1.364   8.951
11685WAT      O35296   3.097   7.190   3.194
11685WAT     H135297   3.014   7.138   3.213
11685WAT     H235298   3.134   7.226   3.280
11686WAT      O35299   9.223   7.311   7.696
11686WAT     H135300   9.242   7.244   7.625
11686WAT     H235301   9.290   7.302   7.770
11687WAT      O35302   6.476   7.176   8.455
11687WAT     H135303   6.406   7.207   8.521
11687WAT     H235304   6.560   7.155   8.503
11688WAT      O35305   4.132   4.996   9.237
11688WAT     H135306   4.038   4.961   9.236
11688WAT     H235307   4.141   5.066   9.307
11689WAT      O35308   1.574   7.603   0.549
11689WAT     H135309   1.664   7.584   0.511
11689WAT     H235310   1.510   7.532   0.520
11690WAT      O35311   8.476   7.341   3.201
11690WAT     H135312   8.479   7.339   3.101
11690WAT     H235313   8.414   7.413   3.231
11691WAT      O35314   8.438   6.006   3.685
11691WAT     H135315   8.350   6.006   3.732
11691WAT     H235316   8.427   6.038   3.591
11692WAT      O35317   4.516   8.225   2.236
11692WAT     H135318   4.419   8.201   2.228
11692WAT     H235319   4.569   8.143   2.260
11693WAT      O35320   8.712   7.254   0.382
11693WAT     H135321   8.746   7.344   0.412
11693WAT     H235322   8.647   7.219   0.450
11694WAT      O35323   4.373   8.959   9.155
11694WAT     H135324   4.274   8.965   9.141
11694WAT     H235325   4.403   9.035   9.212
11695WAT      O35326   9.054   6.110   2.128
11695WAT     H135327   9.118   6.148   2.061
11695WAT     H235328   8.974   6.169   2.135
11696WAT      O35329   6.768   7.368   3.148
11696WAT     H135330   6.743   7.323   3.234
11696WAT     H235331   6.864   7.396   3.152
11697WAT      O35332   1.683   2.681   0.697
11697WAT     H135333   1.633   2.755   0.653
11697WAT     H235334   1.653   2.673   0.793
11698WAT      O35335   7.873   4.803   0.897
11698WAT     H135336   7.783   4.839   0.872
11698WAT     H235337   7.862   4.726   0.959
11699WAT      O35338   6.978   0.864   1.264
11699WAT     H135339   6.983   0.764   1.257
11699WAT     H235340   6.900   0.890   1.321
11700WAT      O35341   8.649   1.961   0.742
11700WAT     H135342   8.631   1.978   0.645
11700WAT     H235343   8.604   2.031   0.797
11701WAT      O35344   5.768   6.603   6.682
11701WAT     H135345   5.729   6.688   6.720
11701WAT     H235346   5.865   6.617   6.663
11702WAT      O35347   5.196   9.371   8.962
11702WAT     H135348   5.276   9.312   8.967
11702WAT     H235349   5.115   9.320   8.991
11703WAT      O35350   5.539   2.676   7.960
11703WAT     H135351   5.476   2.600   7.941
11703WAT     H235352   5.487   2.760   7.972
11704WAT      O35353   6.644   5.213   8.195
11704WAT     H135354   6.679   5.119   8.201
11704WAT     H235355   6.695   5.272   8.258
11705WAT      O35356   4.995   3.997   1.050
11705WAT     H135357   5.020   4.026   0.958
11705WAT     H235358   5.053   3.921   1.078
11706WAT      O35359   9.032   6.587   4.816
11706WAT     H135360   9.032   6.645   4.898
11706WAT     H235361   9.031   6.645   4.735
11707WAT      O35362   7.443   9.717   3.190
11707WAT     H135363   7.491   9.744   3.106
11707WAT     H235364   7.444   9.793   3.255
11708WAT      O35365   4.160   2.126   4.223
11708WAT     H135366   4.207   2.205   4.261
11708WAT     H235367   4.226   2.055   4.199
11709WAT      O35368   0.541   4.325   6.530
11709WAT     H135369   0.444   4.352   6.532
11709WAT     H235370   0.590   4.384   6.466
11710WAT      O35371   5.600   5.328   0.412
11710WAT     H135372   5.660   5.334   0.332
11710WAT     H235373   5.615   5.407   0.471
11711WAT      O35374   8.153   3.115   3.140
11711WAT     H135375   8.208   3.125   3.057
11711WAT     H235376   8.066   3.071   3.117
11712WAT      O35377   0.046   2.028   0.135
11712WAT     H135378   0.095   1.942   0.124
11712WAT     H235379   0.079   2.094   0.066
11713WAT      O35380   5.081   1.457   3.258
11713WAT     H135381   5.151   1.524   3.230
11713WAT     H235382   4.997   1.505   3.281
11714WAT      O35383   8.732   2.788   5.870
11714WAT     H135384   8.660   2.857   5.860
11714WAT     H235385   8.815   2.831   5.904
11715WAT      O35386   6.392   9.565   5.248
11715WAT     H135387   6.474   9.509   5.264
11715WAT     H235388   6.315   9.526   5.298
11716WAT      O35389   6.362   0.386   4.654
11716WAT     H135390   6.355   0.470   4.708
11716WAT     H235391   6.322   0.310   4.705
11717WAT      O35392   3.062   6.084   4.511
11717WAT     H135393   3.054   6.181   4.484
11717WAT     H235394   2.971   6.049   4.533
11718WAT      O35395   7.553   8.566   9.108
11718WAT     H135396   7.593   8.658   9.116
11718WAT     H235397   7.492   8.563   9.028
11719WAT      O35398   4.821   6.890   3.644
11719WAT     H135399   4.783   6.936   3.563
11719WAT     H235400   4.909   6.849   3.620
11720WAT      O35401   7.246   4.955   1.367
11720WAT     H135402   7.325   5.015   1.379
11720WAT     H235403   7.166   5.011   1.343
11721WAT      O35404   5.793   4.634   0.251
11721WAT     H135405   5.762   4.605   0.341
11721WAT     H235406   5.844   4.560   0.207
11722WAT      O35407   3.407   4.821   1.954
11722WAT     H135408   3.347   4.819   1.874
11722WAT     H235409   3.483   4.758   1.939
11723WAT      O35410   6.070   1.654   0.014
11723WAT     H135411   5.992   1.636   0.074
11723WAT     H235412   6.117   1.737   0.046
11724WAT      O35413   4.525   2.161   3.989
11724WAT     H135414   4.489   2.212   3.911
11724WAT     H235415   4.458   2.092   4.017
11725WAT      O35416   2.315   0.651   4.244
11725WAT     H135417   2.374   0.582   4.202
11725WAT     H235418   2.341   0.742   4.209
11726WAT      O35419   4.711   2.831   6.162
11726WAT     H135420   4.797   2.793   6.128
11726WAT     H235421   4.713   2.931   6.156
11727WAT      O35422   4.958   3.571   4.974
11727WAT     H135423   4.882   3.628   5.004
11727WAT     H235424   5.019   3.623   4.915
11728WAT      O35425   5.192   5.243   3.871
11728WAT     H135426   5.150   5.223   3.782
11728WAT     H235427   5.270   5.183   3.886
11729WAT      O35428   3.684   0.690   8.329
11729WAT     H135429   3.632   0.632   8.391
11729WAT     H235430   3.751   0.743   8.381
11730WAT      O35431   0.407   2.452   4.958
11730WAT     H135432   0.367   2.536   4.921
11730WAT     H235433   0.504   2.449   4.934
11731WAT      O35434   6.505   8.243   0.959
11731WAT     H135435   6.580   8.244   0.893
11731WAT     H235436   6.498   8.152   1.000
11732WAT      O35437   0.996   0.438   0.669
11732WAT     H135438   1.046   0.352   0.680
11732WAT     H235439   1.035   0.508   0.729
11733WAT      O35440   7.865   3.104   2.768
11733WAT     H135441   7.849   3.167   2.693
11733WAT     H235442   7.952   3.127   2.812
11734WAT      O35443   2.280   9.468   3.733
11734WAT     H135444   2.346   9.472   3.658
11734WAT     H235445   2.329   9.460   3.820
11735WAT      O35446   1.810   6.954   6.545
11735WAT     H135447   1.786   6.996   6.632
11735WAT     H235448   1.910   6.943   6.540
11736WAT      O35449   3.423   3.288   6.531
11736WAT     H135450   3.360   3.337   6.471
11736WAT     H235451   3.496   3.349   6.561
11737WAT      O35452   5.291   3.893   5.786
11737WAT     H135453   5.369   3.845   5.825
11737WAT     H235454   5.210   3.878   5.843
11738WAT      O35455   7.895   8.303   0.238
11738WAT     H135456   7.975   8.353   0.205
11738WAT     H235457   7.921   8.209   0.259
11739WAT      O35458   1.697   8.244   1.204
11739WAT     H135459   1.640   8.162   1.202
11739WAT     H235460   1.665   8.306   1.276
11740WAT      O35461   4.787   8.927   6.284
11740WAT     H135462   4.733   8.843   6.283
11740WAT     H235463   4.865   8.917   6.221
11741WAT      O35464   8.593   8.388   7.885
11741WAT     H135465   8.617   8.342   7.799
11741WAT     H235466   8.549   8.323   7.946
11742WAT      O35467   7.562   7.986   3.659
11742WAT     H135468   7.647   8.025   3.622
11742WAT     H235469   7.582   7.941   3.747
11743WAT      O35470   2.645   2.223   9.884
11743WAT     H135471   2.594   2.188   9.962
11743WAT     H235472   2.650   2.323   9.890
11744WAT      O35473   2.032   3.264   8.038
11744WAT     H135474   1.934   3.255   8.056
11744WAT     H235475   2.047   3.281   7.941
11745WAT      O35476   0.214   2.966   8.228
11745WAT     H135477   0.178   2.928   8.143
11745WAT     H235478   0.168   2.923   8.306
11746WAT      O35479   0.412   1.739   0.471
11746WAT     H135480   0.379   1.648   0.498
11746WAT     H235481   0.365   1.809   0.526
11747WAT      O35482   4.304   4.926   3.074
11747WAT     H135483   4.336   4.848   3.020
11747WAT     H235484   4.268   4.893   3.161
11748WAT      O35485   1.772   1.220   5.397
11748WAT     H135486   1.862   1.176   5.406
11748WAT     H235487   1.784   1.320   5.396
11749WAT      O35488   9.426   1.272   9.210
11749WAT     H135489   9.507   1.273   9.152
11749WAT     H235490   9.421   1.358   9.261
11750WAT      O35491   5.262   4.842   3.354
11750WAT     H135492   5.191   4.838   3.424
11750WAT     H235493   5.270   4.935   3.318
11751WAT      O35494   5.915   8.251   2.951
11751WAT     H135495   5.853   8.185   2.909
11751WAT     H235496   5.904   8.248   3.050
11752WAT      O35497   8.491   2.078   2.750
11752WAT     H135498   8.441   2.146   2.697
11752WAT     H235499   8.583   2.111   2.768
11753WAT      O35500   2.398   5.288   6.004
11753WAT     H135501   2.488   5.333   6.004
11753WAT     H235502   2.375   5.259   5.911
11754WAT      O35503   6.581   4.017   8.869
11754WAT     H135504   6.501   4.060   8.911
11754WAT     H235505   6.601   4.062   8.782
11755WAT      O35506   6.476   4.979   3.154
11755WAT     H135507   6.440   4.891   3.124
11755WAT     H235508   6.404   5.048   3.154
11756WAT      O35509   0.061   1.323   9.211
11756WAT     H135510   0.135   1.377   9.251
11756WAT     H235511   0.094   1.277   9.129
11757WAT      O35512   8.741   3.161   4.823
11757WAT     H135513   8.804   3.202   4.757
11757WAT     H235514   8.679   3.099   4.775
11758WAT      O35515   8.242   8.691   1.461
11758WAT     H135516   8.248   8.754   1.383
11758WAT     H235517   8.314   8.712   1.526
11759WAT      O35518   8.109   5.387   9.842
11759WAT     H135519   8.073   5.424   9.756
11759WAT     H235520   8.207   5.408   9.849
11760WAT      O35521   5.944   1.033   8.594
11760WAT     H135522   5.894   1.113   8.626
11760WAT     H235523   5.940   0.961   8.663
11761WAT      O35524   9.723   3.940   1.999
11761WAT     H135525   9.656   3.916   1.929
11761WAT     H235526   9.738   3.861   2.059
11762WAT      O35527   0.048   8.803   5.884
11762WAT     H135528   0.077   8.812   5.979
11762WAT     H235529   0.109   8.857   5.826
11763WAT      O35530   1.052   3.002   7.824
11763WAT     H135531   1.144   3.017   7.862
11763WAT     H235532   0.985   3.051   7.879
11764WAT      O35533   0.010   3.339   7.261
11764WAT     H135534   0.092   3.310   7.311
11764WAT     H235535  -0.029   3.261   7.213
11765WAT      O35536   8.163   9.454   8.002
11765WAT     H135537   8.227   9.380   8.021
11765WAT     H235538   8.144   9.504   8.086
11766WAT      O35539   0.525   7.949   9.782
11766WAT     H135540   0.428   7.937   9.807
11766WAT     H235541   0.539   7.920   9.688
11767WAT      O35542   3.871   5.213   3.406
11767WAT     H135543   3.865   5.169   3.316
11767WAT     H235544   3.857   5.312   3.395
11768WAT      O35545   2.979   2.443   4.636
11768WAT     H135546   3.014   2.525   4.589
11768WAT     H235547   2.893   2.466   4.682
11769WAT      O35548   8.540   3.006   5.952
11769WAT     H135549   8.540   3.063   5.870
11769WAT     H235550   8.558   3.063   6.032
11770WAT      O35551   7.267   0.364   5.165
11770WAT     H135552   7.291   0.363   5.262
11770WAT     H235553   7.336   0.416   5.115
11771WAT      O35554   6.264   5.755   6.161
11771WAT     H135555   6.203   5.815   6.213
11771WAT     H235556   6.300   5.805   6.082
11772WAT      O35557   1.475   9.627   2.202
11772WAT     H135558   1.396   9.565   2.197
11772WAT     H235559   1.445   9.720   2.181
11773WAT      O35560   5.560   3.415   2.025
11773WAT     H135561   5.604   3.326   2.032
11773WAT     H235562   5.529   3.430   1.931
11774WAT      O35563   2.044   7.972   8.966
11774WAT     H135564   2.131   8.002   9.003
11774WAT     H235565   1.984   8.051   8.953
11775WAT      O35566   9.331   8.158   3.727
11775WAT     H135567   9.345   8.203   3.815
11775WAT     H235568   9.418   8.124   3.693
11776WAT      O35569   0.591   5.721   6.546
11776WAT     H135570   0.592   5.622   6.560
11776WAT     H235571   0.621   5.742   6.453
11777WAT      O35572   0.120   7.102   2.254
11777WAT     H135573   0.029   7.142   2.271
11777WAT     H235574   0.190   7.172   2.269
11778WAT      O35575   9.297   5.717   0.854
11778WAT     H135576   9.235   5.756   0.785
11778WAT     H235577   9.376   5.777   0.866
11779WAT      O35578   8.861   8.791   4.597
11779WAT     H135579   8.825   8.853   4.526
11779WAT     H235580   8.916   8.843   4.662
11780WAT      O35581   3.576   9.369   3.172
11780WAT     H135582   3.585   9.386   3.074
11780WAT     H235583   3.666   9.365   3.214
11781WAT      O35584   9.301   9.837   7.355
11781WAT     H135585   9.282   9.763   7.290
11781WAT     H235586   9.225   9.901   7.355
11782WAT      O35587   8.709   6.325   3.774
11782WAT     H135588   8.690   6.379   3.856
11782WAT     H235589   8.635   6.337   3.708
11783WAT      O35590   7.133   4.203   7.116
11783WAT     H135591   7.146   4.295   7.079
11783WAT     H235592   7.154   4.204   7.214
11784WAT      O35593   2.754   8.873   0.188
11784WAT     H135594   2.734   8.829   0.101
11784WAT     H235595   2.689   8.949   0.203
11785WAT      O35596   4.505   9.828   3.918
11785WAT     H135597   4.432   9.860   3.858
11785WAT     H235598   4.513   9.890   3.996
11786WAT      O35599   2.951   9.257   9.372
11786WAT     H135600   3.044   9.221   9.374
11786WAT     H235601   2.923   9.274   9.278
11787WAT      O35602   3.365   1.448   3.489
11787WAT     H135603   3.407   1.435   3.400
11787WAT     H235604   3.413   1.520   3.539
11788WAT      O35605   8.254   9.650   1.745
11788WAT     H135606   8.177   9.660   1.808
11788WAT     H235607   8.297   9.560   1.758
11789WAT      O35608   5.564   8.812   4.811
11789WAT     H135609   5.534   8.721   4.781
11789WAT     H235610   5.628   8.802   4.887
11790WAT      O35611   9.533   2.577   6.658
11790WAT     H135612   9.456   2.534   6.612
11790WAT     H235613   9.537   2.546   6.753
11791WAT      O35614   8.122   8.009   3.581
11791WAT     H135615   8.151   8.019   3.676
11791WAT     H235616   8.130   7.913   3.553
11792WAT      O35617   3.410   2.221   7.773
11792WAT     H135618   3.357   2.224   7.688
11792WAT     H235619   3.378   2.146   7.830
11793WAT      O35620   9.262   7.159   6.140
11793WAT     H135621   9.280   7.193   6.233
11793WAT     H235622   9.349   7.136   6.097
11794WAT      O35623   1.031   4.977   1.905
11794WAT     H135624   0.943   5.018   1.928
11794WAT     H235625   1.083   5.040   1.847
11795WAT      O35626   0.120   8.430   0.367
11795WAT     H135627   0.126   8.477   0.279
11795WAT     H235628   0.175   8.347   0.364
11796WAT      O35629   2.558   7.655   1.866
11796WAT     H135630   2.470   7.608   1.860
11796WAT     H235631   2.630   7.597   1.827
11797WAT      O35632   0.152   3.148   0.902
11797WAT     H135633   0.063   3.111   0.872
11797WAT     H235634   0.192   3.087   0.970
11798WAT      O35635   8.177   7.223   1.319
11798WAT     H135636   8.207   7.272   1.401
11798WAT     H235637   8.153   7.129   1.344
11799WAT      O35638   2.907   5.983   8.245
11799WAT     H135639   2.963   6.064   8.262
11799WAT     H235640   2.928   5.914   8.315
11800WAT      O35641   1.072   7.201   4.719
11800WAT     H135642   1.120   7.114   4.714
11800WAT     H235643   1.133   7.271   4.757
11801WAT      O35644   5.395   3.274   6.262
11801WAT     H135645   5.444   3.358   6.286
11801WAT     H235646   5.444   3.195   6.298
11802WAT      O35647   8.456   0.082   3.934
11802WAT     H135648   8.421   0.122   4.018
11802WAT     H235649   8.422   0.134   3.856
11803WAT      O35650   8.725   1.208   8.926
11803WAT     H135651   8.652   1.276   8.919
11803WAT     H235652   8.685   1.117   8.940
11804WAT      O35653   1.834   5.038   8.813
11804WAT     H135654   1.932   5.026   8.827
11804WAT     H235655   1.801   5.113   8.871
11805WAT      O35656   3.725   5.859   3.930
11805WAT     H135657   3.629   5.866   3.901
11805WAT     H235658   3.733   5.891   4.024
11806WAT      O35659   2.994   1.555   9.669
11806WAT     H135660   3.006   1.502   9.585
11806WAT     H235661   3.069   1.620   9.679
11807WAT      O35662   2.239   6.179   9.380
11807WAT     H135663   2.290   6.181   9.295
11807WAT     H235664   2.148   6.219   9.366
11808WAT      O35665   1.040   6.923   0.015
11808WAT     H135666   0.951   6.929   0.060
11808WAT     H235667   1.085   7.012   0.017
11809WAT      O35668   8.932   9.155   5.250
11809WAT     H135669   8.931   9.245   5.294
11809WAT     H235670   8.976   9.162   5.161
11810WAT      O35671   4.897   2.519   8.033
11810WAT     H135672   4.949   2.506   7.949
11810WAT     H235673   4.924   2.449   8.100
11811WAT      O35674   5.821   7.238   9.848
11811WAT     H135675   5.874   7.300   9.905
11811WAT     H235676   5.806   7.151   9.896
11812WAT      O35677   0.828   0.204   3.441
11812WAT     H135678   0.805   0.115   3.480
11812WAT     H235679   0.864   0.263   3.513
11813WAT      O35680   4.203   1.130   5.087
11813WAT     H135681   4.198   1.194   5.011
11813WAT     H235682   4.299   1.115   5.112
11814WAT      O35683   7.232   9.158   1.065
11814WAT     H135684   7.218   9.125   1.158
11814WAT     H235685   7.187   9.246   1.053
11815WAT      O35686   9.738   4.241   6.705
11815WAT     H135687   9.743   4.145   6.731
11815WAT     H235688   9.777   4.297   6.778
11816WAT      O35689   9.398   2.530   9.006
11816WAT     H135690   9.354   2.603   9.059
11816WAT     H235691   9.442   2.569   8.925
11817WAT      O35692   4.056   9.105   0.348
11817WAT     H135693   4.138   9.059   0.316
11817WAT     H235694   4.068   9.133   0.443
11818WAT      O35695   5.737   6.793   5.085
11818WAT     H135696   5.711   6.734   5.161
11818WAT     H235697   5.657   6.845   5.054
11819WAT      O35698   5.368   7.184   2.058
11819WAT     H135699   5.456   7.209   2.018
11819WAT     H235700   5.383   7.128   2.139
11820WAT      O35701   4.943   2.965   8.181
11820WAT     H135702   4.900   2.877   8.163
11820WAT     H235703   4.960   2.974   8.279
11821WAT      O35704   0.466   1.298   6.534
11821WAT     H135705   0.500   1.349   6.613
11821WAT     H235706   0.423   1.213   6.565
11822WAT      O35707   5.706   0.354   4.397
11822WAT     H135708   5.607   0.363   4.413
11822WAT     H235709   5.721   0.293   4.319
11823WAT      O35710   5.327   3.992   4.927
11823WAT     H135711   5.308   3.902   4.966
11823WAT     H235712   5.308   4.063   4.995
11824WAT      O35713   2.702   4.210   6.572
11824WAT     H135714   2.660   4.285   6.623
11824WAT     H235715   2.634   4.140   6.551
11825WAT      O35716   1.639   9.210   6.112
11825WAT     H135717   1.604   9.238   6.023
11825WAT     H235718   1.686   9.122   6.104
11826WAT      O35719   4.643   4.448   7.028
11826WAT     H135720   4.647   4.538   6.984
11826WAT     H235721   4.549   4.430   7.057
11827WAT      O35722   7.153   4.868   3.834
11827WAT     H135723   7.163   4.898   3.740
11827WAT     H235724   7.056   4.854   3.854
11828WAT      O35725   7.969   4.148   7.913
11828WAT     H135726   7.995   4.086   7.839
11828WAT     H235727   7.969   4.098   8.000
11829WAT      O35728   0.711   0.623   2.390
11829WAT     H135729   0.761   0.698   2.346
11829WAT     H235730   0.613   0.640   2.382
11830WAT      O35731   8.647   2.171   4.279
11830WAT     H135732   8.632   2.140   4.373
11830WAT     H235733   8.655   2.270   4.277
11831WAT      O35734   3.159   2.290   7.198
11831WAT     H135735   3.183   2.196   7.222
11831WAT     H235736   3.118   2.291   7.107
11832WAT      O35737   5.728   6.578   5.978
11832WAT     H135738   5.810   6.621   5.941
11832WAT     H235739   5.704   6.498   5.923
11833WAT      O35740   2.691   2.329   5.433
11833WAT     H135741   2.637   2.413   5.441
11833WAT     H235742   2.644   2.267   5.370
11834WAT      O35743   9.058   5.043   8.132
11834WAT     H135744   9.094   4.980   8.063
11834WAT     H235745   9.005   5.115   8.087
11835WAT      O35746   7.368   6.823   5.417
11835WAT     H135747   7.283   6.826   5.366
11835WAT     H235748   7.429   6.754   5.377
11836WAT      O35749   1.475   3.926   9.422
11836WAT     H135750   1.464   4.021   9.393
11836WAT     H235751   1.391   3.894   9.464
11837WAT      O35752   8.386   2.761   3.421
11837WAT     H135753   8.419   2.758   3.515
11837WAT     H235754   8.319   2.836   3.412
11838WAT      O35755   5.637   0.904   5.569
11838WAT     H135756   5.558   0.884   5.511
11838WAT     H235757   5.713   0.935   5.512
11839WAT      O35758   7.870   9.191   9.256
11839WAT     H135759   7.940   9.260   9.272
11839WAT     H235760   7.874   9.160   9.160
11840WAT      O35761   8.524   6.833   5.246
11840WAT     H135762   8.498   6.742   5.277
11840WAT     H235763   8.604   6.827   5.186
11841WAT      O35764   5.147   8.638   4.651
11841WAT     H135765   5.050   8.643   4.672
11841WAT     H235766   5.165   8.555   4.597
11842WAT      O35767   0.672   3.228   5.078
11842WAT     H135768   0.686   3.149   5.019
11842WAT     H235769   0.755   3.283   5.081
11843WAT      O35770   0.517   3.074   5.828
11843WAT     H135771   0.437   3.132   5.816
11843WAT     H235772   0.558   3.055   5.738
11844WAT      O35773   5.263   7.864   5.653
11844WAT     H135774   5.197   7.870   5.728
11844WAT     H235775   5.347   7.822   5.686
11845WAT      O35776   5.602   7.930   1.822
11845WAT     H135777   5.625   7.918   1.919
11845WAT     H235778   5.506   7.907   1.807
11846WAT      O35779   3.268   1.667   6.461
11846WAT     H135780   3.246   1.570   6.467
11846WAT     H235781   3.184   1.721   6.467
11847WAT      O35782   6.746   3.242   2.963
11847WAT     H135783   6.775   3.147   2.969
11847WAT     H235784   6.821   3.298   2.928
11848WAT      O35785   8.108   6.290   0.950
11848WAT     H135786   8.097   6.370   1.010
11848WAT     H235787   8.020   6.245   0.937
11849WAT      O35788   6.449   0.452   8.399
11849WAT     H135789   6.411   0.480   8.487
11849WAT     H235790   6.484   0.359   8.405
11850WAT      O35791   2.678   2.602   6.760
11850WAT     H135792   2.736   2.522   6.778
11850WAT     H235793   2.582   2.576   6.772
11851WAT      O35794   3.770   6.417   0.846
11851WAT     H135795   3.776   6.461   0.936
11851WAT     H235796   3.862   6.387   0.818
11852WAT      O35797   3.923   6.974   7.380
11852WAT     H135798   3.831   6.941   7.402
11852WAT     H235799   3.947   7.051   7.439
11853WAT      O35800   1.515   3.263   6.963
11853WAT     H135801   1.466   3.203   7.025
11853WAT     H235802   1.613   3.242   6.967
11854WAT      O35803   2.577   2.184   7.433
11854WAT     H135804   2.634   2.160   7.512
11854WAT     H235805   2.481   2.164   7.454
11855WAT      O35806   3.099   3.330   6.924
11855WAT     H135807   3.048   3.347   7.008
11855WAT     H235808   3.157   3.249   6.936
11856WAT      O35809   8.112   4.218   6.494
11856WAT     H135810   8.140   4.148   6.559
11856WAT     H235811   8.116   4.308   6.538
11857WAT      O35812   5.098   9.164   6.826
11857WAT     H135813   5.001   9.163   6.802
11857WAT     H235814   5.111   9.123   6.917
11858WAT      O35815   0.692   3.477   6.970
11858WAT     H135816   0.787   3.457   6.944
11858WAT     H235817   0.662   3.411   7.038
11859WAT      O35818   4.850   3.275   5.783
11859WAT     H135819   4.879   3.182   5.807
11859WAT     H235820   4.919   3.317   5.725
11860WAT      O35821   5.267   5.380   0.386
11860WAT     H135822   5.286   5.285   0.411
11860WAT     H235823   5.345   5.418   0.337
11861WAT      O35824   1.088   5.951   2.239
11861WAT     H135825   1.143   5.968   2.320
11861WAT     H235826   1.036   6.033   2.216
11862WAT      O35827   9.823   5.146   8.653
11862WAT     H135828   9.869   5.233   8.669
11862WAT     H235829   9.728   5.162   8.627
11863WAT      O35830   2.848   6.813   2.714
11863WAT     H135831   2.903   6.772   2.641
11863WAT     H235832   2.849   6.752   2.794
11864WAT      O35833   6.571   9.247   8.507
11864WAT     H135834   6.584   9.190   8.588
11864WAT     H235835   6.659   9.261   8.462
11865WAT      O35836   8.657   0.198   5.752
11865WAT     H135837   8.681   0.139   5.829
11865WAT     H235838   8.720   0.276   5.748
11866WAT      O35839   0.775   7.759   8.778
11866WAT     H135840   0.780   7.848   8.732
11866WAT     H235841   0.724   7.695   8.720
11867WAT      O35842   3.742   6.232   8.019
11867WAT     H135843   3.731   6.247   7.921
11867WAT     H235844   3.715   6.315   8.068
11868WAT      O35845   8.388   7.086   2.191
11868WAT     H135846   8.441   7.109   2.109
11868WAT     H235847   8.323   7.159   2.211
11869WAT      O35848   7.238   4.081   4.357
11869WAT     H135849   7.245   4.122   4.448
11869WAT     H235850   7.147   4.043   4.344
11870WAT      O35851   4.541   4.339   6.218
11870WAT     H135852   4.544   4.240   6.203
11870WAT     H235853   4.483   4.381   6.148
11871WAT      O35854   7.035   6.657   2.567
11871WAT     H135855   6.982   6.611   2.495
11871WAT     H235856   6.973   6.708   2.625
11872WAT      O35857   2.583   1.493   7.891
11872WAT     H135858   2.598   1.542   7.977
11872WAT     H235859   2.631   1.539   7.817
11873WAT      O35860   2.777   5.980   4.469
11873WAT     H135861   2.783   5.929   4.554
11873WAT     H235862   2.731   5.924   4.400
11874WAT      O35863   3.229   5.947   5.330
11874WAT     H135864   3.173   5.876   5.372
11874WAT     H235865   3.294   5.905   5.266
11875WAT      O35866   1.534   8.254   6.768
11875WAT     H135867   1.483   8.195   6.831
11875WAT     H235868   1.478   8.334   6.745
11876WAT      O35869   1.152   2.555   2.841
11876WAT     H135870   1.087   2.507   2.900
11876WAT     H235871   1.165   2.504   2.757
11877WAT      O35872   6.146   5.206   5.676
11877WAT     H135873   6.225   5.160   5.718
11877WAT     H235874   6.132   5.294   5.721
11878WAT      O35875   0.084   0.397   7.104
11878WAT     H135876  -0.009   0.428   7.083
11878WAT     H235877   0.145   0.476   7.105
11879WAT      O35878   1.984   1.806   2.540
11879WAT     H135879   1.947   1.721   2.578
11879WAT     H235880   1.937   1.884   2.580
11880WAT      O35881   4.643   0.284   4.334
11880WAT     H135882   4.706   0.271   4.411
11880WAT     H235883   4.674   0.360   4.278
11881WAT      O35884   5.145   4.794   0.311
11881WAT     H135885   5.074   4.825   0.374
11881WAT     H235886   5.123   4.702   0.278
11882WAT      O35887   0.864   3.056   0.444
11882WAT     H135888   0.800   3.111   0.390
11882WAT     H235889   0.921   3.001   0.383
11883WAT      O35890   5.715   1.561   9.869
11883WAT     H135891   5.692   1.464   9.867
11883WAT     H235892   5.791   1.578   9.806
11884WAT      O35893   6.603   3.253   6.746
11884WAT     H135894   6.626   3.331   6.805
11884WAT     H235895   6.616   3.279   6.650
11885WAT      O35896   4.248   1.927   1.700
11885WAT     H135897   4.196   2.007   1.671
11885WAT     H235898   4.332   1.957   1.746
11886WAT      O35899   6.255   4.904   2.368
11886WAT     H135900   6.313   4.845   2.425
11886WAT     H235901   6.175   4.933   2.421
11887WAT      O35902   2.782   6.065   5.645
11887WAT     H135903   2.779   6.114   5.732
11887WAT     H235904   2.803   5.969   5.662
11888WAT      O35905   8.540   2.458   2.294
11888WAT     H135906   8.490   2.396   2.356
11888WAT     H235907   8.618   2.496   2.343
11889WAT      O35908   0.275   2.105   8.592
11889WAT     H135909   0.258   2.144   8.501
11889WAT     H235910   0.353   2.042   8.587
11890WAT      O35911   4.287   3.814   9.772
11890WAT     H135912   4.351   3.801   9.697
11890WAT     H235913   4.195   3.789   9.742
11891WAT      O35914   9.204   5.929   5.081
11891WAT     H135915   9.119   5.897   5.125
11891WAT     H235916   9.214   6.027   5.096
11892WAT      O35917   5.152   7.121   5.414
11892WAT     H135918   5.136   7.030   5.376
11892WAT     H235919   5.249   7.143   5.408
11893WAT      O35920   4.390   5.646   3.879
11893WAT     H135921   4.354   5.727   3.833
11893WAT     H235922   4.329   5.620   3.954
11894WAT      O35923   6.758   1.781   0.164
11894WAT     H135924   6.857   1.799   0.158
11894WAT     H235925   6.715   1.810   0.078
11895WAT      O35926   0.523   7.842   5.933
11895WAT     H135927   0.524   7.752   5.888
11895WAT     H235928   0.553   7.912   5.868
11896WAT      O35929   0.163   0.010   9.796
11896WAT     H135930   0.210  -0.039   9.722
11896WAT     H235931   0.228   0.030   9.869
11897WAT      O35932   6.877   4.506   4.496
11897WAT     H135933   6.812   4.568   4.540
11897WAT     H235934   6.909   4.546   4.410
11898WAT      O35935   7.228   8.047   3.281
11898WAT     H135936   7.227   8.066   3.183
11898WAT     H235937   7.292   8.109   3.327
11899WAT      O35938   6.202   3.313   5.697
11899WAT     H135939   6.289   3.329   5.744
11899WAT     H235940   6.126   3.326   5.761
11900WAT      O35941   4.090   9.749   5.786
11900WAT     H135942   4.112   9.654   5.808
11900WAT     H235943   4.000   9.753   5.743
11901WAT      O35944   2.843   9.558   7.084
11901WAT     H135945   2.881   9.600   7.002
11901WAT     H235946   2.810   9.629   7.146
11902WAT      O35947   6.875   0.236   4.238
11902WAT     H135948   6.777   0.250   4.256
11902WAT     H235949   6.914   0.179   4.310
11903WAT      O35950   0.505   8.712   6.004
11903WAT     H135951   0.458   8.623   6.008
11903WAT     H235952   0.450   8.781   6.051
11904WAT      O35953   1.166   6.868   3.692
11904WAT     H135954   1.094   6.846   3.626
11904WAT     H235955   1.191   6.965   3.682
11905WAT      O35956   3.222   2.797   6.134
11905WAT     H135957   3.268   2.759   6.214
11905WAT     H235958   3.253   2.891   6.119
11906WAT      O35959   1.214   9.366   8.158
11906WAT     H135960   1.146   9.357   8.232
11906WAT     H235961   1.302   9.330   8.189
11907WAT      O35962   6.852   6.921   4.109
11907WAT     H135963   6.759   6.893   4.134
11907WAT     H235964   6.917   6.852   4.141
11908WAT      O35965   1.200   2.585   5.112
11908WAT     H135966   1.160   2.548   5.028
11908WAT     H235967   1.228   2.510   5.171
11909WAT      O35968   6.888   7.332   2.605
11909WAT     H135969   6.925   7.245   2.572
11909WAT     H235970   6.789   7.324   2.617
11910WAT      O35971   6.353   7.664   6.262
11910WAT     H135972   6.373   7.610   6.180
11910WAT     H235973   6.269   7.631   6.304
11911WAT      O35974   8.914   3.452   3.263
11911WAT     H135975   8.988   3.499   3.311
11911WAT     H235976   8.932   3.455   3.164
11912WAT      O35977   3.107   7.606   0.752
11912WAT     H135978   3.030   7.664   0.725
11912WAT     H235979   3.109   7.597   0.851
11913WAT      O35980   3.602   8.941   1.568
11913WAT     H135981   3.572   8.900   1.654
11913WAT     H235982   3.683   8.998   1.585
11914WAT      O35983   6.956   7.581   1.094
11914WAT     H135984   6.954   7.488   1.057
11914WAT     H235985   7.029   7.633   1.051
11915WAT      O35986   1.976   1.584   8.464
11915WAT     H135987   2.038   1.511   8.494
11915WAT     H235988   2.029   1.669   8.451
11916WAT      O35989   2.581   0.011   3.072
11916WAT     H135990   2.640   0.019   3.153
11916WAT     H235991   2.486   0.005   3.101
11917WAT      O35992   7.843   7.116   3.717
11917WAT     H135993   7.771   7.056   3.751
11917WAT     H235994   7.929   7.065   3.713
11918WAT      O35995   8.810   5.765   1.999
11918WAT     H135996   8.784   5.668   2.001
11918WAT     H235997   8.764   5.813   2.073
11919WAT      O35998   4.584   3.908   8.152
11919WAT     H135999   4.602   3.845   8.227
11919WAT     H236000   4.493   3.949   8.163
11920WAT      O36001   1.529   6.310   8.248
11920WAT     H136002   1.592   6.235   8.230
11920WAT     H236003   1.580   6.389   8.281
11921WAT      O36004   4.346   3.001   6.608
11921WAT     H136005   4.267   3.033   6.661
11921WAT     H236006   4.332   3.023   6.512
11922WAT      O36007   6.075   6.593   2.021
11922WAT     H136008   6.043   6.502   1.995
11922WAT     H236009   6.004   6.660   2.002
11923WAT      O36010   6.666   0.517   4.893
11923WAT     H136011   6.756   0.500   4.852
11923WAT     H236012   6.602   0.446   4.863
11924WAT      O36013   4.916   1.445   4.558
11924WAT     H136014   4.994   1.506   4.568
11924WAT     H236015   4.914   1.380   4.635
11925WAT      O36016   9.749   2.130   1.721
11925WAT     H136017   9.688   2.062   1.682
11925WAT     H236018   9.731   2.219   1.680
11926WAT      O36019   5.844   0.058   0.359
11926WAT     H136020   5.835   0.128   0.430
11926WAT     H236021   5.850   0.103   0.269
11927WAT      O36022   2.145   9.810   2.135
11927WAT     H136023   2.177   9.727   2.180
11927WAT     H236024   2.104   9.871   2.202
11928WAT      O36025   4.597   7.532   4.022
11928WAT     H136026   4.590   7.618   4.072
11928WAT     H236027   4.545   7.461   4.069
11929WAT      O36028   4.989   8.251   9.682
11929WAT     H136029   4.972   8.327   9.619
11929WAT     H236030   4.977   8.165   9.633
11930WAT      O36031   2.839   7.673   8.761
11930WAT     H136032   2.777   7.596   8.765
11930WAT     H236033   2.864   7.691   8.665
11931WAT      O36034   5.279   1.811   2.730
11931WAT     H136035   5.234   1.740   2.676
11931WAT     H236036   5.269   1.791   2.827
11932WAT      O36037   0.756   3.111   4.143
11932WAT     H136038   0.778   3.095   4.047
11932WAT     H236039   0.709   3.030   4.180
11933WAT      O36040   3.841   6.156   2.239
11933WAT     H136041   3.824   6.254   2.224
11933WAT     H236042   3.789   6.103   2.172
11934WAT      O36043   5.835   1.102   6.453
11934WAT     H136044   5.857   1.078   6.359
11934WAT     H236045   5.912   1.152   6.494
11935WAT      O36046   2.527   5.113   2.334
11935WAT     H136047   2.565   5.030   2.294
11935WAT     H236048   2.557   5.121   2.429
11936WAT      O36049   4.414   7.218   5.617
11936WAT     H136050   4.380   7.311   5.601
11936WAT     H236051   4.418   7.169   5.530
11937WAT      O36052   8.504   4.769   4.695
11937WAT     H136053   8.596   4.803   4.714
11937WAT     H236054   8.468   4.816   4.614
11938WAT      O36055   9.223   6.818   0.070
11938WAT     H136056   9.142   6.836   0.014
11938WAT     H236057   9.289   6.892   0.057
11939WAT      O36058   6.487   6.124   1.244
11939WAT     H136059   6.423   6.172   1.184
11939WAT     H236060   6.437   6.064   1.305
11940WAT      O36061   5.352   4.520   3.780
11940WAT     H136062   5.258   4.537   3.807
11940WAT     H236063   5.371   4.569   3.695
11941WAT      O36064   5.614   6.254   7.784
11941WAT     H136065   5.707   6.282   7.806
11941WAT     H236066   5.601   6.256   7.685
11942WAT      O36067   6.499   2.232   8.582
11942WAT     H136068   6.431   2.304   8.581
11942WAT     H236069   6.466   2.156   8.638
11943WAT      O36070   4.118   9.806   1.559
11943WAT     H136071   4.152   9.899   1.575
11943WAT     H236072   4.049   9.808   1.486
11944WAT      O36073   1.988   0.619   1.367
11944WAT     H136074   1.982   0.527   1.404
11944WAT     H236075   1.971   0.686   1.439
11945WAT      O36076   1.454   2.549   5.778
11945WAT     H136077   1.370   2.579   5.734
11945WAT     H236078   1.530   2.557   5.713
11946WAT      O36079   8.973   0.467   7.150
11946WAT     H136080   8.892   0.476   7.208
11946WAT     H236081   8.964   0.527   7.071
11947WAT      O36082   8.628   3.426   5.814
11947WAT     H136083   8.634   3.476   5.900
11947WAT     H236084   8.698   3.354   5.812
11948WAT      O36085   4.787   7.162   6.086
11948WAT     H136086   4.757   7.251   6.119
11948WAT     H236087   4.734   7.136   6.005
11949WAT      O36088   7.013   1.642   3.274
11949WAT     H136089   7.062   1.635   3.362
11949WAT     H236090   6.956   1.724   3.274
11950WAT      O36091   6.465   9.285   8.886
11950WAT     H136092   6.528   9.207   8.884
11950WAT     H236093   6.503   9.361   8.834
11951WAT      O36094   3.177   7.849   3.698
11951WAT     H136095   3.268   7.808   3.690
11951WAT     H236096   3.109   7.777   3.715
11952WAT      O36097   7.117   7.678   9.101
11952WAT     H136098   7.154   7.763   9.063
11952WAT     H236099   7.072   7.627   9.028
11953WAT      O36100   7.026   9.016   7.337
11953WAT     H136101   7.118   9.051   7.316
11953WAT     H236102   7.009   8.934   7.283
11954WAT      O36103   3.336   4.985   1.331
11954WAT     H136104   3.340   5.046   1.252
11954WAT     H236105   3.372   5.033   1.411
11955WAT      O36106   6.723   2.977   4.302
11955WAT     H136107   6.692   2.913   4.231
11955WAT     H236108   6.817   3.005   4.283
11956WAT      O36109   8.635   7.725   6.957
11956WAT     H136110   8.675   7.799   7.013
11956WAT     H236111   8.675   7.728   6.865
11957WAT      O36112   4.297   1.693   3.165
11957WAT     H136113   4.223   1.665   3.104
11957WAT     H236114   4.375   1.724   3.110
11958WAT      O36115   7.700   3.144   3.499
11958WAT     H136116   7.785   3.196   3.506
11958WAT     H236117   7.669   3.143   3.404
11959WAT      O36118   0.776   7.207   8.416
11959WAT     H136119   0.701   7.201   8.482
11959WAT     H236120   0.742   7.189   8.324
11960WAT      O36121   2.045   6.638   4.393
11960WAT     H136122   2.065   6.699   4.317
11960WAT     H236123   2.049   6.543   4.361
11961WAT      O36124   0.917   6.808   8.162
11961WAT     H136125   0.897   6.734   8.226
11961WAT     H236126   0.980   6.776   8.091
11962WAT      O36127   9.095   8.116   2.663
11962WAT     H136128   9.142   8.066   2.590
11962WAT     H236129   9.003   8.080   2.674
11963WAT      O36130   5.659   8.951   7.149
11963WAT     H136131   5.661   9.043   7.111
11963WAT     H236132   5.747   8.906   7.131
11964WAT      O36133   7.699   6.658   3.805
11964WAT     H136134   7.628   6.608   3.854
11964WAT     H236135   7.743   6.597   3.739
11965WAT      O36136   0.469   2.969   5.547
11965WAT     H136137   0.372   2.985   5.529
11965WAT     H236138   0.479   2.882   5.596
11966WAT      O36139   7.693   5.420   7.954
11966WAT     H136140   7.672   5.515   7.977
11966WAT     H236141   7.792   5.410   7.942
11967WAT      O36142   3.882   7.628   4.431
11967WAT     H136143   3.978   7.627   4.459
11967WAT     H236144   3.824   7.639   4.511
11968WAT      O36145   2.481   3.900   2.875
11968WAT     H136146   2.478   3.945   2.785
11968WAT     H236147   2.567   3.922   2.920
11969WAT      O36148   9.010   0.353   9.891
11969WAT     H136149   8.933   0.289   9.892
11969WAT     H236150   8.981   0.438   9.847
11970WAT      O36151   1.858   8.546   9.019
11970WAT     H136152   1.864   8.504   9.110
11970WAT     H236153   1.947   8.586   8.996
11971WAT      O36154   5.365   3.236   2.131
11971WAT     H136155   5.442   3.298   2.116
11971WAT     H236156   5.286   3.289   2.165
11972WAT      O36157   8.041   1.191   5.008
11972WAT     H136158   8.114   1.230   4.952
11972WAT     H236159   7.956   1.241   4.992
11973WAT      O36160   0.983   5.199   3.443
11973WAT     H136161   1.070   5.225   3.402
11973WAT     H236162   0.987   5.211   3.542
11974WAT      O36163   3.330   0.844   7.591
11974WAT     H136164   3.284   0.919   7.544
11974WAT     H236165   3.369   0.781   7.524
11975WAT      O36166   0.718   3.046   8.851
11975WAT     H136167   0.725   3.146   8.846
11975WAT     H236168   0.624   3.020   8.873
11976WAT      O36169   6.987   3.398   2.055
11976WAT     H136170   7.005   3.300   2.050
11976WAT     H236171   6.930   3.425   1.977
11977WAT      O36172   5.629   7.037   2.114
11977WAT     H136173   5.632   6.990   2.026
11977WAT     H236174   5.721   7.041   2.153
11978WAT      O36175   4.177   5.954   6.546
11978WAT     H136176   4.157   5.856   6.542
11978WAT     H236177   4.210   5.985   6.457
11979WAT      O36178   2.652   5.218   8.169
11979WAT     H136179   2.674   5.141   8.228
11979WAT     H236180   2.554   5.224   8.155
11980WAT      O36181   9.276   0.337   3.276
11980WAT     H136182   9.179   0.356   3.262
11980WAT     H236183   9.292   0.238   3.276
11981WAT      O36184   4.821   1.819   9.512
11981WAT     H136185   4.792   1.840   9.419
11981WAT     H236186   4.755   1.858   9.577
11982WAT      O36187   4.361   7.265   2.091
11982WAT     H136188   4.271   7.303   2.114
11982WAT     H236189   4.405   7.324   2.024
11983WAT      O36190   1.996   4.234   9.376
11983WAT     H136191   2.039   4.291   9.306
11983WAT     H236192   1.926   4.287   9.423
11984WAT      O36193   1.196   5.097   7.748
11984WAT     H136194   1.276   5.112   7.690
11984WAT     H236195   1.116   5.078   7.691
11985WAT      O36196   4.060   9.184   6.037
11985WAT     H136197   3.988   9.252   6.021
11985WAT     H236198   4.139   9.229   6.078
11986WAT      O36199   7.218   9.294   2.441
11986WAT     H136200   7.232   9.388   2.471
11986WAT     H236201   7.182   9.293   2.348
11987WAT      O36202   4.784   5.634   0.864
11987WAT     H136203   4.764   5.630   0.766
11987WAT     H236204   4.771   5.544   0.904
11988WAT      O36205   0.682   5.511   2.473
11988WAT     H136206   0.729   5.424   2.485
11988WAT     H236207   0.584   5.496   2.465
11989WAT      O36208   3.574   1.255   6.247
11989WAT     H136209   3.588   1.157   6.238
11989WAT     H236210   3.493   1.282   6.194
11990WAT      O36211   9.546   0.204   4.480
11990WAT     H136212   9.468   0.145   4.457
11990WAT     H236213   9.514   0.298   4.487
11991WAT      O36214   4.132   6.838   6.988
11991WAT     H136215   4.072   6.835   7.068
11991WAT     H236216   4.080   6.812   6.907
11992WAT      O36217   0.469   9.813   6.620
11992WAT     H136218   0.526   9.789   6.541
11992WAT     H236219   0.428   9.729   6.657
11993WAT      O36220   8.778   5.310   0.555
11993WAT     H136221   8.734   5.377   0.616
11993WAT     H236222   8.731   5.309   0.467
11994WAT      O36223   0.925   8.795   3.670
11994WAT     H136224   0.994   8.861   3.640
11994WAT     H236225   0.960   8.744   3.749
11995WAT      O36226   6.237   3.505   6.285
11995WAT     H136227   6.214   3.549   6.198
11995WAT     H236228   6.242   3.574   6.357
11996WAT      O36229   2.580   3.133   1.027
11996WAT     H136230   2.675   3.159   1.045
11996WAT     H236231   2.558   3.051   1.080
11997WAT      O36232   1.785   3.272   5.410
11997WAT     H136233   1.688   3.281   5.388
11997WAT     H236234   1.801   3.299   5.505
11998WAT      O36235   7.775   1.819   8.177
11998WAT     H136236   7.810   1.825   8.270
11998WAT     H236237   7.826   1.881   8.117
11999WAT      O36238   0.234   8.605   1.147
11999WAT     H136239   0.212   8.681   1.087
11999WAT     H236240   0.305   8.549   1.105
12000WAT      O36241   4.541   1.161   8.764
12000WAT     H136242   4.575   1.070   8.790
12000WAT     H236243   4.612   1.229   8.781
12001WAT      O36244   8.893   1.678   6.252
12001WAT     H136245   8.977   1.633   6.282
12001WAT     H236246   8.860   1.739   6.324
12002WAT      O36247   5.030   6.864   1.452
12002WAT     H136248   4.957   6.797   1.439
12002WAT     H236249   5.042   6.917   1.368
12003WAT      O36250   2.153   5.007   0.441
12003WAT     H136251   2.145   5.106   0.448
12003WAT     H236252   2.142   4.966   0.531
12004WAT      O36253   0.778   5.191   9.462
12004WAT     H136254   0.860   5.136   9.449
12004WAT     H236255   0.774   5.224   9.557
12005WAT      O36256   3.158   6.159   3.659
12005WAT     H136257   3.094   6.118   3.725
12005WAT     H236258   3.251   6.131   3.682
12006WAT      O36259   4.194   8.267   5.395
12006WAT     H136260   4.123   8.339   5.397
12006WAT     H236261   4.222   8.251   5.301
12007WAT      O36262   0.465   0.857   0.602
12007WAT     H136263   0.394   0.891   0.664
12007WAT     H236264   0.534   0.808   0.654
12008WAT      O36265   9.698   9.173   9.392
12008WAT     H136266   9.700   9.273   9.402
12008WAT     H236267   9.788   9.136   9.418
12009WAT      O36268   8.248   1.864   4.525
12009WAT     H136269   8.298   1.948   4.548
12009WAT     H236270   8.304   1.784   4.546
12010WAT      O36271   5.362   9.200   6.474
12010WAT     H136272   5.318   9.224   6.388
12010WAT     H236273   5.301   9.141   6.528
12011WAT      O36274   2.112   2.689   0.698
12011WAT     H136275   2.056   2.693   0.616
12011WAT     H236276   2.124   2.593   0.726
12012WAT      O36277   0.429   6.407   9.460
12012WAT     H136278   0.501   6.345   9.428
12012WAT     H236279   0.397   6.377   9.550
12013WAT      O36280   3.554   4.667   4.989
12013WAT     H136281   3.559   4.764   5.012
12013WAT     H236282   3.529   4.657   4.893
12014WAT      O36283   3.063   1.487   8.843
12014WAT     H136284   3.010   1.546   8.904
12014WAT     H236285   3.144   1.453   8.891
12015WAT      O36286   7.821   6.825   9.466
12015WAT     H136287   7.788   6.868   9.382
12015WAT     H236288   7.831   6.894   9.538
12016WAT      O36289   5.759   0.176   3.157
12016WAT     H136290   5.675   0.180   3.102
12016WAT     H236291   5.746   0.227   3.242
12017WAT      O36292   2.490   2.816   5.487
12017WAT     H136293   2.499   2.885   5.415
12017WAT     H236294   2.418   2.843   5.551
12018WAT      O36295   9.391   3.677   1.705
12018WAT     H136296   9.371   3.695   1.609
12018WAT     H236297   9.488   3.655   1.716
12019WAT      O36298   8.159   7.536   7.138
12019WAT     H136299   8.168   7.452   7.191
12019WAT     H236300   8.249   7.570   7.113
12020WAT      O36301   5.360   4.508   6.068
12020WAT     H136302   5.374   4.410   6.081
12020WAT     H236303   5.317   4.524   5.979
12021WAT      O36304   7.753   7.889   1.356
12021WAT     H136305   7.845   7.900   1.394
12021WAT     H236306   7.691   7.955   1.399
12022WAT      O36307   0.383   6.900   8.352
12022WAT     H136308   0.432   6.866   8.432
12022WAT     H236309   0.285   6.889   8.366
12023WAT      O36310   0.065   7.857   3.147
12023WAT     H136311   0.032   7.884   3.057
12023WAT     H236312  -0.004   7.800   3.192
12024WAT      O36313   0.766   7.771   7.986
12024WAT     H136314   0.793   7.799   8.079
12024WAT     H236315   0.839   7.793   7.922
12025WAT      O36316   2.929   4.187   0.559
12025WAT     H136317   2.859   4.236   0.611
12025WAT     H236318   2.981   4.127   0.620
12026WAT      O36319   5.760   8.917   0.141
12026WAT     H136320   5.729   8.967   0.060
12026WAT     H236321   5.683   8.897   0.201
12027WAT      O36322   6.870   0.781   3.508
12027WAT     H136323   6.905   0.855   3.566
12027WAT     H236324   6.819   0.821   3.432
12028WAT      O36325   7.768   4.020   4.072
12028WAT     H136326   7.792   3.962   4.149
12028WAT     H236327   7.669   4.017   4.058
12029WAT      O36328   2.388   6.442   4.135
12029WAT     H136329   2.486   6.419   4.138
12029WAT     H236330   2.373   6.515   4.068
12030WAT      O36331   2.648   5.413   5.967
12030WAT     H136332   2.716   5.372   6.027
12030WAT     H236333   2.664   5.383   5.873
12031WAT      O36334   3.259   3.394   8.950
12031WAT     H136335   3.166   3.356   8.954
12031WAT     H236336   3.325   3.319   8.949
12032WAT      O36337   1.849   4.987   0.842
12032WAT     H136338   1.852   4.919   0.768
12032WAT     H236339   1.798   4.950   0.919
12033WAT      O36340   6.092   3.573   0.606
12033WAT     H136341   6.145   3.502   0.558
12033WAT     H236342   6.100   3.560   0.704
12034WAT      O36343   8.985   4.117   1.174
12034WAT     H136344   8.980   4.169   1.089
12034WAT     H236345   8.925   4.158   1.242
12035WAT      O36346   8.928   8.200   9.223
12035WAT     H136347   8.973   8.283   9.190
12035WAT     H236348   8.838   8.225   9.261
12036WAT      O36349   8.080   9.191   2.546
12036WAT     H136350   8.048   9.206   2.452
12036WAT     H236351   8.005   9.211   2.609
12037WAT      O36352   9.461   5.111   2.675
12037WAT     H136353   9.450   5.113   2.774
12037WAT     H236354   9.555   5.088   2.652
12038WAT      O36355   5.940   3.819   5.145
12038WAT     H136356   5.996   3.838   5.065
12038WAT     H236357   5.997   3.780   5.217
12039WAT      O36358   0.682   5.968   7.775
12039WAT     H136359   0.644   6.043   7.721
12039WAT     H236360   0.779   5.956   7.752
12040WAT      O36361   8.025   5.878   5.914
12040WAT     H136362   8.102   5.848   5.857
12040WAT     H236363   7.991   5.800   5.967
12041WAT      O36364   7.178   2.957   0.574
12041WAT     H136365   7.113   2.900   0.524
12041WAT     H236366   7.214   3.028   0.514
12042WAT      O36367   1.048   9.684   0.369
12042WAT     H136368   1.130   9.670   0.425
12042WAT     H236369   1.036   9.782   0.353
12043WAT      O36370   5.807   9.390   8.799
12043WAT     H136371   5.872   9.386   8.876
12043WAT     H236372   5.838   9.460   8.734
12044WAT      O36373   5.067   5.628   4.181
12044WAT     H136374   5.090   5.547   4.233
12044WAT     H236375   5.146   5.688   4.174
12045WAT      O36376   5.897   0.453   0.362
12045WAT     H136377   5.909   0.520   0.435
12045WAT     H236378   5.886   0.500   0.275
12046WAT      O36379   3.763   6.974   0.623
12046WAT     H136380   3.820   6.942   0.547
12046WAT     H236381   3.821   7.009   0.696
12047WAT      O36382   8.393   6.830   9.261
12047WAT     H136383   8.301   6.869   9.264
12047WAT     H236384   8.391   6.738   9.300
12048WAT      O36385   9.192   2.330   0.299
12048WAT     H136386   9.247   2.251   0.326
12048WAT     H236387   9.205   2.347   0.201
12049WAT      O36388   8.487   1.821   5.189
12049WAT     H136389   8.527   1.777   5.109
12049WAT     H236390   8.390   1.838   5.173
12050WAT      O36391   7.091   1.900   1.213
12050WAT     H136392   7.110   1.891   1.115
12050WAT     H236393   6.993   1.913   1.226
12051WAT      O36394   9.515   5.459   4.966
12051WAT     H136395   9.517   5.502   4.876
12051WAT     H236396   9.474   5.368   4.959
12052WAT      O36397   0.218   0.913   6.406
12052WAT     H136398   0.158   0.900   6.327
12052WAT     H236399   0.296   0.969   6.379
12053WAT      O36400   3.900   8.071   8.558
12053WAT     H136401   3.932   8.163   8.537
12053WAT     H236402   3.812   8.055   8.513
12054WAT      O36403   4.957   1.488   5.935
12054WAT     H136404   4.904   1.565   5.899
12054WAT     H236405   5.001   1.440   5.860
12055WAT      O36406   3.288   5.269   8.451
12055WAT     H136407   3.300   5.217   8.536
12055WAT     H236408   3.283   5.366   8.472
12056WAT      O36409   7.468   8.333   6.682
12056WAT     H136410   7.457   8.233   6.687
12056WAT     H236411   7.384   8.374   6.646
12057WAT      O36412   3.644   7.312   6.566
12057WAT     H136413   3.735   7.353   6.569
12057WAT     H236414   3.625   7.265   6.652
12058WAT      O36415   8.428   2.437   7.388
12058WAT     H136416   8.398   2.454   7.482
12058WAT     H236417   8.397   2.511   7.329
12059WAT      O36418   0.761   6.825   1.273
12059WAT     H136419   0.806   6.798   1.188
12059WAT     H236420   0.663   6.834   1.258
12060WAT      O36421   8.621   5.749   7.306
12060WAT     H136422   8.609   5.709   7.215
12060WAT     H236423   8.670   5.836   7.298
12061WAT      O36424   3.230   8.965   4.894
12061WAT     H136425   3.201   8.939   4.986
12061WAT     H236426   3.189   8.903   4.827
12062WAT      O36427   5.404   0.139   6.126
12062WAT     H136428   5.309   0.111   6.112
12062WAT     H236429   5.449   0.074   6.187
12063WAT      O36430   1.750   6.212   7.753
12063WAT     H136431   1.752   6.308   7.724
12063WAT     H236432   1.718   6.206   7.847
12064WAT      O36433   8.207   3.377   9.438
12064WAT     H136434   8.239   3.456   9.386
12064WAT     H236435   8.166   3.310   9.375
12065WAT      O36436   5.608   9.751   4.871
12065WAT     H136437   5.598   9.850   4.885
12065WAT     H236438   5.699   9.722   4.902
12066WAT      O36439   7.072   9.219   6.775
12066WAT     H136440   6.979   9.182   6.781
12066WAT     H236441   7.094   9.238   6.679
12067WAT      O36442   5.269   3.550   6.852
12067WAT     H136443   5.224   3.464   6.877
12067WAT     H236444   5.200   3.621   6.840
12068WAT      O36445   7.965   6.918   1.496
12068WAT     H136446   7.879   6.963   1.519
12068WAT     H236447   7.949   6.822   1.476
12069WAT      O36448   7.489   5.251   8.729
12069WAT     H136449   7.496   5.347   8.701
12069WAT     H236450   7.575   5.204   8.709
12070WAT      O36451   9.359   8.065   5.881
12070WAT     H136452   9.441   8.106   5.842
12070WAT     H236453   9.316   8.130   5.944
12071WAT      O36454   6.680   8.909   9.849
12071WAT     H136455   6.753   8.976   9.864
12071WAT     H236456   6.616   8.911   9.926
12072WAT      O36457   8.782   0.107   8.448
12072WAT     H136458   8.842   0.060   8.384
12072WAT     H236459   8.818   0.098   8.541
12073WAT      O36460   0.495   6.250   4.854
12073WAT     H136461   0.567   6.238   4.923
12073WAT     H236462   0.533   6.294   4.774
12074WAT      O36463   6.944   6.882   0.220
12074WAT     H136464   6.900   6.968   0.195
12074WAT     H236465   6.947   6.873   0.319
12075WAT      O36466   3.136   4.695   9.503
12075WAT     H136467   3.118   4.786   9.542
12075WAT     H236468   3.166   4.705   9.408
12076WAT      O36469   2.363   2.774   2.863
12076WAT     H136470   2.284   2.816   2.819
12076WAT     H236471   2.358   2.675   2.851
12077WAT      O36472   3.246   8.110   5.888
12077WAT     H136473   3.341   8.081   5.889
12077WAT     H236474   3.240   8.208   5.909
12078WAT      O36475   8.305   3.672   7.589
12078WAT     H136476   8.284   3.577   7.569
12078WAT     H236477   8.384   3.677   7.650
12079WAT      O36478   1.413   5.718   4.719
12079WAT     H136479   1.384   5.793   4.661
12079WAT     H236480   1.372   5.632   4.687
12080WAT      O36481   5.975   8.033   3.237
12080WAT     H136482   6.020   8.122   3.251
12080WAT     H236483   5.937   8.002   3.324
12081WAT      O36484   5.448   5.177   9.579
12081WAT     H136485   5.523   5.179   9.512
12081WAT     H236486   5.455   5.256   9.640
12082WAT      O36487   2.541   0.921   4.414
12082WAT     H136488   2.539   0.877   4.504
12082WAT     H236489   2.541   1.020   4.425
12083WAT      O36490   4.535   6.740   4.753
12083WAT     H136491   4.601   6.668   4.731
12083WAT     H236492   4.557   6.778   4.843
12084WAT      O36493   3.344   3.283   7.261
12084WAT     H136494   3.438   3.315   7.248
12084WAT     H236495   3.280   3.351   7.225
12085WAT      O36496   6.448   5.794   1.533
12085WAT     H136497   6.518   5.735   1.494
12085WAT     H236498   6.403   5.747   1.609
12086WAT      O36499   3.915   7.029   4.951
12086WAT     H136500   3.905   6.931   4.963
12086WAT     H236501   3.902   7.053   4.855
12087WAT      O36502   0.484   6.187   7.051
12087WAT     H136503   0.399   6.136   7.046
12087WAT     H236504   0.541   6.151   7.125
12088WAT      O36505   9.034   1.354   0.002
12088WAT     H136506   9.005   1.438   0.048
12088WAT     H236507   9.108   1.375  -0.063
12089WAT      O36508   8.481   6.642   8.370
12089WAT     H136509   8.402   6.695   8.398
12089WAT     H236510   8.498   6.656   8.272
12090WAT      O36511   3.548   8.057   5.863
12090WAT     H136512   3.640   8.077   5.896
12090WAT     H236513   3.550   7.975   5.805
12091WAT      O36514   2.044   7.262   8.244
12091WAT     H136515   2.022   7.227   8.334
12091WAT     H236516   1.960   7.281   8.194
12092WAT      O36517   5.869   0.808   0.327
12092WAT     H136518   5.830   0.894   0.359
12092WAT     H236519   5.881   0.745   0.404
12093WAT      O36520   6.685   3.825   2.344
12093WAT     H136521   6.755   3.801   2.411
12093WAT     H236522   6.673   3.750   2.279
12094WAT      O36523   8.100   2.952   7.818
12094WAT     H136524   8.102   2.852   7.817
12094WAT     H236525   8.191   2.987   7.841
12095WAT      O36526   8.159   6.329   8.308
12095WAT     H136527   8.146   6.318   8.210
12095WAT     H236528   8.126   6.247   8.356
12096WAT      O36529   2.620   3.009   8.383
12096WAT     H136530   2.697   2.985   8.324
12096WAT     H236531   2.558   2.932   8.391
12097WAT      O36532   5.325   8.180   7.183
12097WAT     H136533   5.378   8.096   7.175
12097WAT     H236534   5.236   8.168   7.141
12098WAT      O36535   3.006   8.557   5.058
12098WAT     H136536   3.030   8.559   5.156
12098WAT     H236537   3.087   8.532   5.005
12099WAT      O36538   9.211   4.814   2.691
12099WAT     H136539   9.204   4.744   2.762
12099WAT     H236540   9.176   4.901   2.726
12100WAT      O36541   8.318   8.848   0.993
12100WAT     H136542   8.408   8.891   0.987
12100WAT     H236543   8.253   8.898   0.935
12101WAT      O36544   7.821   4.806   7.887
12101WAT     H136545   7.748   4.740   7.865
12101WAT     H236546   7.797   4.856   7.970
12102WAT      O36547   0.902   3.045   1.366
12102WAT     H136548   0.949   3.097   1.295
12102WAT     H236549   0.815   3.089   1.388
12103WAT      O36550   8.918   5.111   5.303
12103WAT     H136551   8.960   5.155   5.382
12103WAT     H236552   8.886   5.181   5.239
12104WAT      O36553   5.893   8.956   3.402
12104WAT     H136554   5.819   8.918   3.346
12104WAT     H236555   5.981   8.920   3.368
12105WAT      O36556   4.373   4.584   3.243
12105WAT     H136557   4.336   4.495   3.218
12105WAT     H236558   4.310   4.629   3.307
12106WAT      O36559   8.160   6.930   1.215
12106WAT     H136560   8.249   6.892   1.190
12106WAT     H236561   8.115   6.869   1.281
12107WAT      O36562   8.540   5.385   8.832
12107WAT     H136563   8.527   5.314   8.764
12107WAT     H236564   8.638   5.402   8.844
12108WAT      O36565   8.902   6.683   0.915
12108WAT     H136566   8.805   6.705   0.926
12108WAT     H236567   8.929   6.614   0.981
12109WAT      O36568   6.046   1.944   8.563
12109WAT     H136569   5.969   1.893   8.602
12109WAT     H236570   6.130   1.891   8.573
12110WAT      O36571   0.640   4.141   3.280
12110WAT     H136572   0.602   4.148   3.373
12110WAT     H236573   0.599   4.212   3.223
12111WAT      O36574   4.806   8.608   7.399
12111WAT     H136575   4.716   8.650   7.411
12111WAT     H236576   4.823   8.594   7.301
12112WAT      O36577   2.255   4.291   4.834
12112WAT     H136578   2.176   4.282   4.774
12112WAT     H236579   2.273   4.388   4.851
12113WAT      O36580   5.977   7.082   0.890
12113WAT     H136581   5.914   7.158   0.904
12113WAT     H236582   5.984   7.062   0.792
12114WAT      O36583   3.991   2.210   6.246
12114WAT     H136584   3.995   2.303   6.211
12114WAT     H236585   4.058   2.152   6.199
12115WAT      O36586   8.273   4.754   9.801
12115WAT     H136587   8.236   4.683   9.862
12115WAT     H236588   8.323   4.711   9.726
12116WAT      O36589   0.154   3.628   0.885
12116WAT     H136590   0.183   3.643   0.980
12116WAT     H236591   0.073   3.683   0.866
12117WAT      O36592   1.137   7.007   4.429
12117WAT     H136593   1.116   7.101   4.402
12117WAT     H236594   1.139   7.000   4.528
12118WAT      O36595   1.556   0.800   3.318
12118WAT     H136596   1.587   0.891   3.346
12118WAT     H236597   1.615   0.730   3.359
12119WAT      O36598   3.249   6.905   4.451
12119WAT     H136599   3.298   6.990   4.470
12119WAT     H236600   3.233   6.897   4.353
12120WAT      O36601   7.496   1.255   2.840
12120WAT     H136602   7.537   1.167   2.817
12120WAT     H236603   7.453   1.294   2.759
12121WAT      O36604   4.298   1.367   1.765
12121WAT     H136605   4.249   1.292   1.721
12121WAT     H236606   4.354   1.415   1.698
12122WAT      O36607   5.532   0.191   7.977
12122WAT     H136608   5.630   0.190   7.961
12122WAT     H236609   5.484   0.181   7.890
12123WAT      O36610   2.019   8.508   7.610
12123WAT     H136611   2.041   8.420   7.652
12123WAT     H236612   2.032   8.503   7.511
12124WAT      O36613   0.110   4.781   2.947
12124WAT     H136614   0.125   4.683   2.940
12124WAT     H236615   0.116   4.809   3.043
12125WAT      O36616   5.208   8.040   2.455
12125WAT     H136617   5.247   8.132   2.455
12125WAT     H236618   5.274   7.976   2.495
12126WAT      O36619   3.462   1.914   8.895
12126WAT     H136620   3.492   1.823   8.868
12126WAT     H236621   3.484   1.929   8.991
12127WAT      O36622   0.604   9.330   7.095
12127WAT     H136623   0.691   9.323   7.046
12127WAT     H236624   0.534   9.368   7.034
12128WAT      O36625   0.856   4.840   6.180
12128WAT     H136626   0.793   4.847   6.257
12128WAT     H236627   0.885   4.745   6.168
12129WAT      O36628   0.858   3.283   2.377
12129WAT     H136629   0.801   3.234   2.443
12129WAT     H236630   0.823   3.268   2.285
12130WAT      O36631   3.790   5.640   6.681
12130WAT     H136632   3.826   5.634   6.774
12130WAT     H236633   3.848   5.586   6.619
12131WAT      O36634   0.622   7.373   3.552
12131WAT     H136635   0.623   7.411   3.644
12131WAT     H236636   0.555   7.423   3.497
12132WAT      O36637   9.118   2.245   9.778
12132WAT     H136638   9.190   2.178   9.760
12132WAT     H236639   9.039   2.225   9.720
12133WAT      O36640   4.323   6.564   0.664
12133WAT     H136641   4.389   6.628   0.704
12133WAT     H236642   4.360   6.529   0.578
12134WAT      O36643   6.948   9.744   7.232
12134WAT     H136644   6.856   9.704   7.231
12134WAT     H236645   6.941   9.842   7.251
12135WAT      O36646   5.922   3.772   9.808
12135WAT     H136647   5.904   3.677   9.783
12135WAT     H236648   5.982   3.813   9.740
12136WAT      O36649   1.986   5.311   4.513
12136WAT     H136650   2.069   5.281   4.465
12136WAT     H236651   1.905   5.286   4.459
12137WAT      O36652   6.027   4.689   2.751
12137WAT     H136653   5.966   4.727   2.681
12137WAT     H236654   5.974   4.666   2.833
12138WAT      O36655   0.770   1.099   5.591
12138WAT     H136656   0.799   1.174   5.533
12138WAT     H236657   0.849   1.040   5.612
12139WAT      O36658   1.629   9.426   2.418
12139WAT     H136659   1.551   9.482   2.388
12139WAT     H236660   1.594   9.342   2.460
12140WAT      O36661   3.205   8.768   6.769
12140WAT     H136662   3.289   8.822   6.758
12140WAT     H236663   3.127   8.831   6.778
12141WAT      O36664   9.072   7.100   1.741
12141WAT     H136665   9.125   7.020   1.769
12141WAT     H236666   9.012   7.075   1.665
12142WAT      O36667   6.635   7.263   1.811
12142WAT     H136668   6.647   7.351   1.765
12142WAT     H236669   6.621   7.191   1.743
12143WAT      O36670   2.358   0.839   6.608
12143WAT     H136671   2.433   0.806   6.665
12143WAT     H236672   2.373   0.810   6.513
12144WAT      O36673   3.762   2.810   3.556
12144WAT     H136674   3.712   2.730   3.523
12144WAT     H236675   3.716   2.848   3.636
12145WAT      O36676   5.787   7.000   0.089
12145WAT     H136677   5.794   6.905   0.058
12145WAT     H236678   5.703   7.011   0.142
12146WAT      O36679   9.819   6.345   1.522
12146WAT     H136680   9.732   6.392   1.534
12146WAT     H236681   9.840   6.337   1.425
12147WAT      O36682   3.249   5.920   4.993
12147WAT     H136683   3.176   5.976   4.953
12147WAT     H236684   3.215   5.827   5.006
12148WAT      O36685   7.069   2.771   5.437
12148WAT     H136686   7.001   2.839   5.412
12148WAT     H236687   7.152   2.785   5.382
12149WAT      O36688   4.467   0.854   0.173
12149WAT     H136689   4.513   0.819   0.092
12149WAT     H236690   4.431   0.945   0.155
12150WAT      O36691   1.062   0.515   7.352
12150WAT     H136692   1.014   0.546   7.434
12150WAT     H236693   1.051   0.582   7.279
12151WAT      O36694   5.550   1.044   7.893
12151WAT     H136695   5.475   1.076   7.950
12151WAT     H236696   5.637   1.070   7.935
12152WAT      O36697   7.108   8.523   1.352
12152WAT     H136698   7.097   8.561   1.444
12152WAT     H236699   7.022   8.482   1.322
12153WAT      O36700   3.551   6.390   7.266
12153WAT     H136701   3.503   6.303   7.277
12153WAT     H236702   3.543   6.444   7.350
12154WAT      O36703   2.239   0.255   0.134
12154WAT     H136704   2.294   0.209   0.065
12154WAT     H236705   2.295   0.324   0.181
12155WAT      O36706   2.458   1.712   7.707
12155WAT     H136707   2.432   1.739   7.614
12155WAT     H236708   2.551   1.675   7.706
12156WAT      O36709   1.831   2.522   8.133
12156WAT     H136710   1.822   2.605   8.187
12156WAT     H236711   1.769   2.451   8.168
12157WAT      O36712   2.451   9.570   1.521
12157WAT     H136713   2.467   9.567   1.619
12157WAT     H236714   2.359   9.536   1.500
12158WAT      O36715   1.823   5.188   1.170
12158WAT     H136716   1.811   5.090   1.185
12158WAT     H236717   1.804   5.238   1.255
12159WAT      O36718   7.570   2.421   8.138
12159WAT     H136719   7.578   2.519   8.123
12159WAT     H236720   7.634   2.372   8.079
12160WAT      O36721   4.741   4.557   6.267
12160WAT     H136722   4.796   4.532   6.188
12160WAT     H236723   4.663   4.494   6.274
12161WAT      O36724   0.122   1.797   6.546
12161WAT     H136725   0.218   1.809   6.573
12161WAT     H236726   0.064   1.799   6.627
12162WAT      O36727   1.296   4.935   6.310
12162WAT     H136728   1.345   4.851   6.334
12162WAT     H236729   1.234   4.918   6.234
12163WAT      O36730   3.640   1.725   6.074
12163WAT     H136731   3.723   1.771   6.107
12163WAT     H236732   3.573   1.720   6.147
12164WAT      O36733   6.380   0.621   4.793
12164WAT     H136734   6.294   0.630   4.842
12164WAT     H236735   6.456   0.626   4.857
12165WAT      O36736   1.085   0.482   2.190
12165WAT     H136737   0.988   0.466   2.205
12165WAT     H236738   1.107   0.577   2.210
12166WAT      O36739   4.417   1.064   3.202
12166WAT     H136740   4.401   1.149   3.151
12166WAT     H236741   4.488   1.010   3.156
12167WAT      O36742   6.831   5.687   9.646
12167WAT     H136743   6.796   5.594   9.631
12167WAT     H236744   6.922   5.683   9.686
12168WAT      O36745   6.672   1.352   6.824
12168WAT     H136746   6.592   1.292   6.829
12168WAT     H236747   6.648   1.435   6.775
12169WAT      O36748   8.386   1.031   7.712
12169WAT     H136749   8.355   1.069   7.798
12169WAT     H236750   8.333   1.070   7.637
12170WAT      O36751   8.458   2.310   9.589
12170WAT     H136752   8.522   2.366   9.536
12170WAT     H236753   8.442   2.353   9.677
12171WAT      O36754   3.355   6.108   2.921
12171WAT     H136755   3.266   6.125   2.963
12171WAT     H236756   3.344   6.047   2.842
12172WAT      O36757   4.184   7.880   8.226
12172WAT     H136758   4.152   7.893   8.320
12172WAT     H236759   4.125   7.932   8.164
12173WAT      O36760   6.075   4.848   3.060
12173WAT     H136761   6.146   4.878   2.996
12173WAT     H236762   6.057   4.750   3.046
12174WAT      O36763   5.248   0.638   2.014
12174WAT     H136764   5.229   0.586   1.930
12174WAT     H236765   5.304   0.582   2.076
12175WAT      O36766   3.207   6.116   8.014
12175WAT     H136767   3.159   6.030   8.029
12175WAT     H236768   3.282   6.102   7.949
12176WAT      O36769   4.415   2.378   5.197
12176WAT     H136770   4.364   2.299   5.165
12176WAT     H236771   4.461   2.422   5.119
12177WAT      O36772   6.773   1.754   3.516
12177WAT     H136773   6.811   1.819   3.450
12177WAT     H236774   6.841   1.684   3.537
12178WAT      O36775   6.831   5.788   7.854
12178WAT     H136776   6.895   5.715   7.828
12178WAT     H236777   6.743   5.773   7.808
12179WAT      O36778   0.770   7.100   6.989
12179WAT     H136779   0.792   7.181   7.044
12179WAT     H236780   0.854   7.055   6.960
12180WAT      O36781   6.023   8.609   4.458
12180WAT     H136782   6.108   8.557   4.463
12180WAT     H236783   6.026   8.672   4.381
12181WAT      O36784   7.228   8.727   7.555
12181WAT     H136785   7.223   8.787   7.635
12181WAT     H236786   7.139   8.726   7.509
12182WAT      O36787   9.734   3.336   8.981
12182WAT     H136788   9.716   3.296   8.891
12182WAT     H236789   9.743   3.435   8.972
12183WAT      O36790   8.366   5.493   3.675
12183WAT     H136791   8.356   5.544   3.761
12183WAT     H236792   8.462   5.482   3.654
12184WAT      O36793   8.207   0.418   2.359
12184WAT     H136794   8.178   0.401   2.265
12184WAT     H236795   8.252   0.507   2.364
12185WAT      O36796   2.522   1.773   3.036
12185WAT     H136797   2.495   1.722   2.954
12185WAT     H236798   2.440   1.797   3.088
12186WAT      O36799   0.235   1.621   2.135
12186WAT     H136800   0.243   1.677   2.217
12186WAT     H236801   0.202   1.678   2.059
12187WAT      O36802   8.400   4.688   1.554
12187WAT     H136803   8.356   4.696   1.643
12187WAT     H236804   8.376   4.766   1.497
12188WAT      O36805   2.725   8.651   5.234
12188WAT     H136806   2.772   8.672   5.149
12188WAT     H236807   2.786   8.600   5.295
12189WAT      O36808   9.231   9.197   4.755
12189WAT     H136809   9.132   9.195   4.751
12189WAT     H236810   9.269   9.201   4.662
12190WAT      O36811   8.998   0.631   9.782
12190WAT     H136812   9.077   0.659   9.837
12190WAT     H236813   9.000   0.680   9.695
12191WAT      O36814   4.865   6.491   4.158
12191WAT     H136815   4.849   6.513   4.254
12191WAT     H236816   4.942   6.427   4.150
12192WAT      O36817   5.089   7.499   3.760
12192WAT     H136818   5.154   7.551   3.816
12192WAT     H236819   5.008   7.477   3.815
12193WAT      O36820   7.061   7.160   9.451
12193WAT     H136821   7.071   7.146   9.550
12193WAT     H236822   7.149   7.145   9.406
12194WAT      O36823   9.333   7.163   8.527
12194WAT     H136824   9.315   7.114   8.612
12194WAT     H236825   9.248   7.180   8.479
12195WAT      O36826   8.399   5.125   0.840
12195WAT     H136827   8.376   5.029   0.855
12195WAT     H236828   8.495   5.141   0.862
12196WAT      O36829   2.518   8.239   8.929
12196WAT     H136830   2.446   8.255   8.997
12196WAT     H236831   2.476   8.218   8.841
12197WAT      O36832   9.181   1.651   0.220
12197WAT     H136833   9.106   1.616   0.164
12197WAT     H236834   9.261   1.593   0.209
12198WAT      O36835   5.579   9.659   5.183
12198WAT     H136836   5.481   9.676   5.183
12198WAT     H236837   5.598   9.568   5.146
12199WAT      O36838   9.794   3.758   2.190
12199WAT     H136839   9.893   3.748   2.186
12199WAT     H236840   9.770   3.834   2.251
12200WAT      O36841   0.108   3.878   8.615
12200WAT     H136842   0.071   3.788   8.595
12200WAT     H236843   0.108   3.933   8.531
12201WAT      O36844   7.648   8.108   7.422
12201WAT     H136845   7.625   8.169   7.499
12201WAT     H236846   7.566   8.059   7.394
12202WAT      O36847   7.947   6.957   7.953
12202WAT     H136848   8.042   6.939   7.928
12202WAT     H236849   7.895   6.984   7.872
12203WAT      O36850   6.072   5.788   9.013
12203WAT     H136851   6.026   5.873   8.986
12203WAT     H236852   6.099   5.737   8.931
12204WAT      O36853   4.591   1.242   0.027
12204WAT     H136854   4.652   1.175  -0.014
12204WAT     H236855   4.525   1.196   0.086
12205WAT      O36856   1.023   5.464   9.348
12205WAT     H136857   1.071   5.513   9.275
12205WAT     H236858   0.926   5.453   9.323
12206WAT      O36859   8.316   6.039   9.595
12206WAT     H136860   8.310   6.088   9.682
12206WAT     H236861   8.253   6.081   9.530
12207WAT      O36862   6.068   9.827   0.846
12207WAT     H136863   6.001   9.758   0.876
12207WAT     H236864   6.151   9.781   0.817
12208WAT      O36865   5.710   4.859   7.535
12208WAT     H136866   5.694   4.784   7.472
12208WAT     H236867   5.623   4.889   7.574
12209WAT      O36868   5.700   2.410   8.025
12209WAT     H136869   5.641   2.353   8.083
12209WAT     H236870   5.650   2.437   7.943
12210WAT      O36871   6.509   7.153   9.272
12210WAT     H136872   6.579   7.109   9.328
12210WAT     H236873   6.437   7.190   9.331
12211WAT      O36874   6.032   6.171   9.816
12211WAT     H136875   6.048   6.073   9.800
12211WAT     H236876   6.085   6.225   9.751
12212WAT      O36877   2.420   8.709   7.236
12212WAT     H136878   2.406   8.625   7.290
12212WAT     H236879   2.366   8.783   7.275
12213WAT      O36880   9.554   0.547   6.090
12213WAT     H136881   9.575   0.449   6.093
12213WAT     H236882   9.630   0.599   6.128
12214WAT      O36883   1.405   1.889   3.723
12214WAT     H136884   1.320   1.856   3.764
12214WAT     H236885   1.392   1.984   3.693
12215WAT      O36886   1.610   7.089   8.126
12215WAT     H136887   1.534   7.143   8.164
12215WAT     H236888   1.691   7.147   8.118
12216WAT      O36889   4.567   0.637   5.373
12216WAT     H136890   4.516   0.603   5.294
12216WAT     H236891   4.558   0.572   5.448
12217WAT      O36892   5.986   9.640   9.615
12217WAT     H136893   5.965   9.545   9.639
12217WAT     H236894   5.907   9.698   9.633
12218WAT      O36895   5.388   1.089   2.035
12218WAT     H136896   5.332   1.067   2.115
12218WAT     H236897   5.408   1.006   1.984
12219WAT      O36898   9.814   7.908   2.917
12219WAT     H136899   9.725   7.863   2.908
12219WAT     H236900   9.825   7.976   2.844
12220WAT      O36901   4.965   0.356   3.594
12220WAT     H136902   4.931   0.270   3.633
12220WAT     H236903   5.024   0.335   3.516
12221WAT      O36904   7.810   7.827   9.561
12221WAT     H136905   7.890   7.801   9.615
12221WAT     H236906   7.830   7.910   9.509
12222WAT      O36907   0.386   6.418   7.888
12222WAT     H136908   0.412   6.512   7.910
12222WAT     H236909   0.376   6.365   7.972
12223WAT      O36910   4.527   0.859   0.755
12223WAT     H136911   4.496   0.938   0.808
12223WAT     H236912   4.448   0.803   0.729
12224WAT      O36913   6.239   5.670   8.080
12224WAT     H136914   6.147   5.710   8.088
12224WAT     H236915   6.235   5.591   8.019
12225WAT      O36916   3.621   9.659   5.440
12225WAT     H136917   3.551   9.680   5.508
12225WAT     H236918   3.690   9.598   5.479
12226WAT      O36919   6.709   7.841   8.223
12226WAT     H136920   6.692   7.857   8.320
12226WAT     H236921   6.795   7.791   8.213
12227WAT      O36922   1.155   7.725   9.095
12227WAT     H136923   1.131   7.628   9.085
12227WAT     H236924   1.161   7.768   9.005
12228WAT      O36925   2.756   3.719   9.353
12228WAT     H136926   2.685   3.653   9.378
12228WAT     H236927   2.720   3.780   9.283
12229WAT      O36928   0.798   4.970   7.616
12229WAT     H136929   0.778   4.877   7.585
12229WAT     H236930   0.728   5.032   7.580
12230WAT      O36931   8.664   8.433   3.882
12230WAT     H136932   8.602   8.392   3.949
12230WAT     H236933   8.618   8.437   3.793
12231WAT      O36934   7.121   4.492   7.899
12231WAT     H136935   7.052   4.538   7.955
12231WAT     H236936   7.077   4.428   7.836
12232WAT      O36937   8.731   5.898   9.277
12232WAT     H136938   8.822   5.938   9.287
12232WAT     H236939   8.663   5.961   9.316
12233WAT      O36940   1.941   0.479   7.273
12233WAT     H136941   2.005   0.446   7.204
12233WAT     H236942   1.861   0.519   7.228
12234WAT      O36943   9.269   7.979   8.763
12234WAT     H136944   9.169   7.974   8.771
12234WAT     H236945   9.310   7.907   8.819
12235WAT      O36946   9.075   2.159   8.224
12235WAT     H136947   9.042   2.236   8.278
12235WAT     H236948   9.012   2.082   8.232
12236WAT      O36949   2.727   1.975   6.672
12236WAT     H136950   2.789   1.907   6.712
12236WAT     H236951   2.745   1.984   6.575
12237WAT      O36952   1.932   1.249   9.422
12237WAT     H136953   1.874   1.297   9.357
12237WAT     H236954   1.967   1.165   9.380
12238WAT      O36955   8.275   1.267   4.867
12238WAT     H136956   8.355   1.319   4.836
12238WAT     H236957   8.300   1.170   4.877
12239WAT      O36958   4.978   0.188   4.335
12239WAT     H136959   4.985   0.112   4.271
12239WAT     H236960   4.992   0.274   4.287
12240WAT      O36961   8.505   1.683   5.840
12240WAT     H136962   8.438   1.609   5.845
12240WAT     H236963   8.465   1.760   5.789
12241WAT      O36964   2.354   1.863   4.526
12241WAT     H136965   2.285   1.803   4.567
12241WAT     H236966   2.440   1.813   4.517
12242WAT      O36967   5.884   7.764   9.746
12242WAT     H136968   5.915   7.674   9.714
12242WAT     H236969   5.901   7.772   9.844
12243WAT      O36970   2.505   7.800   8.401
12243WAT     H136971   2.547   7.791   8.491
12243WAT     H236972   2.547   7.877   8.352
12244WAT      O36973   0.080   5.823   8.663
12244WAT     H136974   0.148   5.823   8.736
12244WAT     H236975   0.126   5.820   8.574
12245WAT      O36976   7.169   3.577   5.335
12245WAT     H136977   7.082   3.600   5.292
12245WAT     H236978   7.232   3.543   5.266
12246WAT      O36979   8.452   7.408   8.711
12246WAT     H136980   8.469   7.451   8.623
12246WAT     H236981   8.364   7.441   8.747
12247WAT      O36982   2.380   4.522   7.434
12247WAT     H136983   2.283   4.496   7.436
12247WAT     H236984   2.404   4.558   7.344
12248WAT      O36985   4.175   5.363   1.793
12248WAT     H136986   4.137   5.353   1.701
12248WAT     H236987   4.101   5.382   1.858
12249WAT      O36988   2.471   8.207   5.064
12249WAT     H136989   2.567   8.184   5.045
12249WAT     H236990   2.434   8.260   4.989
12250WAT      O36991   9.596   3.769   1.017
12250WAT     H136992   9.608   3.690   1.076
12250WAT     H236993   9.632   3.851   1.062
12251WAT      O36994   2.816   6.763   1.696
12251WAT     H136995   2.856   6.794   1.610
12251WAT     H236996   2.717   6.754   1.686
12252WAT      O36997   8.778   0.817   5.112
12252WAT     H136998   8.838   0.760   5.055
12252WAT     H236999   8.739   0.761   5.185
12253WAT      O37000   3.048   2.734   0.001
12253WAT     H137001   3.105   2.692   0.071
12253WAT     H237002   2.959   2.759   0.041
12254WAT      O37003   8.611   8.346   0.180
12254WAT     H137004   8.532   8.406   0.194
12254WAT     H237005   8.636   8.302   0.266
12255WAT      O37006   3.038   4.612   0.895
12255WAT     H137007   3.009   4.518   0.878
12255WAT     H237008   3.132   4.612   0.929
12256WAT      O37009   9.441   9.266   8.236
12256WAT     H137010   9.411   9.271   8.332
12256WAT     H237011   9.386   9.198   8.188
12257WAT      O37012   9.190   7.215   2.876
12257WAT     H137013   9.233   7.175   2.796
12257WAT     H237014   9.209   7.314   2.878
12258WAT      O37015   5.133   9.631   9.544
12258WAT     H137016   5.076   9.550   9.535
12258WAT     H237017   5.193   9.639   9.465
12259WAT      O37018   0.766   1.855   7.566
12259WAT     H137019   0.788   1.773   7.618
12259WAT     H237020   0.689   1.902   7.609
12260WAT      O37021   6.436   1.813   8.442
12260WAT     H137022   6.351   1.791   8.489
12260WAT     H237023   6.508   1.831   8.509
12261WAT      O37024   8.514   1.614   1.010
12261WAT     H137025   8.595   1.575   0.965
12261WAT     H237026   8.537   1.638   1.104
12262WAT      O37027   2.054   4.677   4.470
12262WAT     H137028   2.036   4.770   4.503
12262WAT     H237029   2.075   4.680   4.372
12263WAT      O37030   6.311   8.609   8.991
12263WAT     H137031   6.380   8.614   8.918
12263WAT     H237032   6.220   8.617   8.950
12264WAT      O37033   9.768   3.267   0.177
12264WAT     H137034   9.716   3.349   0.154
12264WAT     H237035   9.747   3.239   0.271
12265WAT      O37036   7.529   5.932   1.038
12265WAT     H137037   7.461   5.988   0.990
12265WAT     H237038   7.586   5.885   0.970
12266WAT      O37039   0.329   9.128   6.434
12266WAT     H137040   0.415   9.093   6.473
12266WAT     H237041   0.259   9.056   6.440
12267WAT      O37042   6.724   3.399   0.855
12267WAT     H137043   6.690   3.429   0.944
12267WAT     H237044   6.817   3.434   0.840
12268WAT      O37045   7.676   0.474   2.993
12268WAT     H137046   7.585   0.442   2.964
12268WAT     H237047   7.740   0.465   2.917
12269WAT      O37048   2.748   8.880   4.809
12269WAT     H137049   2.766   8.850   4.716
12269WAT     H237050   2.650   8.888   4.824
12270WAT      O37051   3.384   8.045   9.143
12270WAT     H137052   3.464   8.006   9.189
12270WAT     H237053   3.409   8.073   9.050
12271WAT      O37054   4.670   9.499   3.691
12271WAT     H137055   4.591   9.544   3.649
12271WAT     H237056   4.654   9.400   3.694
12272WAT      O37057   4.596   0.641   6.947
12272WAT     H137058   4.614   0.739   6.946
12272WAT     H237059   4.636   0.599   7.028
12273WAT      O37060   7.966   3.246   8.563
12273WAT     H137061   8.062   3.233   8.539
12273WAT     H237062   7.958   3.256   8.663
12274WAT      O37063   7.121   6.484   3.874
12274WAT     H137064   7.129   6.385   3.858
12274WAT     H237065   7.043   6.501   3.934
12275WAT      O37066   6.117   2.335   8.803
12275WAT     H137067   6.066   2.273   8.743
12275WAT     H237068   6.065   2.419   8.816
12276WAT      O37069   2.110   3.014   3.555
12276WAT     H137070   2.067   3.033   3.644
12276WAT     H237071   2.208   3.003   3.567
12277WAT      O37072   4.995   9.085   5.269
12277WAT     H137073   4.988   8.997   5.223
12277WAT     H237074   5.022   9.156   5.203
12278WAT      O37075   7.835   2.290   1.625
12278WAT     H137076   7.795   2.286   1.533
12278WAT     H237077   7.880   2.378   1.638
12279WAT      O37078   2.517   3.481   6.461
12279WAT     H137079   2.440   3.485   6.397
12279WAT     H237080   2.560   3.391   6.455
12280WAT      O37081   8.339   7.658   5.961
12280WAT     H137082   8.423   7.702   5.992
12280WAT     H237083   8.336   7.564   5.996
12281WAT      O37084   2.603   2.506   0.034
12281WAT     H137085   2.695   2.516   0.071
12281WAT     H237086   2.552   2.591   0.046
12282WAT      O37087   7.860   3.735   7.317
12282WAT     H137088   7.844   3.673   7.394
12282WAT     H237089   7.902   3.685   7.242
12283WAT      O37090   7.298   2.712   1.217
12283WAT     H137091   7.336   2.765   1.141
12283WAT     H237092   7.222   2.657   1.185
12284WAT      O37093   5.132   0.334   3.355
12284WAT     H137094   5.186   0.412   3.323
12284WAT     H237095   5.078   0.297   3.279
12285WAT      O37096   2.896   2.676   0.380
12285WAT     H137097   2.932   2.635   0.464
12285WAT     H237098   2.961   2.743   0.345
12286WAT      O37099   2.367   0.898   7.918
12286WAT     H137100   2.340   0.927   8.010
12286WAT     H237101   2.442   0.955   7.885
12287WAT      O37102   9.733   8.651   1.148
12287WAT     H137103   9.745   8.689   1.239
12287WAT     H237104   9.820   8.613   1.116
12288WAT      O37105   7.031   6.957   9.168
12288WAT     H137106   7.116   6.908   9.149
12288WAT     H237107   6.954   6.904   9.134
12289WAT      O37108   9.518   6.374   2.225
12289WAT     H137109   9.430   6.407   2.260
12289WAT     H237110   9.567   6.328   2.298
12290WAT      O37111   8.642   5.772   1.793
12290WAT     H137112   8.688   5.793   1.707
12290WAT     H237113   8.709   5.771   1.867
12291WAT      O37114   2.200   7.518   0.849
12291WAT     H137115   2.174   7.579   0.774
12291WAT     H237116   2.225   7.572   0.929
12292WAT      O37117   2.122   9.823   6.474
12292WAT     H137118   2.052   9.862   6.534
12292WAT     H237119   2.211   9.825   6.520
12293WAT      O37120   6.217   4.194   0.592
12293WAT     H137121   6.282   4.252   0.543
12293WAT     H237122   6.259   4.104   0.609
12294WAT      O37123   4.027   4.879   2.764
12294WAT     H137124   3.994   4.936   2.689
12294WAT     H237125   4.007   4.783   2.744
12295WAT      O37126   8.069   4.000   0.308
12295WAT     H137127   8.011   3.953   0.375
12295WAT     H237128   8.031   4.091   0.290
12296WAT      O37129   0.481   7.280   4.114
12296WAT     H137130   0.406   7.250   4.055
12296WAT     H237131   0.505   7.207   4.178
12297WAT      O37132   0.185   9.482   8.448
12297WAT     H137133   0.187   9.582   8.450
12297WAT     H237134   0.266   9.447   8.401
12298WAT      O37135   1.132   0.750   2.213
12298WAT     H137136   1.224   0.730   2.181
12298WAT     H237137   1.130   0.840   2.258
12299WAT      O37138   4.961   0.997   4.776
12299WAT     H137139   5.010   0.937   4.713
12299WAT     H237140   4.973   0.963   4.869
12300WAT      O37141   9.224   0.968   4.972
12300WAT     H137142   9.254   0.955   4.877
12300WAT     H237143   9.175   1.055   4.980
12301WAT      O37144   6.106   4.722   9.787
12301WAT     H137145   6.012   4.710   9.821
12301WAT     H237146   6.106   4.719   9.687
12302WAT      O37147   2.118   7.528   1.322
12302WAT     H137148   2.048   7.508   1.253
12302WAT     H237149   2.153   7.443   1.360
12303WAT      O37150   3.180   6.539   4.477
12303WAT     H137151   3.202   6.557   4.381
12303WAT     H237152   3.262   6.510   4.525
12304WAT      O37153   8.936   8.304   3.265
12304WAT     H137154   9.006   8.375   3.270
12304WAT     H237155   8.951   8.236   3.338
12305WAT      O37156   8.360   5.680   3.306
12305WAT     H137157   8.365   5.768   3.259
12305WAT     H237158   8.308   5.689   3.390
12306WAT      O37159   7.913   4.859   2.394
12306WAT     H137160   7.914   4.893   2.487
12306WAT     H237161   7.841   4.790   2.384
12307WAT      O37162   9.484   5.167   3.213
12307WAT     H137163   9.461   5.265   3.216
12307WAT     H237164   9.471   5.128   3.304
12308WAT      O37165   8.416   1.770   0.565
12308WAT     H137166   8.398   1.768   0.663
12308WAT     H237167   8.508   1.805   0.548
12309WAT      O37168   8.689   0.986   1.292
12309WAT     H137169   8.664   1.067   1.345
12309WAT     H237170   8.710   1.013   1.198
12310WAT      O37171   3.894   1.123   7.436
12310WAT     H137172   3.950   1.057   7.386
12310WAT     H237173   3.928   1.130   7.530
12311WAT      O37174   5.019   7.563   9.840
12311WAT     H137175   5.078   7.591   9.915
12311WAT     H237176   4.966   7.483   9.867
12312WAT      O37177   8.148   1.180   6.386
12312WAT     H137178   8.175   1.265   6.432
12312WAT     H237179   8.229   1.123   6.372
12313WAT      O37180   2.383   1.930   7.873
12313WAT     H137181   2.315   1.908   7.803
12313WAT     H237182   2.446   1.854   7.883
12314WAT      O37183   5.231   6.078   6.922
12314WAT     H137184   5.132   6.085   6.931
12314WAT     H237185   5.266   6.012   6.989
12315WAT      O37186   9.804   5.970   9.058
12315WAT     H137187   9.705   5.976   9.067
12315WAT     H237188   9.848   6.011   9.138
12316WAT      O37189   0.622   9.453   6.516
12316WAT     H137190   0.636   9.551   6.497
12316WAT     H237191   0.652   9.400   6.437
12317WAT      O37192   6.754   6.714   6.541
12317WAT     H137193   6.818   6.777   6.498
12317WAT     H237194   6.710   6.760   6.619
12318WAT      O37195   2.360   2.498   1.210
12318WAT     H137196   2.351   2.441   1.129
12318WAT     H237197   2.348   2.594   1.185
12319WAT      O37198   4.437   5.973   5.639
12319WAT     H137199   4.501   5.896   5.644
12319WAT     H237200   4.476   6.051   5.688
12320WAT      O37201   7.901   1.349   3.590
12320WAT     H137202   7.966   1.330   3.516
12320WAT     H237203   7.812   1.308   3.568
12321WAT      O37204   9.751   2.031   2.818
12321WAT     H137205   9.829   1.970   2.808
12321WAT     H237206   9.723   2.065   2.728
12322WAT      O37207   5.774   3.713   4.628
12322WAT     H137208   5.729   3.790   4.582
12322WAT     H237209   5.871   3.714   4.605
12323WAT      O37210   9.160   5.870   5.911
12323WAT     H137211   9.246   5.831   5.880
12323WAT     H237212   9.172   5.911   6.002
12324WAT      O37213   8.577   0.948   8.922
12324WAT     H137214   8.505   0.889   8.960
12324WAT     H237215   8.549   0.981   8.832
12325WAT      O37216   6.955   1.939   3.317
12325WAT     H137217   7.051   1.958   3.334
12325WAT     H237218   6.900   2.019   3.338
12326WAT      O37219   0.238   8.101   0.165
12326WAT     H137220   0.273   8.184   0.209
12326WAT     H237221   0.215   8.033   0.234
12327WAT      O37222   5.910   7.712   1.067
12327WAT     H137223   5.830   7.675   1.114
12327WAT     H237224   5.900   7.699   0.968
12328WAT      O37225   9.491   7.018   8.900
12328WAT     H137226   9.479   6.938   8.959
12328WAT     H237227   9.407   7.032   8.846
12329WAT      O37228   9.628   5.809   0.550
12329WAT     H137229   9.689   5.841   0.477
12329WAT     H237230   9.672   5.823   0.638
12330WAT      O37231   6.297   5.926   4.462
12330WAT     H137232   6.309   5.952   4.558
12330WAT     H237233   6.282   5.827   4.456
12331WAT      O37234   7.539   4.535   1.182
12331WAT     H137235   7.475   4.594   1.231
12331WAT     H237236   7.536   4.556   1.085
12332WAT      O37237   0.917   9.214   4.326
12332WAT     H137238   0.990   9.173   4.379
12332WAT     H237239   0.943   9.307   4.298
12333WAT      O37240   9.223   1.875   8.064
12333WAT     H137241   9.254   1.960   8.108
12333WAT     H237242   9.145   1.838   8.115
12334WAT      O37243   7.465   5.407   1.766
12334WAT     H137244   7.496   5.317   1.796
12334WAT     H237245   7.519   5.478   1.812
12335WAT      O37246   6.582   0.217   7.545
12335WAT     H137247   6.651   0.282   7.514
12335WAT     H237248   6.513   0.265   7.600
12336WAT      O37249   9.311   1.838   6.862
12336WAT     H137250   9.411   1.837   6.863
12336WAT     H237251   9.279   1.932   6.858
12337WAT      O37252   7.021   2.077   7.550
12337WAT     H137253   7.063   2.079   7.460
12337WAT     H237254   7.032   1.985   7.589
12338WAT      O37255   1.352   0.651   4.274
12338WAT     H137256   1.360   0.564   4.224
12338WAT     H237257   1.351   0.633   4.372
12339WAT      O37258   7.930   9.392   6.638
12339WAT     H137259   7.932   9.417   6.735
12339WAT     H237260   7.847   9.340   6.618
12340WAT      O37261   4.150   8.341   9.885
12340WAT     H137262   4.186   8.347   9.978
12340WAT     H237263   4.206   8.278   9.831
12341WAT      O37264   4.205   1.738   6.113
12341WAT     H137265   4.138   1.763   6.183
12341WAT     H237266   4.213   1.638   6.109
12342WAT      O37267   6.863   2.495   8.938
12342WAT     H137268   6.871   2.395   8.933
12342WAT     H237269   6.954   2.536   8.933
12343WAT      O37270   3.482   2.692   1.603
12343WAT     H137271   3.574   2.666   1.634
12343WAT     H237272   3.429   2.610   1.583
12344WAT      O37273   9.755   1.891   7.869
12344WAT     H137274   9.783   1.831   7.793
12344WAT     H237275   9.765   1.986   7.841
12345WAT      O37276   7.168   2.933   2.008
12345WAT     H137277   7.264   2.949   1.983
12345WAT     H237278   7.162   2.850   2.064
12346WAT      O37279   3.342   3.498   1.864
12346WAT     H137280   3.250   3.460   1.848
12346WAT     H237281   3.337   3.566   1.937
12347WAT      O37282   2.833   5.223   8.956
12347WAT     H137283   2.881   5.250   9.039
12347WAT     H237284   2.756   5.285   8.941
12348WAT      O37285   0.103   5.733   1.754
12348WAT     H137286   0.108   5.733   1.854
12348WAT     H237287   0.042   5.807   1.724
12349WAT      O37288   4.098   0.347   2.848
12349WAT     H137289   4.019   0.395   2.809
12349WAT     H237290   4.078   0.323   2.943
12350WAT      O37291   3.757   9.036   5.754
12350WAT     H137292   3.672   8.984   5.753
12350WAT     H237293   3.805   9.020   5.840
12351WAT      O37294   1.460   1.597   6.080
12351WAT     H137295   1.476   1.504   6.114
12351WAT     H237296   1.548   1.640   6.058
12352WAT      O37297   5.884   8.010   5.140
12352WAT     H137298   5.895   7.931   5.201
12352WAT     H237299   5.789   8.016   5.110
12353WAT      O37300   6.061   9.645   0.064
12353WAT     H137301   5.973   9.605   0.039
12353WAT     H237302   6.135   9.582   0.037
12354WAT      O37303   5.254   7.061   3.388
12354WAT     H137304   5.307   7.102   3.462
12354WAT     H237305   5.315   7.033   3.314
12355WAT      O37306   2.234   0.601   1.028
12355WAT     H137307   2.191   0.689   1.044
12355WAT     H237308   2.262   0.560   1.115
12356WAT      O37309   4.351   2.498   0.911
12356WAT     H137310   4.281   2.463   0.848
12356WAT     H237311   4.385   2.586   0.877
12357WAT      O37312   6.731   4.487   1.957
12357WAT     H137313   6.646   4.510   1.910
12357WAT     H237314   6.720   4.401   2.006
12358WAT      O37315   3.993   9.426   9.563
12358WAT     H137316   3.945   9.364   9.502
12358WAT     H237317   4.068   9.378   9.608
12359WAT      O37318   4.618   1.966   1.187
12359WAT     H137319   4.616   2.017   1.273
12359WAT     H237320   4.540   1.904   1.182
12360WAT      O37321   7.721   1.840   9.729
12360WAT     H137322   7.670   1.885   9.803
12360WAT     H237323   7.819   1.853   9.744
12361WAT      O37324   9.808   5.484   7.697
12361WAT     H137325   9.904   5.508   7.683
12361WAT     H237326   9.774   5.529   7.780
12362WAT      O37327   0.992   8.536   0.584
12362WAT     H137328   0.925   8.578   0.645
12362WAT     H237329   0.986   8.437   0.592
12363WAT      O37330   4.123   4.807   7.301
12363WAT     H137331   4.039   4.861   7.299
12363WAT     H237332   4.169   4.820   7.389
12364WAT      O37333   5.385   7.638   1.403
12364WAT     H137334   5.408   7.673   1.493
12364WAT     H237335   5.390   7.538   1.403
12365WAT      O37336   3.168   9.243   5.755
12365WAT     H137337   3.127   9.212   5.669
12365WAT     H237338   3.220   9.327   5.738
12366WAT      O37339   1.909   7.352   6.616
12366WAT     H137340   1.815   7.336   6.647
12366WAT     H237341   1.908   7.386   6.522
12367WAT      O37342   4.745   1.132   8.284
12367WAT     H137343   4.797   1.117   8.368
12367WAT     H237344   4.805   1.121   8.205
12368WAT      O37345   6.912   2.489   8.637
12368WAT     H137346   6.844   2.536   8.581
12368WAT     H237347   6.937   2.547   8.714
12369WAT      O37348   3.296   5.739   5.923
12369WAT     H137349   3.310   5.694   6.011
12369WAT     H237350   3.206   5.781   5.921
12370WAT      O37351   1.510   2.241   3.053
12370WAT     H137352   1.602   2.240   3.091
12370WAT     H237353   1.515   2.237   2.953
12371WAT      O37354   2.497   0.090   2.607
12371WAT     H137355   2.456   0.176   2.577
12371WAT     H237356   2.567   0.062   2.541
12372WAT      O37357   3.158   0.541   9.144
12372WAT     H137358   3.183   0.616   9.083
12372WAT     H237359   3.185   0.564   9.237
12373WAT      O37360   1.581   2.602   5.426
12373WAT     H137361   1.547   2.696   5.419
12373WAT     H237362   1.680   2.602   5.420
12374WAT      O37363   6.098   0.777   0.943
12374WAT     H137364   6.177   0.746   0.890
12374WAT     H237365   6.026   0.708   0.940
12375WAT      O37366   2.870   2.509   7.108
12375WAT     H137367   2.811   2.430   7.126
12375WAT     H237368   2.851   2.544   7.016
12376WAT      O37369   5.122   1.938   3.671
12376WAT     H137370   5.147   1.848   3.636
12376WAT     H237371   5.168   1.954   3.758
12377WAT      O37372   3.989   1.980   7.722
12377WAT     H137373   4.023   1.975   7.816
12377WAT     H237374   3.896   2.018   7.722
12378WAT      O37375   0.984   3.275   2.684
12378WAT     H137376   1.045   3.349   2.659
12378WAT     H237377   0.918   3.259   2.611
12379WAT      O37378   4.898   6.769   7.940
12379WAT     H137379   4.928   6.735   8.029
12379WAT     H237380   4.828   6.840   7.954
12380WAT      O37381   9.248   9.190   5.378
12380WAT     H137382   9.276   9.227   5.290
12380WAT     H237383   9.188   9.111   5.364
12381WAT      O37384   0.996   4.252   0.056
12381WAT     H137385   1.079   4.212   0.017
12381WAT     H237386   0.916   4.210   0.014
12382WAT      O37387   5.294   1.716   4.766
12382WAT     H137388   5.225   1.780   4.802
12382WAT     H237389   5.356   1.765   4.705
12383WAT      O37390   6.656   6.295   9.739
12383WAT     H137391   6.637   6.224   9.806
12383WAT     H237392   6.589   6.290   9.665
12384WAT      O37393   8.516   9.689   2.631
12384WAT     H137394   8.451   9.667   2.559
12384WAT     H237395   8.607   9.655   2.606
12385WAT      O37396   2.338   2.888   3.844
12385WAT     H137397   2.286   2.812   3.805
12385WAT     H237398   2.401   2.853   3.913
12386WAT      O37399   2.956   8.720   5.759
12386WAT     H137400   2.920   8.801   5.711
12386WAT     H237401   2.931   8.725   5.856
12387WAT      O37402   3.143   3.254   5.912
12387WAT     H137403   3.080   3.319   5.871
12387WAT     H237404   3.222   3.242   5.852
12388WAT      O37405   6.406   8.368   3.433
12388WAT     H137406   6.432   8.464   3.423
12388WAT     H237407   6.487   8.310   3.434
12389WAT      O37408   0.496   8.458   9.708
12389WAT     H137409   0.483   8.359   9.709
12389WAT     H237410   0.426   8.501   9.651
12390WAT      O37411   0.457   9.070   7.907
12390WAT     H137412   0.421   9.136   7.841
12390WAT     H237413   0.556   9.079   7.914
12391WAT      O37414   5.236   6.275   3.188
12391WAT     H137415   5.158   6.297   3.246
12391WAT     H237416   5.269   6.184   3.210
12392WAT      O37417   6.377   4.759   2.563
12392WAT     H137418   6.452   4.825   2.562
12392WAT     H237419   6.335   4.758   2.654
12393WAT      O37420   3.396   0.962   3.572
12393WAT     H137421   3.392   0.911   3.658
12393WAT     H237422   3.398   0.897   3.496
12394WAT      O37423   1.689   8.479   3.966
12394WAT     H137424   1.673   8.407   3.899
12394WAT     H237425   1.703   8.566   3.919
12395WAT      O37426   4.805   3.705   1.662
12395WAT     H137427   4.828   3.620   1.614
12395WAT     H237428   4.823   3.694   1.760
12396WAT      O37429   1.232   1.174   4.243
12396WAT     H137430   1.301   1.103   4.256
12396WAT     H237431   1.274   1.264   4.257
12397WAT      O37432   3.790   6.532   3.081
12397WAT     H137433   3.832   6.547   2.991
12397WAT     H237434   3.733   6.450   3.078
12398WAT      O37435   6.835   0.945   9.327
12398WAT     H137436   6.872   0.855   9.303
12398WAT     H237437   6.908   1.000   9.368
12399WAT      O37438   8.828   7.407   3.638
12399WAT     H137439   8.901   7.395   3.571
12399WAT     H237440   8.792   7.500   3.632
12400WAT      O37441   1.677   6.574   0.727
12400WAT     H137442   1.651   6.631   0.806
12400WAT     H237443   1.630   6.607   0.646
12401WAT      O37444   5.471   5.014   8.121
12401WAT     H137445   5.517   4.975   8.201
12401WAT     H237446   5.393   4.957   8.097
12402WAT      O37447   3.241   8.763   9.156
12402WAT     H137448   3.169   8.721   9.101
12402WAT     H237449   3.202   8.838   9.209
12403WAT      O37450   7.061   5.758   9.855
12403WAT     H137451   7.133   5.698   9.890
12403WAT     H237452   6.984   5.759   9.918
12404WAT      O37453   7.343   7.570   5.137
12404WAT     H137454   7.318   7.601   5.045
12404WAT     H237455   7.339   7.648   5.200
12405WAT      O37456   9.385   1.786   0.035
12405WAT     H137457   9.407   1.788   0.132
12405WAT     H237458   9.305   1.843   0.018
12406WAT      O37459   3.597   0.378   2.544
12406WAT     H137460   3.606   0.467   2.500
12406WAT     H237461   3.564   0.390   2.637
12407WAT      O37462   9.032   7.852   1.386
12407WAT     H137463   9.046   7.821   1.480
12407WAT     H237464   9.051   7.950   1.381
12408WAT      O37465   4.748   0.977   7.619
12408WAT     H137466   4.758   0.942   7.525
12408WAT     H237467   4.784   1.070   7.624
12409WAT      O37468   4.625   6.212   9.656
12409WAT     H137469   4.633   6.277   9.581
12409WAT     H237470   4.539   6.162   9.648
12410WAT      O37471   8.853   9.327   0.075
12410WAT     H137472   8.950   9.329   0.050
12410WAT     H237473   8.826   9.415   0.113
12411WAT      O37474   9.758   2.302   9.499
12411WAT     H137475   9.749   2.358   9.581
12411WAT     H237476   9.850   2.310   9.462
12412WAT      O37477   9.027   6.277   1.902
12412WAT     H137478   8.934   6.297   1.933
12412WAT     H237479   9.092   6.326   1.961
12413WAT      O37480   2.873   3.931   7.696
12413WAT     H137481   2.864   4.029   7.677
12413WAT     H237482   2.813   3.880   7.634
12414WAT      O37483   0.600   3.094   9.226
12414WAT     H137484   0.586   3.028   9.153
12414WAT     H237485   0.698   3.103   9.244
12415WAT      O37486   0.221   3.411   9.409
12415WAT     H137487   0.276   3.328   9.401
12415WAT     H237488   0.176   3.430   9.321
12416WAT      O37489   1.619   4.046   0.116
12416WAT     H137490   1.713   4.082   0.117
12416WAT     H237491   1.588   4.038   0.021
12417WAT      O37492   1.238   4.176   5.393
12417WAT     H137493   1.166   4.194   5.326
12417WAT     H237494   1.248   4.255   5.453
12418WAT      O37495   5.126   4.431   6.931
12418WAT     H137496   5.038   4.393   6.960
12418WAT     H237497   5.112   4.492   6.854
12419WAT      O37498   7.418   7.246   4.040
12419WAT     H137499   7.463   7.157   4.049
12419WAT     H237500   7.451   7.307   4.113
12420WAT      O37501   2.661   6.063   8.188
12420WAT     H137502   2.600   6.015   8.124
12420WAT     H237503   2.749   6.017   8.190
12421WAT      O37504   6.568   6.983   9.024
12421WAT     H137505   6.560   7.023   9.115
12421WAT     H237506   6.478   6.948   8.995
12422WAT      O37507   2.905   0.942   9.114
12422WAT     H137508   2.820   0.915   9.160
12422WAT     H237509   2.982   0.924   9.174
12423WAT      O37510   2.378   7.142   4.502
12423WAT     H137511   2.419   7.062   4.547
12423WAT     H237512   2.361   7.121   4.406
12424WAT      O37513   1.035   2.960   8.876
12424WAT     H137514   1.068   2.880   8.826
12424WAT     H237515   0.935   2.961   8.875
12425WAT      O37516   7.467   8.092   6.051
12425WAT     H137517   7.549   8.067   5.999
12425WAT     H237518   7.404   8.014   6.052
12426WAT      O37519   2.888   4.218   7.370
12426WAT     H137520   2.846   4.205   7.460
12426WAT     H237521   2.987   4.230   7.381
12427WAT      O37522   9.387   7.198   6.396
12427WAT     H137523   9.399   7.281   6.450
12427WAT     H237524   9.477   7.157   6.378
12428WAT      O37525   8.773   8.041   8.468
12428WAT     H137526   8.748   8.076   8.377
12428WAT     H237527   8.805   7.947   8.460
12429WAT      O37528   4.873   7.283   6.439
12429WAT     H137529   4.946   7.266   6.505
12429WAT     H237530   4.839   7.376   6.450
12430WAT      O37531   2.472   0.932   2.887
12430WAT     H137532   2.399   0.876   2.846
12430WAT     H237533   2.558   0.881   2.884
12431WAT      O37534   4.282   1.113   8.849
12431WAT     H137535   4.207   1.108   8.782
12431WAT     H237536   4.366   1.140   8.802
12432WAT      O37537   2.381   3.763   0.008
12432WAT     H137538   2.416   3.677   0.046
12432WAT     H237539   2.418   3.776  -0.084
12433WAT      O37540   5.681   2.702   3.288
12433WAT     H137541   5.682   2.688   3.387
12433WAT     H237542   5.601   2.657   3.248
12434WAT      O37543   6.662   6.408   6.738
12434WAT     H137544   6.679   6.455   6.824
12434WAT     H237545   6.566   6.420   6.712
12435WAT      O37546   0.272   6.347   4.672
12435WAT     H137547   0.273   6.284   4.750
12435WAT     H237548   0.361   6.391   4.663
12436WAT      O37549   4.059   4.382   6.677
12436WAT     H137550   3.970   4.390   6.722
12436WAT     H237551   4.046   4.378   6.578
12437WAT      O37552   9.878   4.298   8.741
12437WAT     H137553   9.886   4.363   8.816
12437WAT     H237554   9.956   4.308   8.680
12438WAT      O37555   0.591   7.520   6.712
12438WAT     H137556   0.589   7.442   6.775
12438WAT     H237557   0.497   7.542   6.683
12439WAT      O37558   3.012   5.265   1.284
12439WAT     H137559   2.955   5.269   1.365
12439WAT     H237560   3.105   5.292   1.307
12440WAT      O37561   4.270   7.426   8.539
12440WAT     H137562   4.290   7.337   8.580
12440WAT     H237563   4.186   7.421   8.485
12441WAT      O37564   7.909   4.047   2.309
12441WAT     H137565   7.819   4.071   2.272
12441WAT     H237566   7.955   4.130   2.340
12442WAT      O37567   5.774   1.982   0.297
12442WAT     H137568   5.744   2.075   0.317
12442WAT     H237569   5.857   1.985   0.242
12443WAT      O37570   0.237   3.143   9.788
12443WAT     H137571   0.325   3.131   9.742
12443WAT     H237572   0.192   3.055   9.799
12444WAT      O37573   9.549   0.558   7.847
12444WAT     H137574   9.454   0.589   7.844
12444WAT     H237575   9.570   0.525   7.939
12445WAT      O37576   5.863   1.324   1.942
12445WAT     H137577   5.796   1.385   1.899
12445WAT     H237578   5.912   1.273   1.871
12446WAT      O37579   5.331   7.977   8.386
12446WAT     H137580   5.259   7.909   8.385
12446WAT     H237581   5.420   7.932   8.389
12447WAT      O37582   3.632   5.190   3.808
12447WAT     H137583   3.722   5.233   3.816
12447WAT     H237584   3.581   5.234   3.734
12448WAT      O37585   1.634   5.811   6.779
12448WAT     H137586   1.631   5.870   6.859
12448WAT     H237587   1.718   5.828   6.728
12449WAT      O37588   4.018   2.760   3.642
12449WAT     H137589   3.925   2.793   3.631
12449WAT     H237590   4.078   2.837   3.667
12450WAT      O37591   3.749   8.386   5.376
12450WAT     H137592   3.730   8.389   5.474
12450WAT     H237593   3.846   8.406   5.359
12451WAT      O37594   6.277   8.499   7.737
12451WAT     H137595   6.204   8.432   7.749
12451WAT     H237596   6.366   8.452   7.740
12452WAT      O37597   3.757   8.662   1.058
12452WAT     H137598   3.779   8.744   1.110
12452WAT     H237599   3.690   8.608   1.109
12453WAT      O37600   7.649   6.491   7.699
12453WAT     H137601   7.716   6.443   7.642
12453WAT     H237602   7.558   6.480   7.659
12454WAT      O37603   0.976   4.729   9.586
12454WAT     H137604   1.030   4.704   9.666
12454WAT     H237605   1.014   4.684   9.505
12455WAT      O37606   1.849   4.421   6.463
12455WAT     H137607   1.870   4.413   6.561
12455WAT     H237608   1.929   4.394   6.410
12456WAT      O37609   0.922   5.851   8.482
12456WAT     H137610   1.008   5.839   8.532
12456WAT     H237611   0.939   5.904   8.400
12457WAT      O37612   2.752   3.416   3.548
12457WAT     H137613   2.766   3.511   3.521
12457WAT     H237614   2.656   3.401   3.571
12458WAT      O37615   7.823   4.482   5.211
12458WAT     H137616   7.889   4.467   5.285
12458WAT     H237617   7.771   4.565   5.229
12459WAT      O37618   8.179   4.254   3.173
12459WAT     H137619   8.211   4.262   3.079
12459WAT     H237620   8.171   4.157   3.198
12460WAT      O37621   2.064   8.164   0.303
12460WAT     H137622   2.011   8.247   0.320
12460WAT     H237623   2.161   8.182   0.322
12461WAT      O37624   4.382   3.716   9.321
12461WAT     H137625   4.300   3.734   9.377
12461WAT     H237626   4.378   3.623   9.286
12462WAT      O37627   5.033   7.028   2.149
12462WAT     H137628   4.996   6.967   2.078
12462WAT     H237629   4.986   7.011   2.235
12463WAT      O37630   5.249   5.820   4.061
12463WAT     H137631   5.290   5.792   3.974
12463WAT     H237632   5.188   5.898   4.045
12464WAT      O37633   0.388   7.360   5.765
12464WAT     H137634   0.350   7.380   5.855
12464WAT     H237635   0.487   7.353   5.771
12465WAT      O37636   6.656   4.257   3.970
12465WAT     H137637   6.579   4.275   4.032
12465WAT     H237638   6.630   4.184   3.906
12466WAT      O37639   9.840   1.045   7.405
12466WAT     H137640   9.896   1.126   7.388
12466WAT     H237641   9.766   1.041   7.337
12467WAT      O37642   1.441   1.017   3.088
12467WAT     H137643   1.433   0.921   3.114
12467WAT     H237644   1.475   1.070   3.165
12468WAT      O37645   9.094   2.262   4.976
12468WAT     H137646   9.145   2.348   4.970
12468WAT     H237647   9.081   2.225   4.884
12469WAT      O37648   7.788   0.172   4.543
12469WAT     H137649   7.800   0.127   4.632
12469WAT     H237650   7.715   0.127   4.492
12470WAT      O37651   1.045   2.121   3.826
12470WAT     H137652   0.980   2.167   3.766
12470WAT     H237653   1.121   2.183   3.846
12471WAT      O37654   9.239   8.909   4.203
12471WAT     H137655   9.179   8.866   4.135
12471WAT     H237656   9.296   8.839   4.246
12472WAT      O37657   6.582   9.568   4.357
12472WAT     H137658   6.620   9.556   4.449
12472WAT     H237659   6.605   9.659   4.323
12473WAT      O37660   9.757   5.894   0.759
12473WAT     H137661   9.856   5.889   0.763
12473WAT     H237662   9.728   5.987   0.738
12474WAT      O37663   0.293   3.825   6.786
12474WAT     H137664   0.266   3.891   6.716
12474WAT     H237665   0.391   3.805   6.778
12475WAT      O37666   1.805   5.990   4.739
12475WAT     H137667   1.899   6.021   4.751
12475WAT     H237668   1.742   6.059   4.774
12476WAT      O37669   2.832   8.752   6.040
12476WAT     H137670   2.805   8.837   6.086
12476WAT     H237671   2.821   8.675   6.103
12477WAT      O37672   4.636   0.464   9.698
12477WAT     H137673   4.541   0.474   9.669
12477WAT     H237674   4.641   0.461   9.797
12478WAT      O37675   8.006   9.150   0.911
12478WAT     H137676   7.931   9.087   0.929
12478WAT     H237677   7.970   9.244   0.906
12479WAT      O37678   9.443   1.779   1.196
12479WAT     H137679   9.464   1.780   1.294
12479WAT     H237680   9.376   1.707   1.177
12480WAT      O37681   1.973   6.415   7.241
12480WAT     H137682   2.011   6.404   7.149
12480WAT     H237683   2.033   6.371   7.307
12481WAT      O37684   1.209   0.153   1.073
12481WAT     H137685   1.304   0.126   1.090
12481WAT     H237686   1.206   0.249   1.048
12482WAT      O37687   3.804   9.761   2.216
12482WAT     H137688   3.728   9.736   2.155
12482WAT     H237689   3.844   9.847   2.186
12483WAT      O37690   5.578   1.950   8.208
12483WAT     H137691   5.663   1.924   8.254
12483WAT     H237692   5.555   1.881   8.139
12484WAT      O37693   0.144   3.213   9.091
12484WAT     H137694   0.112   3.308   9.092
12484WAT     H237695   0.139   3.176   9.184
12485WAT      O37696   0.869   3.075   5.307
12485WAT     H137697   0.835   3.045   5.396
12485WAT     H237698   0.815   3.032   5.235
12486WAT      O37699   5.809   2.380   3.610
12486WAT     H137700   5.753   2.431   3.675
12486WAT     H237701   5.873   2.442   3.565
12487WAT      O37702   0.335   9.147   8.583
12487WAT     H137703   0.287   9.170   8.667
12487WAT     H237704   0.284   9.075   8.535
12488WAT      O37705   3.579   4.929   5.099
12488WAT     H137706   3.646   4.996   5.129
12488WAT     H237707   3.497   4.976   5.066
12489WAT      O37708   7.541   4.393   8.689
12489WAT     H137709   7.595   4.321   8.647
12489WAT     H237710   7.557   4.395   8.788
12490WAT      O37711   0.685   6.946   6.268
12490WAT     H137712   0.634   6.986   6.191
12490WAT     H237713   0.627   6.882   6.316
12491WAT      O37714   3.034   4.697   2.922
12491WAT     H137715   3.047   4.776   2.982
12491WAT     H237716   3.101   4.627   2.944
12492WAT      O37717   1.264   5.423   6.405
12492WAT     H137718   1.311   5.443   6.491
12492WAT     H237719   1.309   5.346   6.359
12493WAT      O37720   3.855   9.391   3.799
12493WAT     H137721   3.786   9.323   3.774
12493WAT     H237722   3.937   9.376   3.744
12494WAT      O37723   9.690   8.774   8.832
12494WAT     H137724   9.624   8.816   8.771
12494WAT     H237725   9.673   8.676   8.839
12495WAT      O37726   2.902   9.336   5.546
12495WAT     H137727   2.998   9.346   5.522
12495WAT     H237728   2.845   9.361   5.468
12496WAT      O37729   3.756   7.965   6.484
12496WAT     H137730   3.745   8.012   6.572
12496WAT     H237731   3.702   8.012   6.414
12497WAT      O37732   2.333   9.813   1.848
12497WAT     H137733   2.277   9.815   1.931
12497WAT     H237734   2.311   9.892   1.791
12498WAT      O37735   1.356   1.148   1.798
12498WAT     H137736   1.403   1.060   1.795
12498WAT     H237737   1.299   1.153   1.880
12499WAT      O37738   2.133   8.459   6.171
12499WAT     H137739   2.106   8.543   6.123
12499WAT     H237740   2.109   8.380   6.115
12500WAT      O37741   7.242   4.986   9.241
12500WAT     H137742   7.224   5.060   9.177
12500WAT     H237743   7.290   5.022   9.322
12501WAT      O37744   1.639   1.546   9.423
12501WAT     H137745   1.543   1.571   9.423
12501WAT     H237746   1.653   1.466   9.364
12502WAT      O37747   5.215   7.831   9.456
12502WAT     H137748   5.253   7.845   9.547
12502WAT     H237749   5.153   7.753   9.458
12503WAT      O37750   9.602   4.802   0.147
12503WAT     H137751   9.571   4.895   0.164
12503WAT     H237752   9.671   4.776   0.216
12504WAT      O37753   5.003   4.551   2.946
12504WAT     H137754   5.013   4.611   3.026
12504WAT     H237755   4.907   4.551   2.916
12505WAT      O37756   5.800   0.377   6.164
12505WAT     H137757   5.764   0.421   6.247
12505WAT     H237758   5.752   0.291   6.148
12506WAT      O37759   4.322   8.090   0.339
12506WAT     H137760   4.367   8.060   0.423
12506WAT     H237761   4.333   8.021   0.268
12507WAT      O37762   4.792   2.117   2.520
12507WAT     H137763   4.878   2.131   2.569
12507WAT     H237764   4.746   2.205   2.507
12508WAT      O37765   0.621   3.257   7.815
12508WAT     H137766   0.658   3.349   7.801
12508WAT     H237767   0.629   3.206   7.729
12509WAT      O37768   0.010   2.198   2.980
12509WAT     H137769  -0.048   2.155   2.911
12509WAT     H237770  -0.035   2.192   3.069
12510WAT      O37771   2.269   6.599   0.246
12510WAT     H137772   2.268   6.574   0.343
12510WAT     H237773   2.182   6.573   0.204
12511WAT      O37774   6.817   0.807   7.435
12511WAT     H137775   6.874   0.725   7.445
12511WAT     H237776   6.852   0.864   7.361
12512WAT      O37777   5.892   8.795   3.640
12512WAT     H137778   5.913   8.854   3.562
12512WAT     H237779   5.975   8.747   3.669
12513WAT      O37780   9.023   2.414   3.385
12513WAT     H137781   9.009   2.454   3.475
12513WAT     H237782   9.052   2.485   3.321
12514WAT      O37783   6.154   9.037   0.616
12514WAT     H137784   6.175   8.953   0.567
12514WAT     H237785   6.117   9.105   0.552
12515WAT      O37786   5.810   0.793   9.638
12515WAT     H137787   5.731   0.851   9.656
12515WAT     H237788   5.848   0.815   9.549
12516WAT      O37789   2.458   6.978   9.187
12516WAT     H137790   2.396   7.010   9.259
12516WAT     H237791   2.518   6.907   9.224
12517WAT      O37792   3.337   6.681   2.631
12517WAT     H137793   3.386   6.633   2.559
12517WAT     H237794   3.297   6.766   2.594
12518WAT      O37795   7.407   5.201   6.854
12518WAT     H137796   7.479   5.265   6.881
12518WAT     H237797   7.396   5.204   6.754
12519WAT      O37798   0.153   5.491   2.298
12519WAT     H137799   0.159   5.521   2.203
12519WAT     H237800   0.063   5.515   2.335
12520WAT      O37801   4.474   5.940   7.099
12520WAT     H137802   4.399   5.908   7.042
12520WAT     H237803   4.535   5.998   7.044
12521WAT      O37804   2.569   5.129   4.082
12521WAT     H137805   2.521   5.199   4.029
12521WAT     H237806   2.541   5.137   4.178
12522WAT      O37807   2.498   2.740   1.521
12522WAT     H137808   2.464   2.800   1.448
12522WAT     H237809   2.421   2.713   1.579
12523WAT      O37810   1.320   8.899   0.891
12523WAT     H137811   1.283   8.807   0.878
12523WAT     H237812   1.405   8.908   0.839
12524WAT      O37813   2.937   8.550   2.199
12524WAT     H137814   2.915   8.540   2.296
12524WAT     H237815   3.000   8.478   2.171
12525WAT      O37816   3.321   8.609   7.573
12525WAT     H137817   3.335   8.512   7.590
12525WAT     H237818   3.313   8.658   7.660
12526WAT      O37819   1.749   4.118   9.525
12526WAT     H137820   1.770   4.085   9.433
12526WAT     H237821   1.764   4.217   9.529
12527WAT      O37822   3.297   2.163   3.926
12527WAT     H137823   3.358   2.239   3.947
12527WAT     H237824   3.349   2.077   3.929
12528WAT      O37825   9.301   2.037   9.712
12528WAT     H137826   9.378   2.085   9.755
12528WAT     H237827   9.334   1.954   9.668
12529WAT      O37828   6.817   3.048   6.991
12529WAT     H137829   6.907   3.085   7.018
12529WAT     H237830   6.816   3.031   6.893
12530WAT      O37831   1.085   8.695   9.335
12530WAT     H137832   1.003   8.692   9.392
12530WAT     H237833   1.163   8.657   9.386
12531WAT      O37834   7.240   2.570   3.595
12531WAT     H137835   7.297   2.500   3.553
12531WAT     H237836   7.143   2.547   3.583
12532WAT      O37837   4.373   4.241   8.892
12532WAT     H137838   4.416   4.239   8.802
12532WAT     H237839   4.375   4.335   8.928
12533WAT      O37840   2.779   2.705   5.342
12533WAT     H137841   2.716   2.634   5.373
12533WAT     H237842   2.834   2.669   5.266
12534WAT      O37843   4.914   5.780   6.636
12534WAT     H137844   4.969   5.800   6.554
12534WAT     H237845   4.827   5.741   6.608
12535WAT      O37846   5.097   8.084   1.702
12535WAT     H137847   5.083   7.990   1.674
12535WAT     H237848   5.196   8.103   1.708
12536WAT      O37849   6.446   9.488   4.138
12536WAT     H137850   6.482   9.514   4.227
12536WAT     H237851   6.520   9.485   4.071
12537WAT      O37852   1.544   4.631   7.959
12537WAT     H137853   1.518   4.726   7.941
12537WAT     H237854   1.496   4.571   7.894
12538WAT      O37855   5.550   3.432   1.756
12538WAT     H137856   5.612   3.381   1.697
12538WAT     H237857   5.557   3.530   1.735
12539WAT      O37858   5.431   4.563   8.267
12539WAT     H137859   5.529   4.568   8.285
12539WAT     H237860   5.389   4.497   8.329
12540WAT      O37861   6.740   9.251   3.550
12540WAT     H137862   6.790   9.201   3.479
12540WAT     H237863   6.719   9.188   3.625
12541WAT      O37864   8.990   6.853   7.454
12541WAT     H137865   8.919   6.791   7.419
12541WAT     H237866   9.050   6.803   7.516
12542WAT      O37867   2.700   0.081   0.960
12542WAT     H137868   2.660   0.171   0.976
12542WAT     H237869   2.798   0.085   0.982
12543WAT      O37870   3.263   2.859   9.774
12543WAT     H137871   3.300   2.793   9.709
12543WAT     H237872   3.200   2.813   9.837
12544WAT      O37873   3.468   3.320   8.106
12544WAT     H137874   3.464   3.410   8.062
12544WAT     H237875   3.521   3.327   8.191
12545WAT      O37876   0.611   2.892   9.045
12545WAT     H137877   0.700   2.853   9.022
12545WAT     H237878   0.540   2.846   8.993
12546WAT      O37879   8.729   2.620   7.694
12546WAT     H137880   8.657   2.585   7.753
12546WAT     H237881   8.718   2.583   7.602
12547WAT      O37882   0.419   3.612   3.983
12547WAT     H137883   0.499   3.654   4.026
12547WAT     H237884   0.442   3.519   3.954
12548WAT      O37885   3.021   3.408   2.646
12548WAT     H137886   3.012   3.323   2.593
12548WAT     H237887   2.937   3.461   2.637
12549WAT      O37888   4.075   1.507   2.194
12549WAT     H137889   4.011   1.571   2.237
12549WAT     H237890   4.024   1.443   2.136
12550WAT      O37891   8.949   3.936   2.331
12550WAT     H137892   8.958   4.016   2.391
12550WAT     H237893   8.889   3.868   2.376
12551WAT      O37894   2.969   3.284   2.159
12551WAT     H137895   2.984   3.235   2.245
12551WAT     H237896   2.931   3.374   2.178
12552WAT      O37897   2.029   8.731   2.500
12552WAT     H137898   2.050   8.652   2.558
12552WAT     H237899   1.982   8.800   2.554
12553WAT      O37900   4.355   4.013   0.070
12553WAT     H137901   4.386   3.951   0.142
12553WAT     H237902   4.317   3.959  -0.006
12554WAT      O37903   3.770   4.766   1.656
12554WAT     H137904   3.855   4.814   1.637
12554WAT     H237905   3.708   4.774   1.578
12555WAT      O37906   7.532   7.327   9.785
12555WAT     H137907   7.595   7.308   9.860
12555WAT     H237908   7.557   7.414   9.742
12556WAT      O37909   1.171   9.030   6.256
12556WAT     H137910   1.262   9.069   6.241
12556WAT     H237911   1.177   8.931   6.251
12557WAT      O37912   2.619   1.310   2.527
12557WAT     H137913   2.558   1.374   2.480
12557WAT     H237914   2.680   1.266   2.460
12558WAT      O37915   2.796   0.694   5.373
12558WAT     H137916   2.869   0.633   5.403
12558WAT     H237917   2.835   0.771   5.323
12559WAT      O37918   2.565   1.686   5.710
12559WAT     H137919   2.547   1.779   5.679
12559WAT     H237920   2.516   1.622   5.651
12560WAT      O37921   8.860   6.238   7.445
12560WAT     H137922   8.936   6.241   7.380
12560WAT     H237923   8.896   6.249   7.538
12561WAT      O37924   9.380   9.651   0.895
12561WAT     H137925   9.363   9.574   0.956
12561WAT     H237926   9.293   9.696   0.873
12562WAT      O37927   3.972   5.419   0.866
12562WAT     H137928   3.933   5.363   0.939
12562WAT     H237929   4.070   5.429   0.880
12563WAT      O37930   7.783   4.359   7.546
12563WAT     H137931   7.733   4.437   7.508
12563WAT     H237932   7.806   4.378   7.641
12564WAT      O37933   9.174   2.359   2.784
12564WAT     H137934   9.109   2.366   2.708
12564WAT     H237935   9.170   2.266   2.822
12565WAT      O37936   0.650   6.627   6.217
12565WAT     H137937   0.561   6.592   6.188
12565WAT     H237938   0.663   6.610   6.315
12566WAT      O37939   1.960   0.236   7.016
12566WAT     H137940   1.938   0.223   7.112
12566WAT     H237941   1.885   0.283   6.970
12567WAT      O37942   7.675   9.500   7.903
12567WAT     H137943   7.608   9.557   7.856
12567WAT     H237944   7.768   9.529   7.878
12568WAT      O37945   3.718   7.859   9.065
12568WAT     H137946   3.710   7.953   9.031
12568WAT     H237947   3.770   7.804   8.999
12569WAT      O37948   1.444   2.858   0.216
12569WAT     H137949   1.541   2.833   0.228
12569WAT     H237950   1.389   2.810   0.285
12570WAT      O37951   0.467   0.730   1.675
12570WAT     H137952   0.491   0.639   1.642
12570WAT     H237953   0.545   0.771   1.720
12571WAT      O37954   4.953   5.999   0.074
12571WAT     H137955   4.864   6.041   0.057
12571WAT     H237956   4.974   5.932   0.002
12572WAT      O37957   8.719   4.892   4.103
12572WAT     H137958   8.632   4.918   4.145
12572WAT     H237959   8.728   4.792   4.104
12573WAT      O37960   2.895   8.205   2.287
12573WAT     H137961   2.809   8.213   2.337
12573WAT     H237962   2.927   8.296   2.261
12574WAT      O37963   5.632   8.468   0.856
12574WAT     H137964   5.601   8.384   0.812
12574WAT     H237965   5.623   8.460   0.955
12575WAT      O37966   2.570   6.797   7.975
12575WAT     H137967   2.558   6.720   8.038
12575WAT     H237968   2.657   6.842   7.994
12576WAT      O37969   7.877   5.377   7.692
12576WAT     H137970   7.936   5.453   7.665
12576WAT     H237971   7.782   5.408   7.692
12577WAT      O37972   8.992   7.517   6.698
12577WAT     H137973   9.070   7.573   6.727
12577WAT     H237974   9.026   7.432   6.659
12578WAT      O37975   7.843   0.577   9.055
12578WAT     H137976   7.786   0.654   9.024
12578WAT     H237977   7.928   0.612   9.093
12579WAT      O37978   3.701   5.014   9.721
12579WAT     H137979   3.782   5.045   9.770
12579WAT     H237980   3.699   5.057   9.630
12580WAT      O37981   0.463   0.012   4.886
12580WAT     H137982   0.541  -0.046   4.865
12580WAT     H237983   0.384  -0.045   4.910
12581WAT      O37984   7.211   6.058   5.339
12581WAT     H137985   7.255   6.135   5.384
12581WAT     H237986   7.229   5.974   5.390
12582WAT      O37987   0.517   5.520   6.365
12582WAT     H137988   0.431   5.527   6.414
12582WAT     H237989   0.501   5.530   6.267
12583WAT      O37990   7.452   4.469   0.720
12583WAT     H137991   7.489   4.486   0.629
12583WAT     H237992   7.483   4.380   0.753
12584WAT      O37993   6.695   3.751   8.531
12584WAT     H137994   6.719   3.727   8.437
12584WAT     H237995   6.778   3.782   8.579
12585WAT      O37996   0.577   7.348   9.364
12585WAT     H137997   0.592   7.293   9.282
12585WAT     H237998   0.645   7.422   9.367
12586WAT      O37999   5.180   2.808   9.320
12586WAT     H138000   5.193   2.745   9.397
12586WAT     H238001   5.083   2.825   9.306
12587WAT      O38002   6.515   6.757   2.168
12587WAT     H138003   6.583   6.689   2.198
12587WAT     H238004   6.425   6.731   2.202
12588WAT      O38005   7.866   6.241   8.155
12588WAT     H138006   7.940   6.174   8.156
12588WAT     H238007   7.778   6.193   8.158
12589WAT      O38008   6.928   2.641   4.331
12589WAT     H138009   7.005   2.615   4.273
12589WAT     H238010   6.938   2.599   4.421
12590WAT      O38011   6.643   4.663   1.550
12590WAT     H138012   6.586   4.676   1.631
12590WAT     H238013   6.736   4.637   1.577
12591WAT      O38014   4.757   2.809   4.416
12591WAT     H138015   4.822   2.860   4.360
12591WAT     H238016   4.673   2.794   4.363
12592WAT      O38017   5.645   4.257   4.735
12592WAT     H138018   5.690   4.220   4.816
12592WAT     H238019   5.707   4.320   4.688
12593WAT      O38020   2.222   2.766   7.635
12593WAT     H138021   2.129   2.802   7.640
12593WAT     H238022   2.247   2.722   7.721
12594WAT      O38023   4.733   9.752   3.792
12594WAT     H138024   4.712   9.660   3.759
12594WAT     H238025   4.650   9.793   3.830
12595WAT      O38026   2.164   5.070   4.498
12595WAT     H138027   2.091   5.018   4.544
12595WAT     H238028   2.219   5.118   4.567
12596WAT      O38029   3.405   9.002   7.652
12596WAT     H138030   3.398   9.032   7.747
12596WAT     H238031   3.492   8.956   7.638
12597WAT      O38032   3.032   8.991   3.004
12597WAT     H138033   3.081   8.934   3.071
12597WAT     H238034   2.995   9.072   3.050
12598WAT      O38035   0.062   5.240   8.284
12598WAT     H138036   0.022   5.153   8.256
12598WAT     H238037   0.121   5.225   8.364
12599WAT      O38038   0.968   8.913   9.205
12599WAT     H138039   0.874   8.883   9.188
12599WAT     H238040   1.017   8.841   9.255
12600WAT      O38041   3.824   1.072   4.044
12600WAT     H138042   3.893   1.119   3.990
12600WAT     H238043   3.733   1.097   4.011
12601WAT      O38044   9.690   2.629   7.362
12601WAT     H138045   9.728   2.653   7.452
12601WAT     H238046   9.629   2.702   7.331
12602WAT      O38047   1.881   3.262   9.521
12602WAT     H138048   1.941   3.342   9.525
12602WAT     H238049   1.792   3.285   9.560
12603WAT      O38050   9.778   7.676   8.796
12603WAT     H138051   9.748   7.582   8.811
12603WAT     H238052   9.852   7.678   8.728
12604WAT      O38053   0.305   5.249   8.001
12604WAT     H138054   0.356   5.167   7.976
12604WAT     H238055   0.222   5.256   7.945
12605WAT      O38056   7.756   4.509   1.820
12605WAT     H138057   7.691   4.508   1.744
12605WAT     H238058   7.787   4.416   1.840
12606WAT      O38059   2.066   8.217   1.918
12606WAT     H138060   2.096   8.245   1.827
12606WAT     H238061   2.145   8.206   1.978
12607WAT      O38062   6.588   6.625   8.121
12607WAT     H138063   6.563   6.540   8.167
12607WAT     H238064   6.609   6.695   8.189
12608WAT      O38065   5.336   9.163   7.341
12608WAT     H138066   5.303   9.079   7.385
12608WAT     H238067   5.391   9.215   7.407
12609WAT      O38068   1.533   1.963   8.870
12609WAT     H138069   1.444   1.977   8.827
12609WAT     H238070   1.600   1.939   8.800
12610WAT      O38071   6.021   6.724   8.576
12610WAT     H138072   5.947   6.759   8.632
12610WAT     H238073   5.990   6.642   8.528
12611WAT      O38074   0.101   2.496   1.921
12611WAT     H138075   0.182   2.532   1.874
12611WAT     H238076   0.083   2.551   2.002
12612WAT      O38077   0.808   4.514   2.927
12612WAT     H138078   0.712   4.540   2.918
12612WAT     H238079   0.855   4.531   2.841
12613WAT      O38080   7.785   1.407   0.575
12613WAT     H138081   7.796   1.469   0.653
12613WAT     H238082   7.695   1.421   0.534
12614WAT      O38083   1.883   8.438   3.086
12614WAT     H138084   1.846   8.348   3.109
12614WAT     H238085   1.935   8.473   3.164
12615WAT      O38086   4.402   6.396   3.874
12615WAT     H138087   4.475   6.345   3.920
12615WAT     H238088   4.441   6.476   3.829
12616WAT      O38089   0.896   4.459   1.561
12616WAT     H138090   0.826   4.506   1.506
12616WAT     H238091   0.982   4.458   1.510
12617WAT      O38092   7.970   0.646   8.667
12617WAT     H138093   7.880   0.605   8.652
12617WAT     H238094   8.024   0.638   8.583
12618WAT      O38095   2.119   4.910   2.229
12618WAT     H138096   2.171   4.995   2.225
12618WAT     H238097   2.182   4.833   2.238
12619WAT      O38098   0.279   0.559   5.615
12619WAT     H138099   0.336   0.610   5.550
12619WAT     H238100   0.338   0.510   5.679
12620WAT      O38101   8.199   1.597   0.482
12620WAT     H138102   8.267   1.668   0.498
12620WAT     H238103   8.184   1.546   0.567
12621WAT      O38104   5.838   6.524   3.896
12621WAT     H138105   5.909   6.456   3.876
12621WAT     H238106   5.774   6.528   3.819
12622WAT      O38107   0.736   2.628   8.631
12622WAT     H138108   0.834   2.616   8.622
12622WAT     H238109   0.698   2.662   8.545
12623WAT      O38110   1.070   6.680   5.504
12623WAT     H138111   1.108   6.623   5.577
12623WAT     H238112   0.973   6.696   5.522
12624WAT      O38113   6.702   6.127   6.787
12624WAT     H138114   6.688   6.226   6.781
12624WAT     H238115   6.753   6.096   6.708
12625WAT      O38116   1.575   6.900   2.939
12625WAT     H138117   1.570   6.952   2.854
12625WAT     H238118   1.599   6.805   2.919
12626WAT      O38119   2.275   5.439   1.476
12626WAT     H138120   2.279   5.484   1.387
12626WAT     H238121   2.179   5.417   1.497
12627WAT      O38122   2.791   6.222   7.384
12627WAT     H138123   2.830   6.133   7.359
12627WAT     H238124   2.829   6.250   7.472
12628WAT      O38125   1.379   6.957   4.195
12628WAT     H138126   1.398   6.899   4.116
12628WAT     H238127   1.328   6.904   4.263
12629WAT      O38128   2.259   5.969   8.944
12629WAT     H138129   2.223   6.044   8.888
12629WAT     H238130   2.275   5.889   8.885
12630WAT      O38131   6.632   2.287   5.277
12630WAT     H138132   6.630   2.316   5.181
12630WAT     H238133   6.571   2.209   5.289
12631WAT      O38134   1.288   9.343   5.420
12631WAT     H138135   1.306   9.294   5.335
12631WAT     H238136   1.189   9.356   5.431
12632WAT      O38137   2.716   7.711   5.581
12632WAT     H138138   2.767   7.796   5.565
12632WAT     H238139   2.620   7.726   5.560
12633WAT      O38140   7.520   8.424   3.766
12633WAT     H138141   7.479   8.359   3.700
12633WAT     H238142   7.450   8.489   3.795
12634WAT      O38143   9.110   2.285   7.766
12634WAT     H138144   9.061   2.206   7.803
12634WAT     H238145   9.198   2.256   7.730
12635WAT      O38146   2.158   1.017   3.766
12635WAT     H138147   2.151   1.113   3.737
12635WAT     H238148   2.255   0.993   3.776
12636WAT      O38149   6.958   1.077   8.798
12636WAT     H138150   6.944   1.136   8.878
12636WAT     H238151   6.986   0.986   8.828
12637WAT      O38152   2.637   9.414   3.865
12637WAT     H138153   2.706   9.356   3.908
12637WAT     H238154   2.629   9.390   3.768
12638WAT      O38155   6.131   3.861   3.330
12638WAT     H138156   6.198   3.914   3.382
12638WAT     H238157   6.059   3.829   3.392
12639WAT      O38158   6.175   8.264   3.284
12639WAT     H138159   6.105   8.334   3.300
12639WAT     H238160   6.247   8.273   3.353
12640WAT      O38161   9.423   8.864   8.729
12640WAT     H138162   9.389   8.899   8.816
12640WAT     H238163   9.375   8.779   8.706
12641WAT      O38164   3.498   1.919   7.952
12641WAT     H138165   3.496   1.850   7.879
12641WAT     H238166   3.414   1.973   7.950
12642WAT      O38167   0.507   7.804   0.848
12642WAT     H138168   0.464   7.881   0.801
12642WAT     H238169   0.538   7.832   0.939
12643WAT      O38170   5.981   3.840   0.580
12643WAT     H138171   6.017   3.747   0.587
12643WAT     H238172   6.001   3.890   0.664
12644WAT      O38173   1.266   8.268   2.922
12644WAT     H138174   1.208   8.318   2.987
12644WAT     H238175   1.362   8.288   2.942
12645WAT      O38176   7.525   6.195   8.563
12645WAT     H138177   7.478   6.120   8.610
12645WAT     H238178   7.463   6.234   8.494
12646WAT      O38179   5.291   0.251   0.383
12646WAT     H138180   5.306   0.341   0.343
12646WAT     H238181   5.333   0.247   0.474
12647WAT      O38182   8.055   7.099   4.215
12647WAT     H138183   8.035   7.134   4.124
12647WAT     H238184   7.972   7.063   4.257
12648WAT      O38185   5.140   2.366   9.365
12648WAT     H138186   5.206   2.335   9.296
12648WAT     H238187   5.115   2.290   9.424
12649WAT      O38188   8.319   4.906   5.560
12649WAT     H138189   8.268   4.844   5.619
12649WAT     H238190   8.384   4.854   5.504
12650WAT      O38191   6.957   6.168   7.080
12650WAT     H138192   6.889   6.193   7.149
12650WAT     H238193   6.967   6.243   7.014
12651WAT      O38194   8.397   4.826   8.660
12651WAT     H138195   8.390   4.735   8.700
12651WAT     H238196   8.465   4.825   8.587
12652WAT      O38197   3.155   4.253   4.524
12652WAT     H138198   3.088   4.212   4.462
12652WAT     H238199   3.116   4.336   4.564
12653WAT      O38200   3.575   0.940   3.310
12653WAT     H138201   3.643   1.002   3.349
12653WAT     H238202   3.551   0.870   3.378
12654WAT      O38203   9.729   7.486   2.689
12654WAT     H138204   9.802   7.446   2.635
12654WAT     H238205   9.765   7.517   2.777
12655WAT      O38206   7.675   3.968   0.887
12655WAT     H138207   7.586   3.927   0.904
12655WAT     H238208   7.697   4.033   0.959
12656WAT      O38209   7.385   1.383   3.256
12656WAT     H138210   7.287   1.401   3.254
12656WAT     H238211   7.409   1.337   3.341
12657WAT      O38212   0.489   0.544   1.292
12657WAT     H138213   0.401   0.579   1.263
12657WAT     H238214   0.560   0.570   1.226
12658WAT      O38215   3.996   1.370   7.472
12658WAT     H138216   3.994   1.451   7.413
12658WAT     H238217   3.927   1.305   7.440
12659WAT      O38218   0.443   2.616   7.074
12659WAT     H138219   0.356   2.656   7.044
12659WAT     H238220   0.519   2.670   7.037
12660WAT      O38221   0.946   7.237   2.454
12660WAT     H138222   0.903   7.247   2.544
12660WAT     H238223   1.041   7.208   2.466
12661WAT      O38224   3.939   9.541   2.152
12661WAT     H138225   4.037   9.532   2.171
12661WAT     H238226   3.904   9.625   2.194
12662WAT      O38227   3.369   1.111   2.440
12662WAT     H138228   3.461   1.127   2.402
12662WAT     H238229   3.320   1.198   2.446
12663WAT      O38230   7.626   0.295   5.803
12663WAT     H138231   7.569   0.358   5.856
12663WAT     H238232   7.704   0.265   5.859
12664WAT      O38233   3.267   2.251   8.915
12664WAT     H138234   3.211   2.334   8.911
12664WAT     H238235   3.220   2.182   8.970
12665WAT      O38236   3.508   8.569   7.367
12665WAT     H138237   3.480   8.589   7.461
12665WAT     H238238   3.433   8.526   7.318
12666WAT      O38239   3.337   4.991   5.976
12666WAT     H138240   3.379   4.904   6.000
12666WAT     H238241   3.317   5.043   6.059
12667WAT      O38242   3.622   5.325   4.762
12667WAT     H138243   3.589   5.411   4.801
12667WAT     H238244   3.555   5.253   4.777
12668WAT      O38245   3.955   1.985   3.843
12668WAT     H138246   3.922   1.917   3.909
12668WAT     H238247   3.879   2.012   3.783
12669WAT      O38248   6.014   4.525   7.775
12669WAT     H138249   6.019   4.591   7.849
12669WAT     H238250   5.970   4.441   7.808
12670WAT      O38251   5.271   0.931   0.476
12670WAT     H138252   5.286   1.029   0.488
12670WAT     H238253   5.346   0.892   0.423
12671WAT      O38254   4.417   5.574   7.242
12671WAT     H138255   4.339   5.597   7.185
12671WAT     H238256   4.436   5.476   7.234
12672WAT      O38257   2.405   8.310   6.972
12672WAT     H138258   2.497   8.349   6.974
12672WAT     H238259   2.352   8.352   6.899
12673WAT      O38260   5.358   4.331   6.701
12673WAT     H138261   5.382   4.262   6.632
12673WAT     H238262   5.392   4.301   6.790
12674WAT      O38263   1.657   3.371   8.587
12674WAT     H138264   1.573   3.351   8.637
12674WAT     H238265   1.681   3.293   8.529
12675WAT      O38266   7.198   1.272   1.723
12675WAT     H138267   7.104   1.288   1.752
12675WAT     H238268   7.202   1.190   1.667
12676WAT      O38269   9.210   2.807   2.138
12676WAT     H138270   9.118   2.774   2.157
12676WAT     H238271   9.226   2.805   2.040
12677WAT      O38272   3.931   6.851   1.175
12677WAT     H138273   3.900   6.871   1.082
12677WAT     H238274   3.941   6.752   1.187
12678WAT      O38275   5.344   5.481   4.525
12678WAT     H138276   5.293   5.444   4.447
12678WAT     H238277   5.359   5.409   4.592
12679WAT      O38278   0.827   2.819   2.527
12679WAT     H138279   0.730   2.796   2.532
12679WAT     H238280   0.882   2.743   2.563
12680WAT      O38281   5.271   4.330   7.597
12680WAT     H138282   5.308   4.410   7.644
12680WAT     H238283   5.341   4.260   7.588
12681WAT      O38284   8.157   8.636   1.037
12681WAT     H138285   8.214   8.711   1.003
12681WAT     H238286   8.080   8.622   0.974
12682WAT      O38287   2.621   6.186   1.713
12682WAT     H138288   2.626   6.269   1.769
12682WAT     H238289   2.525   6.161   1.699
12683WAT      O38290   6.801   8.059   0.178
12683WAT     H138291   6.792   8.143   0.125
12683WAT     H238292   6.724   8.050   0.241
12684WAT      O38293   7.604   7.421   0.496
12684WAT     H138294   7.602   7.401   0.398
12684WAT     H238295   7.657   7.350   0.543
12685WAT      O38296   9.745   4.034   0.733
12685WAT     H138297   9.794   4.095   0.795
12685WAT     H238298   9.698   4.088   0.663
12686WAT      O38299   2.365   4.519   9.057
12686WAT     H138300   2.350   4.582   8.981
12686WAT     H238301   2.404   4.569   9.135
12687WAT      O38302   1.054   0.181   5.366
12687WAT     H138303   1.069   0.187   5.267
12687WAT     H238304   1.135   0.213   5.414
12688WAT      O38305   7.892   0.419   8.462
12688WAT     H138306   7.897   0.389   8.367
12688WAT     H238307   7.980   0.459   8.489
12689WAT      O38308   6.483   0.929   0.069
12689WAT     H138309   6.454   0.958  -0.022
12689WAT     H238310   6.504   0.832   0.068
12690WAT      O38311   3.135   9.326   0.474
12690WAT     H138312   3.168   9.296   0.384
12690WAT     H238313   3.200   9.297   0.544
12691WAT      O38314   1.087   5.971   3.491
12691WAT     H138315   1.083   5.876   3.461
12691WAT     H238316   1.064   5.977   3.588
12692WAT      O38317   5.874   6.568   2.859
12692WAT     H138318   5.871   6.646   2.921
12692WAT     H238319   5.873   6.600   2.765
12693WAT      O38320   4.065   4.465   9.024
12693WAT     H138321   4.023   4.460   8.933
12693WAT     H238322   4.158   4.501   9.016
12694WAT      O38323   2.248   8.907   9.419
12694WAT     H138324   2.240   8.959   9.334
12694WAT     H238325   2.212   8.962   9.495
12695WAT      O38326   5.186   0.855   6.094
12695WAT     H138327   5.223   0.857   6.186
12695WAT     H238328   5.097   0.900   6.093
12696WAT      O38329   1.586   4.241   8.708
12696WAT     H138330   1.521   4.167   8.690
12696WAT     H238331   1.656   4.209   8.772
12697WAT      O38332   4.237   7.013   8.563
12697WAT     H138333   4.148   7.025   8.608
12697WAT     H238334   4.259   6.915   8.560
12698WAT      O38335   5.405   3.426   2.623
12698WAT     H138336   5.491   3.448   2.578
12698WAT     H238337   5.362   3.510   2.655
12699WAT      O38338   5.164   0.063   6.611
12699WAT     H138339   5.114   0.016   6.683
12699WAT     H238340   5.103   0.127   6.564
12700WAT      O38341   4.576   2.275   0.143
12700WAT     H138342   4.651   2.305   0.202
12700WAT     H238343   4.531   2.355   0.102
12701WAT      O38344   6.235   0.880   7.704
12701WAT     H138345   6.272   0.793   7.735
12701WAT     H238346   6.213   0.937   7.783
12702WAT      O38347   2.224   4.199   7.514
12702WAT     H138348   2.226   4.132   7.589
12702WAT     H238349   2.296   4.177   7.448
12703WAT      O38350   7.315   4.416   8.552
12703WAT     H138351   7.397   4.400   8.608
12703WAT     H238352   7.340   4.471   8.473
12704WAT      O38353   1.731   3.027   7.434
12704WAT     H138354   1.639   3.014   7.396
12704WAT     H238355   1.738   2.980   7.522
12705WAT      O38356   3.510   8.112   1.536
12705WAT     H138357   3.471   8.046   1.600
12705WAT     H238358   3.605   8.088   1.516
12706WAT      O38359   1.250   4.938   1.477
12706WAT     H138360   1.210   5.011   1.422
12706WAT     H238361   1.183   4.866   1.492
12707WAT      O38362   9.283   7.315   6.688
12707WAT     H138363   9.350   7.367   6.636
12707WAT     H238364   9.208   7.288   6.627
12708WAT      O38365   7.439   7.189   6.462
12708WAT     H138366   7.468   7.102   6.424
12708WAT     H238367   7.500   7.262   6.431
12709WAT      O38368   2.807   3.829   4.116
12709WAT     H138369   2.727   3.771   4.126
12709WAT     H238370   2.782   3.924   4.135
12710WAT      O38371   3.831   9.658   8.709
12710WAT     H138372   3.852   9.567   8.673
12710WAT     H238373   3.899   9.684   8.777
12711WAT      O38374   2.341   1.543   4.847
12711WAT     H138375   2.396   1.480   4.791
12711WAT     H238376   2.402   1.610   4.891
12712WAT      O38377   4.504   1.170   1.426
12712WAT     H138378   4.545   1.185   1.336
12712WAT     H238379   4.447   1.088   1.424
12713WAT      O38380   6.907   6.313   9.574
12713WAT     H138381   6.812   6.291   9.552
12713WAT     H238382   6.909   6.387   9.641
12714WAT      O38383   6.555   4.348   4.932
12714WAT     H138384   6.628   4.293   4.971
12714WAT     H238385   6.575   4.368   4.836
12715WAT      O38386   3.735   0.382   7.697
12715WAT     H138387   3.635   0.378   7.696
12715WAT     H238388   3.768   0.353   7.786
12716WAT      O38389   7.277   1.520   0.610
12716WAT     H138390   7.297   1.572   0.693
12716WAT     H238391   7.304   1.425   0.623
12717WAT      O38392   4.279   2.724   8.717
12717WAT     H138393   4.179   2.724   8.717
12717WAT     H238394   4.312   2.788   8.787
12718WAT      O38395   7.024   5.948   2.435
12718WAT     H138396   6.945   6.009   2.430
12718WAT     H238397   7.054   5.925   2.342
12719WAT      O38398   8.342   4.690   0.711
12719WAT     H138399   8.359   4.737   0.797
12719WAT     H238400   8.244   4.687   0.693
12720WAT      O38401   4.618   5.391   0.212
12720WAT     H138402   4.535   5.372   0.264
12720WAT     H238403   4.650   5.484   0.233
12721WAT      O38404   6.262   3.469   5.230
12721WAT     H138405   6.174   3.503   5.265
12721WAT     H238406   6.296   3.532   5.160
12722WAT      O38407   9.691   4.609   5.884
12722WAT     H138408   9.704   4.700   5.922
12722WAT     H238409   9.723   4.607   5.789
12723WAT      O38410   3.400   7.610   4.743
12723WAT     H138411   3.376   7.708   4.747
12723WAT     H238412   3.430   7.580   4.834
12724WAT      O38413   3.503   1.806   5.834
12724WAT     H138414   3.548   1.759   5.758
12724WAT     H238415   3.545   1.778   5.920
12725WAT      O38416   8.811   4.210   9.263
12725WAT     H138417   8.768   4.291   9.301
12725WAT     H238418   8.754   4.173   9.190
12726WAT      O38419   8.191   6.626   1.595
12726WAT     H138420   8.171   6.695   1.526
12726WAT     H238421   8.105   6.595   1.636
12727WAT      O38422   0.815   0.847   1.493
12727WAT     H138423   0.808   0.749   1.508
12727WAT     H238424   0.898   0.882   1.537
12728WAT      O38425   2.945   6.404   7.117
12728WAT     H138426   2.973   6.458   7.196
12728WAT     H238427   2.853   6.368   7.132
12729WAT      O38428   2.966   6.894   6.474
12729WAT     H138429   3.025   6.824   6.433
12729WAT     H238430   3.019   6.977   6.490
12730WAT      O38431   8.649   2.191   1.449
12730WAT     H138432   8.593   2.249   1.508
12730WAT     H238433   8.591   2.126   1.402
12731WAT      O38434   6.799   3.896   7.609
12731WAT     H138435   6.893   3.925   7.589
12731WAT     H238436   6.746   3.896   7.524
12732WAT      O38437   3.013   1.932   7.603
12732WAT     H138438   2.949   1.913   7.677
12732WAT     H238439   3.051   1.846   7.569
12733WAT      O38440   7.278   6.618   1.445
12733WAT     H138441   7.280   6.518   1.448
12733WAT     H238442   7.294   6.649   1.351
12734WAT      O38443   6.436   7.227   0.926
12734WAT     H138444   6.479   7.317   0.921
12734WAT     H238445   6.506   7.156   0.923
12735WAT      O38446   0.042   4.263   8.317
12735WAT     H138447  -0.057   4.249   8.326
12735WAT     H238448   0.067   4.350   8.361
12736WAT      O38449   3.914   3.490   3.846
12736WAT     H138450   3.898   3.487   3.748
12736WAT     H238451   3.826   3.497   3.894
12737WAT      O38452   7.573   1.140   1.729
12737WAT     H138453   7.496   1.162   1.789
12737WAT     H238454   7.610   1.224   1.690
12738WAT      O38455   9.334   6.653   6.259
12738WAT     H138456   9.297   6.567   6.224
12738WAT     H238457   9.315   6.660   6.357
12739WAT      O38458   2.079   1.984   5.997
12739WAT     H138459   2.143   2.060   6.002
12739WAT     H238460   2.111   1.909   6.056
12740WAT      O38461   3.583   4.025   7.475
12740WAT     H138462   3.577   3.951   7.408
12740WAT     H238463   3.584   3.986   7.567
12741WAT      O38464   3.161   3.904   3.904
12741WAT     H138465   3.245   3.911   3.850
12741WAT     H238466   3.119   3.994   3.913
12742WAT      O38467   1.350   4.394   7.536
12742WAT     H138468   1.343   4.468   7.603
12742WAT     H238469   1.271   4.397   7.475
12743WAT      O38470   1.594   7.537   9.492
12743WAT     H138471   1.620   7.499   9.581
12743WAT     H238472   1.619   7.634   9.489
12744WAT      O38473   5.710   8.393   5.023
12744WAT     H138474   5.725   8.377   4.925
12744WAT     H238475   5.766   8.470   5.053
12745WAT      O38476   6.407   8.463   0.103
12745WAT     H138477   6.348   8.433   0.028
12745WAT     H238478   6.371   8.427   0.189
12746WAT      O38479   5.228   5.519   6.337
12746WAT     H138480   5.207   5.577   6.416
12746WAT     H238481   5.175   5.550   6.258
12747WAT      O38482   1.905   2.684   9.235
12747WAT     H138483   1.947   2.601   9.201
12747WAT     H238484   1.932   2.762   9.178
12748WAT      O38485   6.745   4.747   8.032
12748WAT     H138486   6.748   4.792   7.943
12748WAT     H238487   6.816   4.678   8.038
12749WAT      O38488   8.505   9.324   3.958
12749WAT     H138489   8.495   9.400   4.023
12749WAT     H238490   8.487   9.238   4.004
12750WAT      O38491   6.777   9.713   2.966
12750WAT     H138492   6.874   9.704   2.942
12750WAT     H238493   6.730   9.626   2.949
12751WAT      O38494   4.037   1.249   3.042
12751WAT     H138495   3.990   1.333   3.015
12751WAT     H238496   4.016   1.228   3.137
12752WAT      O38497   8.374   6.095   3.017
12752WAT     H138498   8.308   6.021   3.000
12752WAT     H238499   8.455   6.056   3.060
12753WAT      O38500   2.858   6.083   9.318
12753WAT     H138501   2.766   6.053   9.293
12753WAT     H238502   2.915   6.004   9.336
12754WAT      O38503   0.809   2.488   6.716
12754WAT     H138504   0.844   2.473   6.623
12754WAT     H238505   0.710   2.479   6.716
12755WAT      O38506   2.696   5.439   3.869
12755WAT     H138507   2.735   5.530   3.879
12755WAT     H238508   2.648   5.413   3.953
12756WAT      O38509   0.101   1.452   4.230
12756WAT     H138510   0.075   1.402   4.313
12756WAT     H238511   0.040   1.530   4.219
12757WAT      O38512   3.291   1.263   0.159
12757WAT     H138513   3.211   1.323   0.155
12757WAT     H238514   3.282   1.200   0.237
12758WAT      O38515   0.253   7.117   7.747
12758WAT     H138516   0.193   7.051   7.703
12758WAT     H238517   0.218   7.138   7.838
12759WAT      O38518   0.378   8.634   2.158
12759WAT     H138519   0.389   8.640   2.257
12759WAT     H238520   0.282   8.618   2.136
12760WAT      O38521   6.570   5.619   3.080
12760WAT     H138522   6.488   5.617   3.022
12760WAT     H238523   6.554   5.562   3.160
12761WAT      O38524   2.193   6.902   9.819
12761WAT     H138525   2.111   6.947   9.785
12761WAT     H238526   2.173   6.858   9.907
12762WAT      O38527   1.644   5.762   0.159
12762WAT     H138528   1.681   5.700   0.090
12762WAT     H238529   1.627   5.711   0.243
12763WAT      O38530   2.018   1.185   9.843
12763WAT     H138531   2.106   1.154   9.878
12763WAT     H238532   1.979   1.115   9.783
12764WAT      O38533   6.672   4.367   2.328
12764WAT     H138534   6.586   4.315   2.322
12764WAT     H238535   6.729   4.328   2.400
12765WAT      O38536   3.688   8.943   0.861
12765WAT     H138537   3.763   8.936   0.796
12765WAT     H238538   3.615   8.999   0.822
12766WAT      O38539   5.663   8.444   7.110
12766WAT     H138540   5.750   8.460   7.157
12766WAT     H238541   5.678   8.442   7.011
12767WAT      O38542   2.540   4.418   6.712
12767WAT     H138543   2.484   4.465   6.643
12767WAT     H238544   2.573   4.485   6.778
12768WAT      O38545   3.670   3.762   9.660
12768WAT     H138546   3.736   3.796   9.593
12768WAT     H238547   3.592   3.722   9.611
12769WAT      O38548   2.406   8.946   2.717
12769WAT     H138549   2.470   8.880   2.754
12769WAT     H238550   2.382   9.013   2.788
12770WAT      O38551   7.283   5.084   8.680
12770WAT     H138552   7.215   5.150   8.713
12770WAT     H238553   7.374   5.124   8.688
12771WAT      O38554   7.414   0.670   8.216
12771WAT     H138555   7.348   0.607   8.174
12771WAT     H238556   7.483   0.695   8.148
12772WAT      O38557   3.200   5.067   9.139
12772WAT     H138558   3.232   4.988   9.191
12772WAT     H238559   3.112   5.098   9.174
12773WAT      O38560   2.295   1.077   7.458
12773WAT     H138561   2.215   1.069   7.516
12773WAT     H238562   2.374   1.103   7.514
12774WAT      O38563   8.944   8.744   5.115
12774WAT     H138564   8.894   8.669   5.072
12774WAT     H238565   9.025   8.708   5.162
12775WAT      O38566   2.055   2.374   1.905
12775WAT     H138567   2.070   2.435   1.827
12775WAT     H238568   1.958   2.372   1.929
12776WAT      O38569   1.800   2.907   3.285
12776WAT     H138570   1.729   2.839   3.266
12776WAT     H238571   1.880   2.888   3.228
12777WAT      O38572   7.558   3.816   5.063
12777WAT     H138573   7.545   3.852   4.971
12777WAT     H238574   7.479   3.839   5.120
12778WAT      O38575   1.748   4.693   3.171
12778WAT     H138576   1.709   4.750   3.099
12778WAT     H238577   1.765   4.601   3.136
12779WAT      O38578   9.712   0.496   6.992
12779WAT     H138579   9.699   0.533   7.084
12779WAT     H238580   9.678   0.562   6.924
12780WAT      O38581   1.362   4.587   0.987
12780WAT     H138582   1.452   4.621   0.961
12780WAT     H238583   1.369   4.535   1.072
12781WAT      O38584   1.401   5.705   3.640
12781WAT     H138585   1.337   5.650   3.693
12781WAT     H238586   1.378   5.802   3.650
12782WAT      O38587   4.621   7.171   4.237
12782WAT     H138588   4.593   7.207   4.325
12782WAT     H238589   4.573   7.219   4.164
12783WAT      O38590   5.204   8.116   8.894
12783WAT     H138591   5.173   8.206   8.864
12783WAT     H238592   5.134   8.074   8.951
12784WAT      O38593   2.100   1.472   4.937
12784WAT     H138594   2.199   1.469   4.919
12784WAT     H238595   2.076   1.397   4.998
12785WAT      O38596   6.365   5.083   8.811
12785WAT     H138597   6.334   5.036   8.728
12785WAT     H238598   6.461   5.063   8.827
12786WAT      O38599   7.717   8.279   9.549
12786WAT     H138600   7.642   8.345   9.544
12786WAT     H238601   7.710   8.228   9.635
12787WAT      O38602   3.522   2.793   6.547
12787WAT     H138603   3.604   2.782   6.491
12787WAT     H238604   3.547   2.787   6.644
12788WAT      O38605   7.466   1.547   8.477
12788WAT     H138606   7.372   1.555   8.510
12788WAT     H238607   7.479   1.606   8.397
12789WAT      O38608   4.218   7.610   0.850
12789WAT     H138609   4.221   7.605   0.750
12789WAT     H238610   4.285   7.676   0.883
12790WAT      O38611   5.837   5.301   3.973
12790WAT     H138612   5.894   5.240   3.918
12790WAT     H238613   5.821   5.386   3.922
12791WAT      O38614   4.794   6.600   4.415
12791WAT     H138615   4.883   6.607   4.460
12791WAT     H238616   4.745   6.686   4.425
12792WAT      O38617   3.726   1.705   3.559
12792WAT     H138618   3.749   1.613   3.526
12792WAT     H238619   3.792   1.771   3.522
12793WAT      O38620   6.197   9.757   4.883
12793WAT     H138621   6.220   9.851   4.908
12793WAT     H238622   6.206   9.698   4.963
12794WAT      O38623   6.208   1.712   8.591
12794WAT     H138624   6.116   1.674   8.581
12794WAT     H238625   6.246   1.686   8.680
12795WAT      O38626   3.343   7.054   1.331
12795WAT     H138627   3.263   6.996   1.347
12795WAT     H238628   3.399   7.015   1.258
12796WAT      O38629   9.675   1.827   9.843
12796WAT     H138630   9.590   1.861   9.883
12796WAT     H238631   9.711   1.753   9.900
12797WAT      O38632   3.003   4.878   7.265
12797WAT     H138633   2.948   4.797   7.285
12797WAT     H238634   3.072   4.856   7.196
12798WAT      O38635   3.775   9.639   9.121
12798WAT     H138636   3.852   9.702   9.116
12798WAT     H238637   3.699   9.683   9.169
12799WAT      O38638   4.939   2.412   5.213
12799WAT     H138639   4.881   2.480   5.258
12799WAT     H238640   4.952   2.334   5.274
12800WAT      O38641   3.944   8.125   7.154
12800WAT     H138642   4.024   8.114   7.212
12800WAT     H238643   3.967   8.181   7.074
12801WAT      O38644   1.703   9.030   2.532
12801WAT     H138645   1.790   8.995   2.564
12801WAT     H238646   1.669   9.100   2.596
12802WAT      O38647   4.275   5.601   0.128
12802WAT     H138648   4.300   5.611   0.031
12802WAT     H238649   4.194   5.656   0.147
12803WAT      O38650   1.492   0.412   6.840
12803WAT     H138651   1.427   0.420   6.916
12803WAT     H238652   1.457   0.462   6.761
12804WAT      O38653   2.451   2.216   1.975
12804WAT     H138654   2.517   2.172   2.036
12804WAT     H238655   2.361   2.214   2.017
12805WAT      O38656   8.372   6.402   1.870
12805WAT     H138657   8.334   6.489   1.903
12805WAT     H238658   8.426   6.419   1.787
12806WAT      O38659   7.222   6.728   2.918
12806WAT     H138660   7.150   6.676   2.965
12806WAT     H238661   7.201   6.826   2.925
12807WAT      O38662   3.815   8.136   9.855
12807WAT     H138663   3.859   8.100   9.938
12807WAT     H238664   3.778   8.061   9.802
12808WAT      O38665   3.486   8.647   9.455
12808WAT     H138666   3.449   8.582   9.388
12808WAT     H238667   3.517   8.730   9.408
12809WAT      O38668   6.364   6.403   1.841
12809WAT     H138669   6.354   6.419   1.939
12809WAT     H238670   6.283   6.435   1.793
12810WAT      O38671   5.255   9.127   4.491
12810WAT     H138672   5.252   9.028   4.478
12810WAT     H238673   5.346   9.160   4.468
12811WAT      O38674   8.186   6.817   8.832
12811WAT     H138675   8.247   6.797   8.755
12811WAT     H238676   8.240   6.841   8.913
12812WAT      O38677   5.562   3.751   4.047
12812WAT     H138678   5.649   3.707   4.070
12812WAT     H238679   5.540   3.733   3.951
12813WAT      O38680   4.924   2.171   6.524
12813WAT     H138681   4.904   2.268   6.511
12813WAT     H238682   4.923   2.149   6.622
12814WAT      O38683   6.546   4.104   0.343
12814WAT     H138684   6.640   4.105   0.309
12814WAT     H238685   6.545   4.064   0.435
12815WAT      O38686   3.303   5.336   2.445
12815WAT     H138687   3.262   5.384   2.523
12815WAT     H238688   3.299   5.237   2.462
12816WAT      O38689   5.790   8.426   0.426
12816WAT     H138690   5.793   8.350   0.491
12816WAT     H238691   5.861   8.492   0.448
12817WAT      O38692   5.746   7.623   1.895
12817WAT     H138693   5.829   7.568   1.887
12817WAT     H238694   5.758   7.689   1.970
12818WAT      O38695   5.334   5.698   1.336
12818WAT     H138696   5.278   5.781   1.343
12818WAT     H238697   5.283   5.621   1.375
12819WAT      O38698   7.496   1.972   1.542
12819WAT     H138699   7.502   1.874   1.521
12819WAT     H238700   7.401   1.995   1.565
12820WAT      O38701   9.135   1.682   4.995
12820WAT     H138702   9.144   1.602   4.936
12820WAT     H238703   9.187   1.667   5.080
12821WAT      O38704   9.035   9.733   0.196
12821WAT     H138705   9.126   9.722   0.236
12821WAT     H238706   8.983   9.801   0.248
12822WAT      O38707   9.468   4.948   6.397
12822WAT     H138708   9.480   4.921   6.301
12822WAT     H238709   9.450   5.046   6.402
12823WAT      O38710   0.346   6.692   2.735
12823WAT     H138711   0.331   6.755   2.811
12823WAT     H238712   0.358   6.599   2.770
12824WAT      O38713   1.253   9.008   7.057
12824WAT     H138714   1.253   9.030   6.960
12824WAT     H238715   1.179   9.056   7.103
12825WAT      O38716   1.632   3.177   3.598
12825WAT     H138717   1.556   3.216   3.547
12825WAT     H238718   1.712   3.169   3.538
12826WAT      O38719   6.443   0.927   6.801
12826WAT     H138720   6.406   0.866   6.731
12826WAT     H238721   6.452   0.878   6.887
12827WAT      O38722   5.779   3.727   3.045
12827WAT     H138723   5.812   3.774   2.963
12827WAT     H238724   5.747   3.635   3.021
12828WAT      O38725   4.447   5.864   6.648
12828WAT     H138726   4.434   5.928   6.724
12828WAT     H238727   4.429   5.912   6.562
12829WAT      O38728   5.781   1.412   4.547
12829WAT     H138729   5.716   1.365   4.606
12829WAT     H238730   5.874   1.392   4.577
12830WAT      O38731   2.700   9.579   2.509
12830WAT     H138732   2.658   9.493   2.537
12830WAT     H238733   2.792   9.585   2.546
12831WAT      O38734   2.028   5.338   3.169
12831WAT     H138735   2.060   5.433   3.172
12831WAT     H238736   2.089   5.281   3.224
12832WAT      O38737   3.217   0.734   8.980
12832WAT     H138738   3.259   0.816   9.016
12832WAT     H238739   3.157   0.758   8.903
12833WAT      O38740   1.308   1.394   4.603
12833WAT     H138741   1.218   1.411   4.563
12833WAT     H238742   1.378   1.428   4.541
12834WAT      O38743   5.915   9.265   5.426
12834WAT     H138744   5.866   9.264   5.339
12834WAT     H238745   5.916   9.173   5.465
12835WAT      O38746   5.641   9.563   6.351
12835WAT     H138747   5.622   9.597   6.443
12835WAT     H238748   5.718   9.499   6.355
12836WAT      O38749   8.773   6.718   0.276
12836WAT     H138750   8.800   6.630   0.315
12836WAT     H238751   8.768   6.711   0.176
12837WAT      O38752   9.387   6.878   0.988
12837WAT     H138753   9.477   6.842   0.962
12837WAT     H238754   9.377   6.873   1.087
12838WAT      O38755   0.634   7.934   9.140
12838WAT     H138756   0.673   8.003   9.079
12838WAT     H238757   0.535   7.942   9.140
12839WAT      O38758   7.731   3.961   7.888
12839WAT     H138759   7.725   4.017   7.805
12839WAT     H238760   7.652   3.977   7.945
12840WAT      O38761   1.233   5.266   3.359
12840WAT     H138762   1.230   5.307   3.268
12840WAT     H238763   1.308   5.200   3.363
12841WAT      O38764   6.659   0.964   0.877
12841WAT     H138765   6.748   0.987   0.917
12841WAT     H238766   6.586   1.004   0.933
12842WAT      O38767   5.542   4.922   5.446
12842WAT     H138768   5.518   4.849   5.510
12842WAT     H238769   5.637   4.948   5.459
12843WAT      O38770   4.901   7.359   4.963
12843WAT     H138771   4.919   7.439   5.020
12843WAT     H238772   4.983   7.336   4.911
12844WAT      O38773   0.525   0.591   6.539
12844WAT     H138774   0.559   0.571   6.447
12844WAT     H238775   0.434   0.552   6.551
12845WAT      O38776   8.848   3.494   1.727
12845WAT     H138777   8.888   3.531   1.644
12845WAT     H238778   8.885   3.403   1.745
12846WAT      O38779   7.928   3.099   7.336
12846WAT     H138780   7.968   3.064   7.421
12846WAT     H238781   7.865   3.173   7.357
12847WAT      O38782   2.231   4.955   6.682
12847WAT     H138783   2.175   4.903   6.617
12847WAT     H238784   2.172   4.995   6.752
12848WAT      O38785   3.600   5.335   2.398
12848WAT     H138786   3.628   5.278   2.321
12848WAT     H238787   3.500   5.342   2.398
12849WAT      O38788   0.121   0.481   9.809
12849WAT     H138789   0.116   0.551   9.738
12849WAT     H238790   0.164   0.399   9.772
12850WAT      O38791   9.853   2.831   5.255
12850WAT     H138792   9.826   2.874   5.341
12850WAT     H238793   9.795   2.865   5.181
12851WAT      O38794   6.551   8.450   8.081
12851WAT     H138795   6.593   8.455   7.991
12851WAT     H238796   6.572   8.362   8.123
12852WAT      O38797   5.641   0.935   4.729
12852WAT     H138798   5.690   0.850   4.711
12852WAT     H238799   5.588   0.961   4.648
12853WAT      O38800   1.605   9.199   6.837
12853WAT     H138801   1.644   9.289   6.817
12853WAT     H238802   1.507   9.209   6.857
12854WAT      O38803   2.066   5.932   8.050
12854WAT     H138804   2.145   5.950   8.110
12854WAT     H238805   2.088   5.857   7.988
12855WAT      O38806   4.102   8.491   1.091
12855WAT     H138807   4.082   8.588   1.102
12855WAT     H238808   4.162   8.461   1.165
12856WAT      O38809   0.433   5.747   4.358
12856WAT     H138810   0.426   5.799   4.444
12856WAT     H238811   0.445   5.650   4.379
12857WAT      O38812   1.072   4.268   9.502
12857WAT     H138813   1.049   4.172   9.519
12857WAT     H238814   1.008   4.306   9.437
12858WAT      O38815   1.281   1.804   1.455
12858WAT     H138816   1.212   1.749   1.406
12858WAT     H238817   1.237   1.885   1.493
12859WAT      O38818   8.311   8.163   9.103
12859WAT     H138819   8.237   8.121   9.156
12859WAT     H238820   8.313   8.261   9.121
12860WAT      O38821   5.396   8.858   6.569
12860WAT     H138822   5.342   8.885   6.648
12860WAT     H238823   5.468   8.926   6.552
12861WAT      O38824   3.022   2.271   9.251
12861WAT     H138825   3.016   2.364   9.213
12861WAT     H238826   2.984   2.206   9.186
12862WAT      O38827   5.427   7.058   5.152
12862WAT     H138828   5.370   7.128   5.108
12862WAT     H238829   5.483   7.012   5.083
12863WAT      O38830   8.496   4.431   4.296
12863WAT     H138831   8.441   4.355   4.261
12863WAT     H238832   8.510   4.420   4.394
12864WAT      O38833   3.447   4.825   0.235
12864WAT     H138834   3.441   4.901   0.170
12864WAT     H238835   3.525   4.839   0.296
12865WAT      O38836   7.050   5.339   4.438
12865WAT     H138837   7.009   5.278   4.370
12865WAT     H238838   7.011   5.430   4.429
12866WAT      O38839   1.333   8.164   4.231
12866WAT     H138840   1.387   8.124   4.304
12866WAT     H238841   1.276   8.237   4.268
12867WAT      O38842   3.642   3.941   0.093
12867WAT     H138843   3.678   3.856   0.055
12867WAT     H238844   3.696   3.967   0.173
12868WAT      O38845   2.672   0.055   0.689
12868WAT     H138846   2.674   0.052   0.789
12868WAT     H238847   2.643   0.146   0.659
12869WAT      O38848   2.053   5.636   5.102
12869WAT     H138849   2.131   5.698   5.107
12869WAT     H238850   1.979   5.669   5.161
12870WAT      O38851   2.210   3.533   1.294
12870WAT     H138852   2.211   3.450   1.351
12870WAT     H238853   2.197   3.508   1.199
12871WAT      O38854   2.348   7.959   5.090
12871WAT     H138855   2.410   7.917   5.024
12871WAT     H238856   2.363   8.058   5.093
12872WAT      O38857   4.147   6.751   0.563
12872WAT     H138858   4.201   6.677   0.604
12872WAT     H238859   4.168   6.837   0.609
12873WAT      O38860   2.754   0.370   2.721
12873WAT     H138861   2.842   0.387   2.767
12873WAT     H238862   2.770   0.356   2.623
12874WAT      O38863   4.503   7.453   9.580
12874WAT     H138864   4.476   7.391   9.654
12874WAT     H238865   4.424   7.475   9.524
12875WAT      O38866   2.647   2.741   7.242
12875WAT     H138867   2.713   2.814   7.260
12875WAT     H238868   2.680   2.656   7.283
12876WAT      O38869   1.092   1.861   5.599
12876WAT     H138870   1.151   1.929   5.642
12876WAT     H238871   1.128   1.770   5.616
12877WAT      O38872   8.376   1.835   6.740
12877WAT     H138873   8.422   1.746   6.736
12877WAT     H238874   8.327   1.851   6.654
12878WAT      O38875   0.490   6.087   6.167
12878WAT     H138876   0.494   5.987   6.176
12878WAT     H238877   0.562   6.128   6.223
12879WAT      O38878   6.894   7.265   9.794
12879WAT     H138879   6.861   7.242   9.885
12879WAT     H238880   6.916   7.363   9.790
12880WAT      O38881   1.180   6.197   4.885
12880WAT     H138882   1.178   6.097   4.890
12880WAT     H238883   1.113   6.235   4.949
12881WAT      O38884   1.880   2.572   5.399
12881WAT     H138885   1.898   2.651   5.340
12881WAT     H238886   1.894   2.488   5.346
12882WAT      O38887   4.120   8.903   0.058
12882WAT     H138888   4.197   8.939   0.110
12882WAT     H238889   4.101   8.964  -0.019
12883WAT      O38890   7.679   0.817   6.524
12883WAT     H138891   7.652   0.846   6.616
12883WAT     H238892   7.600   0.776   6.478
12884WAT      O38893   8.828   9.775   0.548
12884WAT     H138894   8.833   9.807   0.453
12884WAT     H238895   8.892   9.826   0.605
12885WAT      O38896   2.274   4.734   1.029
12885WAT     H138897   2.347   4.715   1.096
12885WAT     H238898   2.289   4.825   0.990
12886WAT      O38899   7.377   6.068   9.736
12886WAT     H138900   7.297   6.022   9.698
12886WAT     H238901   7.460   6.023   9.702
12887WAT      O38902   9.348   0.166   2.290
12887WAT     H138903   9.440   0.144   2.257
12887WAT     H238904   9.293   0.198   2.213
12888WAT      O38905   5.646   5.756   7.584
12888WAT     H138906   5.670   5.852   7.570
12888WAT     H238907   5.711   5.713   7.646
12889WAT      O38908   6.519   1.710   2.408
12889WAT     H138909   6.421   1.726   2.399
12889WAT     H238910   6.535   1.635   2.472
12890WAT      O38911   0.431   7.528   3.427
12890WAT     H138912   0.344   7.579   3.432
12890WAT     H238913   0.505   7.592   3.407
12891WAT      O38914   8.822   0.976   9.132
12891WAT     H138915   8.804   1.056   9.189
12891WAT     H238916   8.877   0.910   9.183
12892WAT      O38917   8.695   4.360   6.210
12892WAT     H138918   8.629   4.350   6.285
12892WAT     H238919   8.676   4.291   6.140
12893WAT      O38920   3.969   3.926   2.375
12893WAT     H138921   3.978   3.906   2.473
12893WAT     H238922   4.017   3.856   2.322
12894WAT      O38923   1.433   2.249   7.940
12894WAT     H138924   1.469   2.161   7.972
12894WAT     H238925   1.468   2.322   7.998
12895WAT      O38926   4.425   2.741   0.812
12895WAT     H138927   4.505   2.725   0.870
12895WAT     H238928   4.437   2.827   0.762
12896WAT      O38929   8.538   2.168   3.301
12896WAT     H138930   8.475   2.243   3.280
12896WAT     H238931   8.629   2.206   3.319
12897WAT      O38932   2.711   1.247   8.035
12897WAT     H138933   2.698   1.257   8.134
12897WAT     H238934   2.749   1.331   7.998
12898WAT      O38935   3.438   7.285   6.367
12898WAT     H138936   3.362   7.331   6.414
12898WAT     H238937   3.522   7.300   6.418
12899WAT      O38938   8.896   3.035   0.287
12899WAT     H138939   8.826   3.045   0.358
12899WAT     H238940   8.854   3.003   0.203
12900WAT      O38941   7.074   4.985   0.335
12900WAT     H138942   7.028   5.001   0.248
12900WAT     H238943   7.029   5.037   0.408
12901WAT      O38944   2.825   7.899   2.469
12901WAT     H138945   2.749   7.930   2.410
12901WAT     H238946   2.792   7.828   2.531
12902WAT      O38947   4.001   7.486   6.779
12902WAT     H138948   4.091   7.498   6.820
12902WAT     H238949   3.939   7.556   6.815
12903WAT      O38950   3.531   6.882   0.747
12903WAT     H138951   3.550   6.784   0.758
12903WAT     H238952   3.611   6.928   0.708
12904WAT      O38953   1.291   6.603   9.062
12904WAT     H138954   1.207   6.547   9.065
12904WAT     H238955   1.289   6.669   9.137
12905WAT      O38956   3.393   7.373   7.468
12905WAT     H138957   3.357   7.455   7.512
12905WAT     H238958   3.319   7.307   7.454
12906WAT      O38959   1.922   6.840   7.232
12906WAT     H138960   1.833   6.871   7.267
12906WAT     H238961   1.991   6.853   7.303
12907WAT      O38962   0.567   7.640   0.512
12907WAT     H138963   0.642   7.680   0.564
12907WAT     H238964   0.481   7.683   0.539
12908WAT      O38965   8.114   2.583   1.774
12908WAT     H138966   8.020   2.596   1.743
12908WAT     H238967   8.118   2.507   1.839
12909WAT      O38968   0.469   8.239   4.350
12909WAT     H138969   0.466   8.267   4.254
12909WAT     H238970   0.499   8.316   4.406
12910WAT      O38971   8.899   8.373   3.568
12910WAT     H138972   8.887   8.473   3.572
12910WAT     H238973   8.996   8.352   3.554
12911WAT      O38974   1.820   3.389   1.499
12911WAT     H138975   1.896   3.326   1.512
12911WAT     H238976   1.735   3.343   1.526
12912WAT      O38977   7.527   0.843   5.394
12912WAT     H138978   7.568   0.753   5.400
12912WAT     H238979   7.566   0.903   5.464
12913WAT      O38980   8.103   9.776   2.473
12913WAT     H138981   8.030   9.798   2.409
12913WAT     H238982   8.066   9.773   2.566
12914WAT      O38983   5.263   6.696   5.090
12914WAT     H138984   5.306   6.692   5.000
12914WAT     H238985   5.318   6.645   5.156
12915WAT      O38986   1.594   5.115   9.685
12915WAT     H138987   1.555   5.056   9.615
12915WAT     H238988   1.682   5.078   9.715
12916WAT      O38989   3.023   7.108   5.827
12916WAT     H138990   3.065   7.097   5.917
12916WAT     H238991   2.940   7.163   5.835
12917WAT      O38992   0.362   4.313   2.192
12917WAT     H138993   0.353   4.393   2.251
12917WAT     H238994   0.277   4.300   2.141
12918WAT      O38995   7.690   8.771   9.772
12918WAT     H138996   7.728   8.860   9.745
12918WAT     H238997   7.682   8.767   9.872
12919WAT      O38998   6.045   9.471   7.390
12919WAT     H138999   6.113   9.542   7.370
12919WAT     H239000   6.069   9.388   7.341
12920WAT      O39001   7.665   0.395   4.766
12920WAT     H139002   7.706   0.342   4.692
12920WAT     H239003   7.723   0.473   4.789
12921WAT      O39004   1.737   2.717   6.947
12921WAT     H139005   1.668   2.758   7.006
12921WAT     H239006   1.827   2.758   6.968
12922WAT      O39007   3.371   1.369   7.024
12922WAT     H139008   3.326   1.370   7.114
12922WAT     H239009   3.329   1.439   6.966
12923WAT      O39010   1.166   4.953   7.038
12923WAT     H139011   1.242   5.007   7.073
12923WAT     H239012   1.112   5.009   6.975
12924WAT      O39013   3.076   6.754   3.821
12924WAT     H139014   3.172   6.765   3.796
12924WAT     H239015   3.031   6.696   3.753
12925WAT      O39016   6.173   1.012   1.924
12925WAT     H139017   6.268   1.023   1.895
12925WAT     H239018   6.153   1.077   1.998
12926WAT      O39019   1.721   2.267   9.863
12926WAT     H139020   1.706   2.211   9.944
12926WAT     H239021   1.770   2.214   9.794
12927WAT      O39022   3.098   1.979   3.273
12927WAT     H139023   3.019   2.034   3.247
12927WAT     H239024   3.124   2.001   3.367
12928WAT      O39025   8.752   0.491   2.882
12928WAT     H139026   8.845   0.459   2.895
12928WAT     H239027   8.714   0.449   2.800
12929WAT      O39028   0.554   5.067   4.670
12929WAT     H139029   0.491   5.077   4.748
12929WAT     H239030   0.502   5.072   4.585
12930WAT      O39031   7.214   5.407   3.379
12930WAT     H139032   7.286   5.374   3.319
12930WAT     H239033   7.242   5.494   3.421
12931WAT      O39034   5.166   1.674   3.605
12931WAT     H139035   5.207   1.585   3.585
12931WAT     H239036   5.067   1.668   3.599
12932WAT      O39037   7.351   1.568   4.791
12932WAT     H139038   7.373   1.486   4.842
12932WAT     H239039   7.329   1.642   4.855
12933WAT      O39040   3.239   3.945   4.389
12933WAT     H139041   3.249   4.028   4.334
12933WAT     H239042   3.209   3.870   4.331
12934WAT      O39043   8.555   8.609   4.812
12934WAT     H139044   8.533   8.689   4.756
12934WAT     H239045   8.654   8.600   4.822
12935WAT      O39046   6.388   7.293   4.277
12935WAT     H139047   6.403   7.248   4.190
12935WAT     H239048   6.309   7.355   4.270
12936WAT      O39049   8.273   8.640   2.943
12936WAT     H139050   8.307   8.552   2.977
12936WAT     H239051   8.173   8.636   2.937
12937WAT      O39052   4.525   6.153   0.211
12937WAT     H139053   4.446   6.093   0.207
12937WAT     H239054   4.558   6.159   0.305
12938WAT      O39055   3.306   7.835   8.670
12938WAT     H139056   3.381   7.812   8.731
12938WAT     H239057   3.219   7.811   8.714
12939WAT      O39058   6.113   0.543   9.407
12939WAT     H139059   6.098   0.642   9.402
12939WAT     H239060   6.155   0.511   9.322
12940WAT      O39061   4.772   5.466   7.251
12940WAT     H139062   4.762   5.563   7.275
12940WAT     H239063   4.867   5.438   7.266
12941WAT      O39064   4.119   2.870   1.370
12941WAT     H139065   4.031   2.903   1.404
12941WAT     H239066   4.105   2.791   1.310
12942WAT      O39067   8.253   5.511   4.659
12942WAT     H139068   8.295   5.572   4.728
12942WAT     H239069   8.188   5.564   4.604
12943WAT      O39070   3.551   6.369   2.264
12943WAT     H139071   3.650   6.379   2.274
12943WAT     H239072   3.529   6.343   2.169
12944WAT      O39073   1.575   9.314   5.886
12944WAT     H139074   1.486   9.349   5.857
12944WAT     H239075   1.648   9.368   5.845
12945WAT      O39076   6.791   6.837   9.044
12945WAT     H139077   6.825   6.839   8.950
12945WAT     H239078   6.715   6.901   9.054
12946WAT      O39079   6.508   5.786   3.460
12946WAT     H139080   6.516   5.721   3.535
12946WAT     H239081   6.590   5.781   3.402
12947WAT      O39082   8.999   7.067   4.214
12947WAT     H139083   9.062   7.000   4.253
12947WAT     H239084   8.930   7.091   4.283
12948WAT      O39085   5.322   6.776   4.502
12948WAT     H139086   5.405   6.738   4.543
12948WAT     H239087   5.321   6.754   4.404
12949WAT      O39088   6.984   0.508   5.850
12949WAT     H139089   6.944   0.562   5.776
12949WAT     H239090   7.064   0.459   5.816
12950WAT      O39091   3.866   2.297   8.278
12950WAT     H139092   3.842   2.262   8.369
12950WAT     H239093   3.965   2.308   8.273
12951WAT      O39094   5.086   0.270   1.580
12951WAT     H139095   5.104   0.321   1.664
12951WAT     H239096   4.992   0.234   1.582
12952WAT      O39097   6.414   0.775   2.375
12952WAT     H139098   6.377   0.682   2.371
12952WAT     H239099   6.411   0.808   2.469
12953WAT      O39100   6.544   1.654   3.602
12953WAT     H139101   6.545   1.680   3.699
12953WAT     H239102   6.620   1.699   3.555
12954WAT      O39103   9.489   5.662   9.666
12954WAT     H139104   9.546   5.638   9.745
12954WAT     H239105   9.548   5.681   9.588
12955WAT      O39106   1.549   7.284   6.415
12955WAT     H139107   1.582   7.226   6.342
12955WAT     H239108   1.486   7.233   6.473
12956WAT      O39109   4.268   7.567   0.569
12956WAT     H139110   4.230   7.477   0.546
12956WAT     H239111   4.289   7.616   0.485
12957WAT      O39112   7.444   8.903   4.891
12957WAT     H139113   7.453   8.976   4.824
12957WAT     H239114   7.373   8.839   4.862
12958WAT      O39115   6.059   0.188   0.664
12958WAT     H139116   6.127   0.174   0.592
12958WAT     H239117   6.057   0.107   0.723
12959WAT      O39118   0.520   6.426   3.436
12959WAT     H139119   0.505   6.479   3.353
12959WAT     H239120   0.450   6.354   3.442
12960WAT      O39121   0.448   3.303   2.943
12960WAT     H139122   0.493   3.216   2.966
12960WAT     H239123   0.495   3.346   2.866
12961WAT      O39124   3.774   8.107   5.231
12961WAT     H139125   3.867   8.076   5.251
12961WAT     H239126   3.723   8.116   5.316
12962WAT      O39127   0.284   4.120   5.176
12962WAT     H139128   0.285   4.051   5.104
12962WAT     H239129   0.232   4.200   5.145
12963WAT      O39130   2.078   6.895   6.570
12963WAT     H139131   2.080   6.992   6.596
12963WAT     H239132   2.052   6.841   6.650
12964WAT      O39133   8.803   6.492   1.886
12964WAT     H139134   8.887   6.543   1.905
12964WAT     H239135   8.724   6.548   1.908
12965WAT      O39136   6.070   1.415   8.924
12965WAT     H139137   6.168   1.415   8.944
12965WAT     H239138   6.041   1.507   8.898
12966WAT      O39139   4.196   0.544   3.990
12966WAT     H139140   4.122   0.517   4.051
12966WAT     H239141   4.243   0.462   3.956
12967WAT      O39142   5.733   3.514   1.142
12967WAT     H139143   5.639   3.484   1.159
12967WAT     H239144   5.782   3.518   1.229
12968WAT      O39145   7.405   8.556   4.575
12968WAT     H139146   7.310   8.524   4.574
12968WAT     H239147   7.463   8.490   4.527
12969WAT      O39148   9.492   4.227   5.287
12969WAT     H139149   9.471   4.193   5.378
12969WAT     H239150   9.585   4.199   5.262
12970WAT      O39151   5.103   7.881   3.101
12970WAT     H139152   5.007   7.884   3.128
12970WAT     H239153   5.149   7.807   3.149
12971WAT      O39154   1.822   9.196   8.615
12971WAT     H139155   1.834   9.224   8.711
12971WAT     H239156   1.779   9.106   8.612
12972WAT      O39157   6.037   9.368   1.263
12972WAT     H139158   6.087   9.284   1.245
12972WAT     H239159   5.940   9.354   1.244
12973WAT      O39160   3.873   9.245   0.651
12973WAT     H139161   3.809   9.226   0.577
12973WAT     H239162   3.830   9.306   0.717
12974WAT      O39163   7.111   2.067   0.546
12974WAT     H139164   7.197   2.032   0.509
12974WAT     H239165   7.052   1.989   0.570
12975WAT      O39166   9.679   2.815   2.660
12975WAT     H139167   9.696   2.776   2.750
12975WAT     H239168   9.648   2.909   2.669
12976WAT      O39169   3.682   7.516   0.119
12976WAT     H139170   3.737   7.529   0.037
12976WAT     H239171   3.602   7.460   0.098
12977WAT      O39172   0.686   6.803   5.982
12977WAT     H139173   0.667   6.799   6.080
12977WAT     H239174   0.759   6.738   5.960
12978WAT      O39175   0.774   3.482   1.346
12978WAT     H139176   0.842   3.543   1.385
12978WAT     H239177   0.737   3.423   1.418
12979WAT      O39178   7.308   6.944   1.565
12979WAT     H139179   7.268   6.858   1.596
12979WAT     H239180   7.299   7.013   1.637
12980WAT      O39181   4.896   5.777   6.914
12980WAT     H139182   4.921   5.784   6.818
12980WAT     H239183   4.893   5.680   6.941
12981WAT      O39184   2.813   8.517   6.242
12981WAT     H139185   2.721   8.476   6.239
12981WAT     H239186   2.881   8.444   6.242
12982WAT      O39187   0.446   0.493   3.455
12982WAT     H139188   0.359   0.525   3.493
12982WAT     H239189   0.483   0.563   3.394
12983WAT      O39190   4.353   0.137   9.492
12983WAT     H139191   4.287   0.071   9.525
12983WAT     H239192   4.432   0.089   9.453
12984WAT      O39193   7.414   8.964   9.276
12984WAT     H139194   7.427   8.996   9.370
12984WAT     H239195   7.429   8.865   9.272
12985WAT      O39196   6.229   5.362   9.456
12985WAT     H139197   6.159   5.345   9.525
12985WAT     H239198   6.225   5.290   9.386
12986WAT      O39199   4.032   1.072   7.674
12986WAT     H139200   3.979   1.101   7.753
12986WAT     H239201   4.095   1.145   7.648
12987WAT      O39202   8.920   0.754   3.895
12987WAT     H139203   8.822   0.755   3.918
12987WAT     H239204   8.933   0.789   3.802
12988WAT      O39205   5.809   9.832   3.929
12988WAT     H139206   5.808   9.880   3.841
12988WAT     H239207   5.715   9.816   3.959
12989WAT      O39208   2.122   4.107   2.765
12989WAT     H139209   2.091   4.198   2.736
12989WAT     H239210   2.046   4.043   2.760
12990WAT      O39211   7.937   6.979   1.085
12990WAT     H139212   7.900   6.887   1.088
12990WAT     H239213   8.021   6.984   1.140
12991WAT      O39214   1.079   8.550   4.878
12991WAT     H139215   1.089   8.456   4.847
12991WAT     H239216   1.088   8.553   4.977
12992WAT      O39217   4.511   1.862   9.383
12992WAT     H139218   4.526   1.844   9.480
12992WAT     H239219   4.433   1.923   9.372
12993WAT      O39220   1.237   7.033   9.185
12993WAT     H139221   1.321   7.086   9.181
12993WAT     H239222   1.159   7.095   9.197
12994WAT      O39223   3.463   2.069   4.977
12994WAT     H139224   3.462   2.037   4.882
12994WAT     H239225   3.534   2.138   4.988
12995WAT      O39226   1.882   6.559   6.678
12995WAT     H139227   1.861   6.499   6.756
12995WAT     H239228   1.940   6.634   6.709
12996WAT      O39229   2.489   2.882   6.666
12996WAT     H139230   2.470   2.883   6.764
12996WAT     H239231   2.461   2.970   6.626
12997WAT      O39232   5.438   3.165   6.741
12997WAT     H139233   5.423   3.259   6.711
12997WAT     H239234   5.349   3.120   6.754
12998WAT      O39235   0.237   8.600   0.553
12998WAT     H139236   0.177   8.571   0.479
12998WAT     H239237   0.319   8.643   0.515
12999WAT      O39238   8.105   8.409   2.119
12999WAT     H139239   8.069   8.374   2.206
12999WAT     H239240   8.049   8.376   2.044
13000WAT      O39241   3.588   2.853   6.813
13000WAT     H139242   3.519   2.787   6.844
13000WAT     H239243   3.678   2.826   6.848
13001WAT      O39244   6.073   5.236   1.988
13001WAT     H139245   6.165   5.224   1.950
13001WAT     H239246   6.061   5.332   2.014
13002WAT      O39247   6.285   7.995   2.311
13002WAT     H139248   6.327   8.068   2.365
13002WAT     H239249   6.189   7.985   2.338
13003WAT      O39250   4.171   5.042   9.677
13003WAT     H139251   4.190   4.945   9.665
13003WAT     H239252   4.244   5.084   9.731
13004WAT      O39253   4.578   2.382   1.051
13004WAT     H139254   4.534   2.313   0.995
13004WAT     H239255   4.536   2.472   1.034
13005WAT      O39256   3.315   7.246   0.678
13005WAT     H139257   3.309   7.177   0.750
13005WAT     H239258   3.257   7.219   0.601
13006WAT      O39259   7.059   6.194   9.776
13006WAT     H139260   7.081   6.109   9.728
13006WAT     H239261   6.980   6.238   9.732
13007WAT      O39262   9.532   9.568   8.612
13007WAT     H139263   9.547   9.516   8.527
13007WAT     H239264   9.614   9.619   8.635
13008WAT      O39265   0.157   7.168   8.783
13008WAT     H139266   0.234   7.230   8.801
13008WAT     H239267   0.184   7.074   8.802
13009WAT      O39268   8.208   5.364   7.915
13009WAT     H139269   8.278   5.304   7.950
13009WAT     H239270   8.244   5.457   7.906
13010WAT      O39271   7.784   2.703   7.840
13010WAT     H139272   7.746   2.746   7.759
13010WAT     H239273   7.720   2.712   7.916
13011WAT      O39274   3.593   7.933   0.854
13011WAT     H139275   3.517   7.890   0.903
13011WAT     H239276   3.671   7.869   0.850
13012WAT      O39277   0.236   0.088   8.864
13012WAT     H139278   0.251   0.105   8.767
13012WAT     H239279   0.169   0.015   8.875
13013WAT      O39280   1.996   4.962   0.209
13013WAT     H139281   1.910   4.911   0.206
13013WAT     H239282   2.034   4.958   0.301
13014WAT      O39283   6.906   1.906   6.195
13014WAT     H139284   6.992   1.856   6.198
13014WAT     H239285   6.921   2.000   6.227
13015WAT      O39286   5.164   7.740   0.703
13015WAT     H139287   5.193   7.692   0.620
13015WAT     H239288   5.122   7.675   0.766
13016WAT      O39289   3.184   2.204   0.349
13016WAT     H139290   3.183   2.299   0.380
13016WAT     H239291   3.278   2.169   0.350
13017WAT      O39292   6.958   0.602   1.229
13017WAT     H139293   6.981   0.569   1.137
13017WAT     H239294   7.024   0.567   1.294
13018WAT      O39295   1.887   7.542   6.327
13018WAT     H139296   1.966   7.572   6.274
13018WAT     H239297   1.854   7.617   6.383
13019WAT      O39298   8.206   8.753   2.444
13019WAT     H139299   8.243   8.808   2.369
13019WAT     H239300   8.107   8.767   2.450
13020WAT      O39301   9.779   2.171   7.817
13020WAT     H139302   9.691   2.154   7.861
13020WAT     H239303   9.765   2.225   7.734
13021WAT      O39304   4.552   2.849   4.247
13021WAT     H139305   4.524   2.936   4.289
13021WAT     H239306   4.472   2.791   4.235
13022WAT      O39307   6.226   0.810   1.473
13022WAT     H139308   6.261   0.848   1.559
13022WAT     H239309   6.146   0.862   1.444
13023WAT      O39310   7.718   5.517   6.383
13023WAT     H139311   7.800   5.538   6.437
13023WAT     H239312   7.653   5.592   6.391
13024WAT      O39313   6.683   7.879   9.287
13024WAT     H139314   6.612   7.821   9.248
13024WAT     H239315   6.767   7.826   9.298
13025WAT      O39316   9.669   2.123   8.966
13025WAT     H139317   9.700   2.081   9.052
13025WAT     H239318   9.728   2.093   8.891
13026WAT      O39319   6.669   4.752   5.211
13026WAT     H139320   6.595   4.761   5.144
13026WAT     H239321   6.634   4.706   5.292
13027WAT      O39322   9.273   4.743   3.788
13027WAT     H139323   9.351   4.777   3.840
13027WAT     H239324   9.203   4.709   3.851
13028WAT      O39325   4.654   8.005   0.959
13028WAT     H139326   4.718   8.049   0.896
13028WAT     H239327   4.596   7.941   0.908
13029WAT      O39328   8.004   7.840   7.333
13029WAT     H139329   7.975   7.894   7.412
13029WAT     H239330   8.046   7.900   7.265
13030WAT      O39331   9.289   3.435   1.516
13030WAT     H139332   9.290   3.532   1.538
13030WAT     H239333   9.206   3.413   1.466
13031WAT      O39334   9.543   4.814   9.400
13031WAT     H139335   9.475   4.837   9.332
13031WAT     H239336   9.498   4.777   9.482
13032WAT      O39337   8.111   8.401   4.919
13032WAT     H139338   8.189   8.461   4.938
13032WAT     H239339   8.127   8.351   4.834
13033WAT      O39340   4.903   0.385   8.483
13033WAT     H139341   4.887   0.432   8.397
13033WAT     H239342   4.960   0.304   8.467
13034WAT      O39343   8.977   1.777   0.582
13034WAT     H139344   8.977   1.877   0.581
13034WAT     H239345   8.914   1.744   0.653
13035WAT      O39346   3.278   3.297   8.529
13035WAT     H139347   3.364   3.323   8.574
13035WAT     H239348   3.203   3.352   8.565
13036WAT      O39349   7.517   7.482   9.309
13036WAT     H139350   7.564   7.556   9.359
13036WAT     H239351   7.525   7.397   9.360
13037WAT      O39352   2.269   0.450   4.986
13037WAT     H139353   2.362   0.484   4.974
13037WAT     H239354   2.204   0.521   4.959
13038WAT      O39355   6.591   4.936   2.489
13038WAT     H139356   6.644   4.931   2.404
13038WAT     H239357   6.573   5.032   2.511
13039WAT      O39358   0.794   5.430   4.751
13039WAT     H139359   0.802   5.358   4.682
13039WAT     H239360   0.827   5.395   4.839
13040WAT      O39361   3.173   8.516   4.168
13040WAT     H139362   3.230   8.586   4.212
13040WAT     H239363   3.076   8.539   4.181
13041WAT      O39364   8.938   1.606   6.651
13041WAT     H139365   8.872   1.632   6.722
13041WAT     H239366   8.925   1.664   6.571
13042WAT      O39367   1.733   8.307   1.548
13042WAT     H139368   1.767   8.374   1.614
13042WAT     H239369   1.647   8.269   1.581
13043WAT      O39370   4.888   2.492   9.346
13043WAT     H139371   4.861   2.572   9.399
13043WAT     H239372   4.985   2.473   9.361
13044WAT      O39373   2.813   1.710   2.085
13044WAT     H139374   2.782   1.667   2.000
13044WAT     H239375   2.759   1.792   2.103
13045WAT      O39376   4.011   6.742   0.843
13045WAT     H139377   3.969   6.699   0.763
13045WAT     H239378   4.061   6.674   0.896
13046WAT      O39379   5.076   6.067   7.637
13046WAT     H139380   4.995   6.012   7.654
13046WAT     H239381   5.155   6.007   7.622
13047WAT      O39382   4.929   8.230   6.178
13047WAT     H139383   5.017   8.270   6.151
13047WAT     H239384   4.945   8.152   6.238
13048WAT      O39385   3.679   7.137   0.359
13048WAT     H139386   3.615   7.082   0.306
13048WAT     H239387   3.634   7.220   0.392
13049WAT      O39388   7.342   6.225   1.959
13049WAT     H139389   7.433   6.192   1.936
13049WAT     H239390   7.317   6.300   1.898
13050WAT      O39391   1.846   8.222   6.247
13050WAT     H139392   1.816   8.316   6.262
13050WAT     H239393   1.775   8.158   6.278
13051WAT      O39394   0.658   6.220   6.361
13051WAT     H139395   0.578   6.277   6.381
13051WAT     H239396   0.657   6.140   6.421
13052WAT      O39397   6.160   6.216   9.237
13052WAT     H139398   6.158   6.223   9.137
13052WAT     H239399   6.067   6.218   9.273
13053WAT      O39400   1.419   3.540   1.017
13053WAT     H139401   1.380   3.450   0.996
13053WAT     H239402   1.519   3.533   1.015
13054WAT      O39403   8.691   4.721   9.384
13054WAT     H139404   8.605   4.768   9.402
13054WAT     H239405   8.767   4.785   9.395
13055WAT      O39406   0.409   7.534   1.414
13055WAT     H139407   0.392   7.466   1.341
13055WAT     H239408   0.338   7.604   1.410
13056WAT      O39409   5.176   8.445   4.466
13056WAT     H139410   5.112   8.375   4.498
13056WAT     H239411   5.142   8.485   4.381
13057WAT      O39412   0.336   5.970   9.165
13057WAT     H139413   0.363   5.998   9.257
13057WAT     H239414   0.360   5.874   9.151
13058WAT      O39415   7.884   1.452   8.393
13058WAT     H139416   7.957   1.520   8.386
13058WAT     H239417   7.924   1.362   8.409
13059WAT      O39418   2.268   7.465   6.300
13059WAT     H139419   2.334   7.532   6.335
13059WAT     H239420   2.190   7.513   6.259
13060WAT      O39421   8.954   0.272   1.375
13060WAT     H139422   8.956   0.278   1.275
13060WAT     H239423   8.876   0.324   1.409
13061WAT      O39424   7.793   5.352   8.417
13061WAT     H139425   7.803   5.441   8.372
13061WAT     H239426   7.856   5.287   8.376
13062WAT      O39427   0.675   7.100   3.519
13062WAT     H139428   0.650   7.197   3.529
13062WAT     H239429   0.774   7.093   3.508
13063WAT      O39430   2.927   6.943   4.146
13063WAT     H139431   2.880   6.872   4.095
13063WAT     H239432   2.902   7.033   4.109
13064WAT      O39433   0.317   0.501   8.301
13064WAT     H139434   0.310   0.464   8.393
13064WAT     H239435   0.264   0.444   8.238
13065WAT      O39436   2.575   8.405   3.380
13065WAT     H139437   2.556   8.468   3.455
13065WAT     H239438   2.531   8.317   3.398
13066WAT      O39439   3.845   4.442   1.615
13066WAT     H139440   3.868   4.393   1.531
13066WAT     H239441   3.912   4.516   1.630
13067WAT      O39442   4.872   7.337   7.810
13067WAT     H139443   4.953   7.353   7.753
13067WAT     H239444   4.791   7.372   7.763
13068WAT      O39445   9.086   0.271   0.253
13068WAT     H139446   9.085   0.329   0.335
13068WAT     H239447   9.072   0.328   0.172
13069WAT      O39448   9.658   5.848   4.931
13069WAT     H139449   9.594   5.918   4.962
13069WAT     H239450   9.618   5.796   4.855
13070WAT      O39451   0.589   9.243   9.678
13070WAT     H139452   0.604   9.145   9.674
13070WAT     H239453   0.674   9.290   9.700
13071WAT      O39454   0.513   7.952   6.555
13071WAT     H139455   0.528   7.938   6.653
13071WAT     H239456   0.585   7.906   6.504
13072WAT      O39457   3.731   1.629   0.877
13072WAT     H139458   3.719   1.660   0.783
13072WAT     H239459   3.822   1.655   0.910
13073WAT      O39460   2.119   1.974   0.978
13073WAT     H139461   2.110   2.048   0.911
13073WAT     H239462   2.154   2.011   1.064
13074WAT      O39463   7.575   1.832   0.555
13074WAT     H139464   7.643   1.836   0.628
13074WAT     H239465   7.618   1.853   0.468
13075WAT      O39466   0.586   5.157   6.374
13075WAT     H139467   0.637   5.237   6.342
13075WAT     H239468   0.601   5.145   6.473
13076WAT      O39469   9.731   0.178   3.195
13076WAT     H139470   9.655   0.234   3.161
13076WAT     H239471   9.720   0.085   3.162
13077WAT      O39472   1.501   5.717   8.487
13077WAT     H139473   1.517   5.666   8.402
13077WAT     H239474   1.483   5.813   8.465
13078WAT      O39475   8.999   8.446   0.483
13078WAT     H139476   8.913   8.497   0.478
13078WAT     H239477   9.051   8.477   0.563
13079WAT      O39478   0.328   1.948   9.249
13079WAT     H139479   0.421   1.931   9.215
13079WAT     H239480   0.295   1.866   9.297
13080WAT      O39481   4.078   2.212   0.084
13080WAT     H139482   4.163   2.160   0.093
13080WAT     H239483   4.009   2.156   0.038
13081WAT      O39484   4.561   1.924   4.542
13081WAT     H139485   4.556   1.995   4.472
13081WAT     H239486   4.632   1.858   4.517
13082WAT      O39487   8.207   4.419   3.575
13082WAT     H139488   8.293   4.467   3.591
13082WAT     H239489   8.147   4.475   3.518
13083WAT      O39490   1.539   0.568   0.921
13083WAT     H139491   1.510   0.658   0.952
13083WAT     H239492   1.581   0.575   0.831
13084WAT      O39493   1.982   4.696   5.893
13084WAT     H139494   1.973   4.718   5.991
13084WAT     H239495   2.008   4.600   5.883
13085WAT      O39496   0.286   2.013   1.950
13085WAT     H139497   0.239   2.099   1.968
13085WAT     H239498   0.326   2.015   1.859
13086WAT      O39499   2.404   5.339   4.023
13086WAT     H139500   2.396   5.364   4.119
13086WAT     H239501   2.351   5.403   3.967
13087WAT      O39502   6.104   2.805   6.235
13087WAT     H139503   6.020   2.779   6.187
13087WAT     H239504   6.088   2.888   6.288
13088WAT      O39505   7.771   8.846   8.196
13088WAT     H139506   7.710   8.911   8.152
13088WAT     H239507   7.764   8.854   8.295
13089WAT      O39508   2.071   3.021   3.820
13089WAT     H139509   2.008   2.966   3.875
13089WAT     H239510   2.164   2.987   3.830
13090WAT      O39511   9.683   6.394   5.959
13090WAT     H139512   9.681   6.446   5.873
13090WAT     H239513   9.651   6.452   6.034
13091WAT      O39514   0.985   5.069   6.870
13091WAT     H139515   0.967   5.013   6.789
13091WAT     H239516   1.008   5.162   6.842
13092WAT      O39517   6.295   4.410   7.663
13092WAT     H139518   6.208   4.447   7.629
13092WAT     H239519   6.327   4.337   7.603
13093WAT      O39520   5.630   6.557   7.776
13093WAT     H139521   5.535   6.529   7.790
13093WAT     H239522   5.632   6.635   7.714
13094WAT      O39523   9.738   0.822   1.502
13094WAT     H139524   9.801   0.897   1.524
13094WAT     H239525   9.732   0.812   1.403
13095WAT      O39526   3.734   5.301   6.639
13095WAT     H139527   3.723   5.204   6.619
13095WAT     H239528   3.697   5.355   6.563
13096WAT      O39529   7.106   8.658   1.601
13096WAT     H139530   7.205   8.657   1.582
13096WAT     H239531   7.088   8.608   1.686
13097WAT      O39532   3.838   9.771   2.890
13097WAT     H139533   3.818   9.683   2.848
13097WAT     H239534   3.823   9.765   2.989
13098WAT      O39535   9.086   2.621   2.453
13098WAT     H139536   9.175   2.666   2.443
13098WAT     H239537   9.023   2.682   2.502
13099WAT      O39538   0.543   3.335   9.113
13099WAT     H139539   0.473   3.354   9.044
13099WAT     H239540   0.532   3.242   9.147
13100WAT      O39541   9.648   6.448   6.442
13100WAT     H139542   9.571   6.437   6.504
13100WAT     H239543   9.624   6.413   6.351
13101WAT      O39544   7.852   8.660   0.821
13101WAT     H139545   7.844   8.692   0.727
13101WAT     H239546   7.919   8.585   0.825
13102WAT      O39547   9.130   9.658   9.835
13102WAT     H139548   9.077   9.573   9.828
13102WAT     H239549   9.109   9.703   9.922
13103WAT      O39550   1.834   6.004   8.473
13103WAT     H139551   1.767   5.942   8.514
13103WAT     H239552   1.791   6.093   8.456
13104WAT      O39553   1.977   3.657   4.496
13104WAT     H139554   1.953   3.572   4.542
13104WAT     H239555   1.897   3.717   4.494
13105WAT      O39556   7.302   8.628   3.108
13105WAT     H139557   7.238   8.594   3.177
13105WAT     H239558   7.316   8.558   3.039
13106WAT      O39559   7.300   9.095   9.079
13106WAT     H139560   7.347   9.038   9.146
13106WAT     H239561   7.272   9.039   9.001
13107WAT      O39562   1.758   7.027   0.863
13107WAT     H139563   1.743   7.007   0.766
13107WAT     H239564   1.801   7.116   0.872
13108WAT      O39565   5.951   6.506   8.415
13108WAT     H139566   6.017   6.449   8.463
13108WAT     H239567   5.978   6.516   8.319
13109WAT      O39568   6.859   5.105   1.938
13109WAT     H139569   6.779   5.087   1.995
13109WAT     H239570   6.833   5.102   1.841
13110WAT      O39571   7.871   6.573   8.765
13110WAT     H139572   7.927   6.558   8.683
13110WAT     H239573   7.922   6.546   8.846
13111WAT      O39574   3.306   4.196   6.667
13111WAT     H139575   3.312   4.125   6.738
13111WAT     H239576   3.310   4.153   6.577
13112WAT      O39577   1.900   4.581   1.588
13112WAT     H139578   1.827   4.637   1.625
13112WAT     H239579   1.899   4.586   1.488
13113WAT      O39580   9.281   7.672   3.384
13113WAT     H139581   9.183   7.656   3.368
13113WAT     H239582   9.292   7.746   3.450
13114WAT      O39583   5.275   4.094   3.031
13114WAT     H139584   5.276   3.995   3.017
13114WAT     H239585   5.183   4.129   3.017
13115WAT      O39586   5.664   6.633   2.609
13115WAT     H139587   5.689   6.537   2.622
13115WAT     H239588   5.608   6.642   2.527
13116WAT      O39589   1.509   3.414   0.151
13116WAT     H139590   1.528   3.478   0.225
13116WAT     H239591   1.411   3.411   0.133
13117WAT      O39592   3.171   2.425   9.885
13117WAT     H139593   3.192   2.514   9.925
13117WAT     H239594   3.197   2.425   9.788
13118WAT      O39595   6.988   8.598   7.439
13118WAT     H139596   6.900   8.645   7.427
13118WAT     H239597   6.988   8.551   7.527
13119WAT      O39598   4.212   0.967   3.686
13119WAT     H139599   4.151   0.925   3.754
13119WAT     H239600   4.217   0.908   3.605
13120WAT      O39601   7.025   1.586   0.517
13120WAT     H139602   6.941   1.548   0.556
13120WAT     H239603   7.104   1.541   0.560
13121WAT      O39604   1.601   3.335   1.208
13121WAT     H139605   1.522   3.276   1.224
13121WAT     H239606   1.604   3.405   1.279
13122WAT      O39607   1.612   4.237   4.566
13122WAT     H139608   1.695   4.233   4.622
13122WAT     H239609   1.630   4.290   4.483
13123WAT      O39610   0.173   2.255   1.978
13123WAT     H139611   0.167   2.337   1.921
13123WAT     H239612   0.098   2.254   2.044
13124WAT      O39613   0.213   5.342   2.829
13124WAT     H139614   0.216   5.300   2.738
13124WAT     H239615   0.248   5.276   2.897
13125WAT      O39616   0.179   8.994   0.578
13125WAT     H139617   0.141   9.073   0.529
13125WAT     H239618   0.204   8.923   0.513
13126WAT      O39619   7.406   5.698   9.169
13126WAT     H139620   7.383   5.791   9.139
13126WAT     H239621   7.444   5.701   9.261
13127WAT      O39622   0.755   1.101   4.276
13127WAT     H139623   0.684   1.160   4.236
13127WAT     H239624   0.714   1.012   4.300
13128WAT      O39625   7.050   7.050   3.175
13128WAT     H139626   6.974   7.013   3.121
13128WAT     H239627   7.069   7.144   3.147
13129WAT      O39628   3.135   9.342   7.595
13129WAT     H139629   3.090   9.276   7.656
13129WAT     H239630   3.075   9.358   7.516
13130WAT      O39631   5.640   5.521   0.579
13130WAT     H139632   5.735   5.505   0.604
13130WAT     H239633   5.612   5.612   0.610
13131WAT      O39634   6.963   1.927   4.734
13131WAT     H139635   7.031   1.954   4.666
13131WAT     H239636   7.008   1.902   4.819
13132WAT      O39637   6.749   2.495   1.843
13132WAT     H139638   6.780   2.449   1.927
13132WAT     H239639   6.649   2.505   1.846
13133WAT      O39640   4.129   8.342   7.651
13133WAT     H139641   4.121   8.337   7.552
13133WAT     H239642   4.126   8.438   7.680
13134WAT      O39643   2.716   7.939   5.028
13134WAT     H139644   2.649   7.884   4.978
13134WAT     H239645   2.718   8.032   4.989
13135WAT      O39646   1.215   2.685   3.357
13135WAT     H139647   1.254   2.777   3.362
13135WAT     H239648   1.120   2.688   3.385
13136WAT      O39649   6.494   1.030   1.929
13136WAT     H139650   6.446   0.958   1.980
13136WAT     H239651   6.497   1.006   1.832
13137WAT      O39652   8.964   4.381   1.993
13137WAT     H139653   9.016   4.302   1.959
13137WAT     H239654   8.868   4.373   1.966
13138WAT      O39655   5.678   5.477   2.569
13138WAT     H139656   5.647   5.535   2.493
13138WAT     H239657   5.635   5.387   2.561
13139WAT      O39658   6.062   7.167   5.530
13139WAT     H139659   6.053   7.254   5.579
13139WAT     H239660   6.045   7.091   5.592
13140WAT      O39661   7.329   2.820   5.335
13140WAT     H139662   7.332   2.726   5.301
13140WAT     H239663   7.391   2.877   5.280
13141WAT      O39664   9.318   8.022   2.519
13141WAT     H139665   9.390   7.987   2.579
13141WAT     H239666   9.351   8.104   2.472
13142WAT      O39667   6.318   7.603   8.402
13142WAT     H139668   6.299   7.523   8.458
13142WAT     H239669   6.343   7.575   8.309
13143WAT      O39670   9.200   6.517   5.224
13143WAT     H139671   9.196   6.542   5.320
13143WAT     H239672   9.279   6.456   5.209
13144WAT      O39673   1.110   7.176   3.364
13144WAT     H139674   1.073   7.269   3.370
13144WAT     H239675   1.209   7.179   3.371
13145WAT      O39676   5.711   2.064   2.352
13145WAT     H139677   5.705   2.068   2.451
13145WAT     H239678   5.704   1.969   2.321
13146WAT      O39679   4.220   2.985   7.402
13146WAT     H139680   4.143   2.965   7.341
13146WAT     H239681   4.186   3.009   7.493
13147WAT      O39682   5.081   3.998   0.481
13147WAT     H139683   5.098   3.912   0.530
13147WAT     H239684   5.116   3.991   0.388
13148WAT      O39685   9.164   4.061   4.780
13148WAT     H139686   9.140   4.038   4.686
13148WAT     H239687   9.099   4.018   4.843
13149WAT      O39688   7.717   8.914   2.442
13149WAT     H139689   7.663   8.850   2.388
13149WAT     H239690   7.685   9.007   2.426
13150WAT      O39691   0.902   9.479   8.684
13150WAT     H139692   0.838   9.547   8.648
13150WAT     H239693   0.919   9.409   8.614
13151WAT      O39694   8.221   0.442   3.817
13151WAT     H139695   8.249   0.526   3.771
13151WAT     H239696   8.126   0.421   3.795
13152WAT      O39697   0.463   0.823   0.980
13152WAT     H139698   0.563   0.827   0.975
13152WAT     H239699   0.431   0.737   0.941
13153WAT      O39700   6.118   8.644   0.905
13153WAT     H139701   6.056   8.704   0.855
13153WAT     H239702   6.213   8.665   0.881
13154WAT      O39703   8.605   9.645   3.576
13154WAT     H139704   8.562   9.597   3.652
13154WAT     H239705   8.566   9.614   3.490
13155WAT      O39706   1.779   0.875   0.143
13155WAT     H139707   1.800   0.972   0.143
13155WAT     H239708   1.856   0.824   0.183
13156WAT      O39709   1.218   0.610   7.553
13156WAT     H139710   1.158   0.589   7.475
13156WAT     H239711   1.313   0.602   7.524
13157WAT      O39712   8.849   1.844   1.356
13157WAT     H139713   8.817   1.915   1.292
13157WAT     H239714   8.943   1.819   1.333
13158WAT      O39715   4.329   6.995   5.759
13158WAT     H139716   4.231   7.009   5.749
13158WAT     H239717   4.378   7.073   5.719
13159WAT      O39718   4.534   6.874   2.340
13159WAT     H139719   4.607   6.925   2.385
13159WAT     H239720   4.540   6.778   2.365
13160WAT      O39721   9.148   3.571   0.602
13160WAT     H139722   9.116   3.478   0.616
13160WAT     H239723   9.072   3.628   0.572
13161WAT      O39724   0.893   0.240   4.041
13161WAT     H139725   0.941   0.275   3.960
13161WAT     H239726   0.914   0.297   4.120
13162WAT      O39727   5.452   0.694   0.295
13162WAT     H139728   5.502   0.668   0.378
13162WAT     H239729   5.516   0.726   0.225
13163WAT      O39730   1.884   2.548   4.426
13163WAT     H139731   1.840   2.611   4.362
13163WAT     H239732   1.894   2.592   4.515
13164WAT      O39733   6.666   8.065   2.518
13164WAT     H139734   6.642   7.971   2.545
13164WAT     H239735   6.731   8.102   2.585
13165WAT      O39736   7.129   9.807   6.837
13165WAT     H139737   7.156   9.741   6.907
13165WAT     H239738   7.029   9.809   6.831
13166WAT      O39739   6.069   6.239   7.869
13166WAT     H139740   6.128   6.312   7.904
13166WAT     H239741   5.978   6.277   7.850
13167WAT      O39742   1.824   6.145   3.612
13167WAT     H139743   1.880   6.205   3.555
13167WAT     H239744   1.877   6.117   3.692
13168WAT      O39745   4.970   1.175   8.127
13168WAT     H139746   5.061   1.165   8.168
13168WAT     H239747   4.961   1.267   8.088
13169WAT      O39748   7.273   3.205   7.041
13169WAT     H139749   7.309   3.126   7.091
13169WAT     H239750   7.325   3.287   7.065
13170WAT      O39751   7.058   7.313   4.868
13170WAT     H139752   7.082   7.402   4.908
13170WAT     H239753   7.099   7.240   4.923
13171WAT      O39754   0.985   3.787   0.152
13171WAT     H139755   0.936   3.757   0.070
13171WAT     H239756   1.083   3.773   0.139
13172WAT      O39757   4.931   3.744   3.355
13172WAT     H139758   5.014   3.730   3.301
13172WAT     H239759   4.887   3.655   3.371
13173WAT      O39760   5.304   3.907   7.154
13173WAT     H139761   5.265   3.926   7.064
13173WAT     H239762   5.253   3.832   7.197
13174WAT      O39763   9.021   1.949   9.578
13174WAT     H139764   8.997   1.904   9.665
13174WAT     H239765   9.119   1.968   9.576
13175WAT      O39766   6.411   0.766   3.539
13175WAT     H139767   6.501   0.725   3.556
13175WAT     H239768   6.358   0.766   3.624
13176WAT      O39769   1.701   8.001   4.468
13176WAT     H139770   1.738   7.917   4.428
13176WAT     H239771   1.704   8.075   4.400
13177WAT      O39772   6.011   3.289   5.885
13177WAT     H139773   6.092   3.257   5.933
13177WAT     H239774   5.929   3.253   5.930
13178WAT      O39775   5.477   3.894   1.102
13178WAT     H139776   5.418   3.919   1.025
13178WAT     H239777   5.470   3.964   1.173
13179WAT      O39778   0.150   0.038   4.321
13179WAT     H139779   0.200   0.125   4.321
13179WAT     H239780   0.053   0.054   4.340
13180WAT      O39781   0.008   4.523   5.285
13180WAT     H139782  -0.033   4.521   5.376
13180WAT     H239783  -0.061   4.552   5.218
13181WAT      O39784   4.283   8.913   3.092
13181WAT     H139785   4.238   8.874   3.172
13181WAT     H239786   4.217   8.969   3.041
13182WAT      O39787   3.903   3.182   2.998
13182WAT     H139788   3.838   3.219   2.932
13182WAT     H239789   3.884   3.084   3.012
13183WAT      O39790   1.344   4.070   5.046
13183WAT     H139791   1.389   4.158   5.033
13183WAT     H239792   1.312   4.062   5.141
13184WAT      O39793   2.649   4.642   9.835
13184WAT     H139794   2.736   4.687   9.857
13184WAT     H239795   2.585   4.709   9.799
13185WAT      O39796   3.428   2.018   2.203
13185WAT     H139797   3.453   2.033   2.108
13185WAT     H239798   3.487   2.072   2.263
13186WAT      O39799   0.012   3.299   3.255
13186WAT     H139800   0.011   3.241   3.173
13186WAT     H239801  -0.081   3.312   3.287
13187WAT      O39802   6.672   9.307   6.206
13187WAT     H139803   6.674   9.292   6.107
13187WAT     H239804   6.577   9.325   6.235
13188WAT      O39805   8.450   9.202   0.195
13188WAT     H139806   8.547   9.181   0.186
13188WAT     H239807   8.437   9.272   0.266
13189WAT      O39808   5.751   2.541   5.129
13189WAT     H139809   5.739   2.600   5.209
13189WAT     H239810   5.684   2.567   5.059
13190WAT      O39811   0.773   9.833   7.419
13190WAT     H139812   0.826   9.894   7.360
13190WAT     H239813   0.827   9.809   7.499
13191WAT      O39814   7.211   3.235   5.836
13191WAT     H139815   7.240   3.319   5.882
13191WAT     H239816   7.288   3.193   5.789
13192WAT      O39817   2.722   1.628   7.706
13192WAT     H139818   2.794   1.663   7.765
13192WAT     H239819   2.753   1.628   7.611
13193WAT      O39820   1.915   1.073   2.799
13193WAT     H139821   1.827   1.074   2.846
13193WAT     H239822   1.969   1.153   2.827
13194WAT      O39823   4.938   0.955   6.045
13194WAT     H139824   4.920   1.052   6.062
13194WAT     H239825   4.935   0.938   5.946
13195WAT      O39826   4.513   3.433   1.570
13195WAT     H139827   4.556   3.458   1.483
13195WAT     H239828   4.471   3.514   1.611
13196WAT      O39829   7.724   1.778   6.286
13196WAT     H139830   7.646   1.838   6.307
13196WAT     H239831   7.729   1.705   6.354
13197WAT      O39832   0.069   0.146   2.438
13197WAT     H139833   0.140   0.190   2.492
13197WAT     H239834   0.042   0.060   2.483
13198WAT      O39835   5.917   0.763   8.748
13198WAT     H139836   5.917   0.707   8.831
13198WAT     H239837   5.987   0.728   8.685
13199WAT      O39838   3.122   9.625   9.469
13199WAT     H139839   3.064   9.579   9.536
13199WAT     H239840   3.082   9.617   9.378
13200WAT      O39841   3.686   6.846   7.432
13200WAT     H139842   3.687   6.756   7.389
13200WAT     H239843   3.598   6.890   7.415
13201WAT      O39844   2.651   6.950   0.790
13201WAT     H139845   2.731   7.011   0.790
13201WAT     H239846   2.645   6.903   0.878
13202WAT      O39847   1.355   4.421   2.587
13202WAT     H139848   1.403   4.384   2.667
13202WAT     H239849   1.263   4.381   2.582
13203WAT      O39850   5.209   3.991   6.911
13203WAT     H139851   5.303   4.013   6.884
13203WAT     H239852   5.150   3.995   6.831
13204WAT      O39853   1.760   1.885   1.415
13204WAT     H139854   1.727   1.849   1.328
13204WAT     H239855   1.842   1.836   1.443
13205WAT      O39856   5.753   3.745   8.290
13205WAT     H139857   5.824   3.805   8.326
13205WAT     H239858   5.796   3.666   8.246
13206WAT      O39859   7.200   4.894   0.664
13206WAT     H139860   7.118   4.840   0.645
13206WAT     H239861   7.216   4.897   0.763
13207WAT      O39862   9.499   9.630   7.184
13207WAT     H139863   9.546   9.549   7.149
13207WAT     H239864   9.526   9.710   7.130
13208WAT      O39865   3.928   7.850   2.568
13208WAT     H139866   3.857   7.906   2.526
13208WAT     H239867   3.906   7.835   2.664
13209WAT      O39868   2.913   4.250   3.185
13209WAT     H139869   2.865   4.211   3.264
13209WAT     H239870   2.860   4.326   3.148
13210WAT      O39871   3.545   9.082   9.700
13210WAT     H139872   3.478   9.065   9.772
13210WAT     H239873   3.560   9.180   9.690
13211WAT      O39874   1.921   9.333   2.887
13211WAT     H139875   1.902   9.235   2.894
13211WAT     H239876   1.879   9.369   2.804
13212WAT      O39877   1.432   9.781   0.080
13212WAT     H139878   1.483   9.822   0.004
13212WAT     H239879   1.471   9.692   0.104
13213WAT      O39880   7.429   2.614   7.254
13213WAT     H139881   7.386   2.526   7.271
13213WAT     H239882   7.528   2.601   7.242
13214WAT      O39883   8.484   9.279   2.422
13214WAT     H139884   8.534   9.213   2.366
13214WAT     H239885   8.420   9.330   2.365
13215WAT      O39886   5.943   8.900   1.795
13215WAT     H139887   6.024   8.944   1.756
13215WAT     H239888   5.887   8.862   1.722
13216WAT      O39889   7.223   1.170   9.863
13216WAT     H139890   7.239   1.184   9.960
13216WAT     H239891   7.227   1.073   9.842
13217WAT      O39892   1.584   3.578   5.415
13217WAT     H139893   1.642   3.622   5.347
13217WAT     H239894   1.605   3.615   5.506
13218WAT      O39895   4.676   1.215   1.182
13218WAT     H139896   4.612   1.286   1.154
13218WAT     H239897   4.752   1.257   1.233
13219WAT      O39898   6.993   5.908   6.011
13219WAT     H139899   6.937   5.991   6.008
13219WAT     H239900   7.058   5.910   5.935
13220WAT      O39901   5.717   4.595   3.299
13220WAT     H139902   5.719   4.546   3.386
13220WAT     H239903   5.624   4.628   3.282
13221WAT      O39904   1.933   3.969   9.639
13221WAT     H139905   1.859   4.028   9.606
13221WAT     H239906   1.953   3.899   9.570
13222WAT      O39907   5.543   9.050   1.218
13222WAT     H139908   5.471   9.066   1.286
13222WAT     H239909   5.538   9.120   1.147
13223WAT      O39910   8.491   3.412   9.750
13223WAT     H139911   8.459   3.500   9.714
13223WAT     H239912   8.549   3.368   9.682
13224WAT      O39913   0.236   8.866   9.842
13224WAT     H139914   0.326   8.868   9.886
13224WAT     H239915   0.170   8.916   9.898
13225WAT      O39916   4.828   1.027   1.795
13225WAT     H139917   4.866   0.941   1.761
13225WAT     H239918   4.871   1.050   1.882
13226WAT      O39919   2.608   9.799   9.415
13226WAT     H139920   2.510   9.783   9.427
13226WAT     H239921   2.637   9.877   9.471
13227WAT      O39922   3.316   5.490   4.728
13227WAT     H139923   3.305   5.397   4.763
13227WAT     H239924   3.412   5.518   4.740
13228WAT      O39925   5.495   4.212   3.182
13228WAT     H139926   5.469   4.265   3.263
13228WAT     H239927   5.413   4.188   3.131
13229WAT      O39928   5.244   5.506   9.832
13229WAT     H139929   5.191   5.452   9.897
13229WAT     H239930   5.182   5.548   9.765
13230WAT      O39931   3.051   4.732   0.474
13230WAT     H139932   3.095   4.790   0.406
13230WAT     H239933   3.099   4.645   0.480
13231WAT      O39934   8.566   0.806   0.906
13231WAT     H139935   8.544   0.748   0.985
13231WAT     H239936   8.486   0.862   0.883
13232WAT      O39937   0.065   2.311   2.579
13232WAT     H139938   0.013   2.325   2.495
13232WAT     H239939   0.044   2.385   2.643
13233WAT      O39940   2.472   1.199   1.120
13233WAT     H139941   2.422   1.203   1.033
13233WAT     H239942   2.492   1.292   1.151
13234WAT      O39943   7.081   8.628   9.895
13234WAT     H139944   7.101   8.714   9.848
13234WAT     H239945   6.987   8.600   9.873
13235WAT      O39946   8.313   2.535   7.633
13235WAT     H139947   8.333   2.633   7.632
13235WAT     H239948   8.350   2.494   7.716
13236WAT      O39949   7.843   7.498   9.818
13236WAT     H139950   7.898   7.573   9.781
13236WAT     H239951   7.795   7.530   9.900
13237WAT      O39952   0.429   6.756   0.275
13237WAT     H139953   0.463   6.792   0.188
13237WAT     H239954   0.505   6.743   0.338
13238WAT      O39955   9.648   5.772   8.157
13238WAT     H139956   9.688   5.830   8.228
13238WAT     H239957   9.553   5.799   8.142
13239WAT      O39958   2.381   4.344   6.088
13239WAT     H139959   2.347   4.262   6.041
13239WAT     H239960   2.332   4.424   6.054
13240WAT      O39961   0.523   3.637   7.371
13240WAT     H139962   0.436   3.674   7.338
13240WAT     H239963   0.511   3.602   7.464
13241WAT      O39964   0.545   1.721   4.736
13241WAT     H139965   0.613   1.736   4.808
13241WAT     H239966   0.501   1.632   4.749
13242WAT      O39967   4.996   7.093   8.908
13242WAT     H139968   5.030   7.099   8.814
13242WAT     H239969   4.912   7.039   8.909
13243WAT      O39970   5.227   4.401   7.313
13243WAT     H139971   5.217   4.490   7.357
13243WAT     H239972   5.248   4.332   7.383
13244WAT      O39973   5.430   1.017   9.424
13244WAT     H139974   5.395   0.932   9.386
13244WAT     H239975   5.369   1.092   9.400
13245WAT      O39976   0.159   2.152   3.189
13245WAT     H139977   0.110   2.180   3.107
13245WAT     H239978   0.154   2.224   3.258
13246WAT      O39979   1.532   8.752   2.753
13246WAT     H139980   1.475   8.834   2.765
13246WAT     H239981   1.569   8.750   2.660
13247WAT      O39982   5.377   2.259   3.729
13247WAT     H139983   5.435   2.252   3.648
13247WAT     H239984   5.432   2.293   3.806
13248WAT      O39985   0.884   9.181   0.994
13248WAT     H139986   0.820   9.117   0.953
13248WAT     H239987   0.836   9.264   1.022
13249WAT      O39988   0.084   9.082   3.547
13249WAT     H139989   0.048   9.151   3.484
13249WAT     H239990   0.075   8.991   3.506
13250WAT      O39991   3.614   5.772   7.559
13250WAT     H139992   3.560   5.747   7.640
13250WAT     H239993   3.698   5.717   7.557
13251WAT      O39994   2.034   7.571   9.172
13251WAT     H139995   1.978   7.503   9.124
13251WAT     H239996   2.009   7.571   9.269
13252WAT      O39997   4.722   5.637   2.312
13252WAT     H139998   4.701   5.553   2.363
13252WAT     H239999   4.641   5.666   2.261
13253WAT      O40000   6.579   7.626   6.766
13253WAT     H140001   6.559   7.680   6.848
13253WAT     H240002   6.675   7.599   6.767
13254WAT      O40003   4.707   5.879   0.457
13254WAT     H140004   4.802   5.910   0.454
13254WAT     H240005   4.646   5.959   0.464
13255WAT      O40006   0.833   2.776   7.260
13255WAT     H140007   0.872   2.716   7.329
13255WAT     H240008   0.741   2.744   7.236
13256WAT      O40009   0.277   5.314   5.934
13256WAT     H140010   0.253   5.233   5.988
13256WAT     H240011   0.238   5.306   5.843
13257WAT      O40012   7.213   3.597   6.252
13257WAT     H140013   7.169   3.564   6.335
13257WAT     H240014   7.266   3.680   6.272
13258WAT      O40015   3.463   7.801   1.444
13258WAT     H140016   3.441   7.704   1.453
13258WAT     H240017   3.425   7.851   1.522
13259WAT      O40018   2.777   8.659   9.277
13259WAT     H140019   2.810   8.618   9.361
13259WAT     H240020   2.783   8.759   9.284
13260WAT      O40021   5.552   6.404   1.894
13260WAT     H140022   5.477   6.448   1.943
13260WAT     H240023   5.633   6.403   1.952
13261WAT      O40024   0.726   6.528   2.744
13261WAT     H140025   0.681   6.468   2.678
13261WAT     H240026   0.778   6.598   2.695
13262WAT      O40027   0.586   9.136   9.255
13262WAT     H140028   0.684   9.145   9.270
13262WAT     H240029   0.564   9.159   9.160
13263WAT      O40030   0.889   2.616   1.426
13263WAT     H140031   0.860   2.521   1.420
13263WAT     H240032   0.808   2.676   1.425
13264WAT      O40033   2.256   9.434   0.885
13264WAT     H140034   2.349   9.421   0.918
13264WAT     H240035   2.199   9.469   0.960
13265WAT      O40036   2.567   4.116   1.390
13265WAT     H140037   2.576   4.073   1.300
13265WAT     H240038   2.473   4.146   1.404
13266WAT      O40039   1.125   5.684   3.468
13266WAT     H140040   1.053   5.614   3.474
13266WAT     H240041   1.193   5.669   3.539
13267WAT      O40042   4.194   1.050   9.225
13267WAT     H140043   4.286   1.086   9.210
13267WAT     H240044   4.141   1.058   9.140
13268WAT      O40045   0.504   5.128   2.957
13268WAT     H140046   0.588   5.176   2.982
13268WAT     H240047   0.499   5.121   2.857
13269WAT      O40048   0.780   6.194   4.806
13269WAT     H140049   0.851   6.156   4.747
13269WAT     H240050   0.751   6.124   4.871
13270WAT      O40051   4.852   2.901   1.383
13270WAT     H140052   4.880   2.880   1.477
13270WAT     H240053   4.909   2.975   1.347
13271WAT      O40054   2.677   7.227   8.654
13271WAT     H140055   2.596   7.170   8.642
13271WAT     H240056   2.712   7.254   8.565
13272WAT      O40057   5.475   9.101   8.737
13272WAT     H140058   5.501   9.152   8.819
13272WAT     H240059   5.537   9.123   8.662
13273WAT      O40060   1.890   1.499   1.354
13273WAT     H140061   1.804   1.492   1.304
13273WAT     H240062   1.899   1.422   1.418
13274WAT      O40063   9.287   0.997   7.042
13274WAT     H140064   9.304   0.901   7.062
13274WAT     H240065   9.250   1.006   6.950
13275WAT      O40066   8.611   4.951   8.128
13275WAT     H140067   8.555   4.889   8.182
13275WAT     H240068   8.657   4.900   8.055
13276WAT      O40069   8.509   9.160   2.127
13276WAT     H140070   8.553   9.108   2.201
13276WAT     H240071   8.572   9.167   2.050
13277WAT      O40072   7.359   9.454   2.219
13277WAT     H140073   7.450   9.488   2.245
13277WAT     H240074   7.290   9.521   2.245
13278WAT      O40075   0.122   9.463   0.378
13278WAT     H140076   0.114   9.543   0.438
13278WAT     H240077   0.216   9.458   0.343
13279WAT      O40078   4.180   6.307   5.735
13279WAT     H140079   4.154   6.288   5.829
13279WAT     H240080   4.131   6.245   5.673
13280WAT      O40081   0.089   3.969   8.078
13280WAT     H140082   0.164   4.035   8.076
13280WAT     H240083   0.089   3.917   7.993
13281WAT      O40084   5.109   8.617   0.424
13281WAT     H140085   5.080   8.535   0.375
13281WAT     H240086   5.111   8.695   0.361
13282WAT      O40087   3.171   4.435   9.532
13282WAT     H140088   3.147   4.531   9.520
13282WAT     H240089   3.268   4.422   9.512
13283WAT      O40090   4.372   2.054   6.740
13283WAT     H140091   4.358   1.965   6.698
13283WAT     H240092   4.342   2.051   6.836
13284WAT      O40093   3.542   1.013   7.670
13284WAT     H140094   3.462   0.955   7.653
13284WAT     H240095   3.516   1.109   7.659
13285WAT      O40096   6.718   8.179   2.264
13285WAT     H140097   6.673   8.268   2.258
13285WAT     H240098   6.679   8.127   2.340
13286WAT      O40099   3.845   7.886   3.825
13286WAT     H140100   3.906   7.945   3.774
13286WAT     H240101   3.888   7.860   3.912
13287WAT      O40102   6.958   0.979   0.220
13287WAT     H140103   6.895   0.975   0.143
13287WAT     H240104   6.907   0.998   0.304
13288WAT      O40105   4.690   1.760   1.453
13288WAT     H140106   4.672   1.747   1.356
13288WAT     H240107   4.705   1.671   1.497
13289WAT      O40108   2.733   8.048   6.437
13289WAT     H140109   2.662   8.095   6.489
13289WAT     H240110   2.705   8.042   6.341
13290WAT      O40111   1.519   7.369   0.898
13290WAT     H140112   1.586   7.304   0.935
13290WAT     H240113   1.485   7.335   0.811
13291WAT      O40114   6.317   6.853   4.495
13291WAT     H140115   6.415   6.841   4.488
13291WAT     H240116   6.274   6.768   4.525
13292WAT      O40117   3.545   5.983   5.976
13292WAT     H140118   3.452   5.972   6.011
13292WAT     H240119   3.588   5.893   5.970
13293WAT      O40120   3.861   6.398   4.120
13293WAT     H140121   3.868   6.408   4.021
13293WAT     H240122   3.894   6.481   4.165
13294WAT      O40123   6.358   1.325   7.866
13294WAT     H140124   6.423   1.269   7.918
13294WAT     H240125   6.293   1.368   7.930
13295WAT      O40126   8.600   1.460   8.652
13295WAT     H140127   8.562   1.421   8.735
13295WAT     H240128   8.540   1.533   8.619
13296WAT      O40129   0.534   9.291   3.056
13296WAT     H140130   0.498   9.302   3.149
13296WAT     H240131   0.461   9.303   2.990
13297WAT      O40132   6.004   6.023   3.732
13297WAT     H140133   5.973   6.002   3.640
13297WAT     H240134   6.095   5.984   3.746
13298WAT      O40135   9.365   5.497   2.810
13298WAT     H140136   9.295   5.454   2.867
13298WAT     H240137   9.446   5.515   2.866
13299WAT      O40138   0.372   4.564   8.436
13299WAT     H140139   0.323   4.561   8.349
13299WAT     H240140   0.343   4.645   8.488
13300WAT      O40141   9.302   1.826   7.378
13300WAT     H140142   9.375   1.834   7.310
13300WAT     H240143   9.253   1.913   7.386
13301WAT      O40144   0.707   2.875   5.137
13301WAT     H140145   0.666   2.815   5.205
13301WAT     H240146   0.661   2.860   5.049
13302WAT      O40147   7.103   7.026   4.533
13302WAT     H140148   7.037   6.962   4.572
13302WAT     H240149   7.123   6.998   4.439
13303WAT      O40150   3.418   2.475   8.398
13303WAT     H140151   3.382   2.534   8.470
13303WAT     H240152   3.372   2.386   8.403
13304WAT      O40153   4.316   4.797   7.511
13304WAT     H140154   4.343   4.868   7.576
13304WAT     H240155   4.389   4.782   7.444
13305WAT      O40156   9.413   2.301   8.544
13305WAT     H140157   9.349   2.351   8.486
13305WAT     H240158   9.506   2.311   8.506
13306WAT      O40159   8.839   9.450   1.606
13306WAT     H140160   8.865   9.546   1.620
13306WAT     H240161   8.917   9.391   1.628
13307WAT      O40162   3.147   1.520   9.173
13307WAT     H140163   3.235   1.504   9.129
13307WAT     H240164   3.085   1.563   9.107
13308WAT      O40165   5.082   9.424   3.186
13308WAT     H140166   5.155   9.452   3.250
13308WAT     H240167   5.003   9.393   3.238
13309WAT      O40168   7.308   5.787   7.882
13309WAT     H140169   7.355   5.848   7.818
13309WAT     H240170   7.265   5.841   7.954
13310WAT      O40171   6.844   4.197   7.786
13310WAT     H140172   6.778   4.249   7.840
13310WAT     H240173   6.827   4.213   7.689
13311WAT      O40174   4.849   9.782   9.498
13311WAT     H140175   4.852   9.695   9.547
13311WAT     H240176   4.906   9.849   9.546
13312WAT      O40177   3.582   3.987   9.147
13312WAT     H140178   3.615   4.067   9.097
13312WAT     H240179   3.549   3.919   9.082
13313WAT      O40180   8.849   8.894   3.647
13313WAT     H140181   8.928   8.915   3.705
13313WAT     H240182   8.880   8.868   3.556
13314WAT      O40183   8.645   0.022   4.503
13314WAT     H140184   8.621  -0.075   4.492
13314WAT     H240185   8.648   0.044   4.601
13315WAT      O40186   5.918   5.836   2.827
13315WAT     H140187   5.843   5.789   2.780
13315WAT     H240188   5.946   5.783   2.907
13316WAT      O40189   8.793   6.929   7.932
13316WAT     H140190   8.792   6.830   7.922
13316WAT     H240191   8.846   6.969   7.857
13317WAT      O40192   6.021   6.420   5.168
13317WAT     H140193   5.975   6.362   5.100
13317WAT     H240194   6.074   6.490   5.121
13318WAT      O40195   6.564   4.010   0.730
13318WAT     H140196   6.609   4.083   0.781
13318WAT     H240197   6.621   3.986   0.651
13319WAT      O40198   9.189   3.935   3.888
13319WAT     H140199   9.221   3.919   3.795
13319WAT     H240200   9.107   3.880   3.905
13320WAT      O40201   1.500   6.912   7.134
13320WAT     H140202   1.535   6.920   7.041
13320WAT     H240203   1.446   6.828   7.142
13321WAT      O40204   1.519   1.303   6.752
13321WAT     H140205   1.596   1.300   6.816
13321WAT     H240206   1.539   1.369   6.679
13322WAT      O40207   8.994   7.125   0.691
13322WAT     H140208   8.992   7.085   0.600
13322WAT     H240209   9.086   7.162   0.709
13323WAT      O40210   6.576   6.955   0.209
13323WAT     H140211   6.586   7.045   0.168
13323WAT     H240212   6.624   6.953   0.297
13324WAT      O40213   6.072   6.636   3.197
13324WAT     H140214   6.083   6.686   3.111
13324WAT     H240215   5.979   6.649   3.232
13325WAT      O40216   2.547   0.158   5.443
13325WAT     H140217   2.497   0.095   5.502
13325WAT     H240218   2.488   0.187   5.368
13326WAT      O40219   8.921   6.283   5.803
13326WAT     H140220   8.955   6.305   5.894
13326WAT     H240221   8.962   6.197   5.771
13327WAT      O40222   2.601   5.563   7.036
13327WAT     H140223   2.512   5.528   7.067
13327WAT     H240224   2.669   5.491   7.042
13328WAT      O40225   6.228   0.606   9.725
13328WAT     H140226   6.279   0.662   9.660
13328WAT     H240227   6.243   0.509   9.705
13329WAT      O40228   6.482   0.124   6.649
13329WAT     H140229   6.539   0.105   6.729
13329WAT     H240230   6.444   0.039   6.613
13330WAT      O40231   1.846   7.693   8.239
13330WAT     H140232   1.790   7.756   8.293
13330WAT     H240233   1.850   7.724   8.144
13331WAT      O40234   0.898   4.603   6.386
13331WAT     H140235   0.820   4.546   6.359
13331WAT     H240236   0.983   4.550   6.378
13332WAT      O40237   9.727   6.499   0.549
13332WAT     H140238   9.705   6.412   0.504
13332WAT     H240239   9.766   6.562   0.483
13333WAT      O40240   8.293   1.487   7.410
13333WAT     H140241   8.361   1.416   7.425
13333WAT     H240242   8.230   1.458   7.338
13334WAT      O40243   0.103   9.376   5.384
13334WAT     H140244   0.085   9.474   5.387
13334WAT     H240245   0.187   9.356   5.434
13335WAT      O40246   1.442   4.176   1.685
13335WAT     H140247   1.407   4.204   1.596
13335WAT     H240248   1.452   4.077   1.688
13336WAT      O40249   2.063   1.007   7.602
13336WAT     H140250   2.081   1.085   7.662
13336WAT     H240251   2.073   0.922   7.654
13337WAT      O40252   0.980   4.187   5.696
13337WAT     H140253   0.883   4.165   5.688
13337WAT     H240254   1.001   4.268   5.640
13338WAT      O40255   1.954   1.172   4.652
13338WAT     H140256   2.021   1.245   4.662
13338WAT     H240257   1.949   1.119   4.737
13339WAT      O40258   4.570   6.233   1.191
13339WAT     H140259   4.621   6.212   1.275
13339WAT     H240260   4.476   6.202   1.201
13340WAT      O40261   6.385   9.380   7.388
13340WAT     H140262   6.437   9.373   7.473
13340WAT     H240263   6.447   9.367   7.311
13341WAT      O40264   5.042   9.470   2.745
13341WAT     H140265   4.980   9.415   2.688
13341WAT     H240266   5.078   9.413   2.819
13342WAT      O40267   9.198   9.366   3.885
13342WAT     H140268   9.209   9.267   3.894
13342WAT     H240269   9.150   9.402   3.965
13343WAT      O40270   2.048   8.985   8.886
13343WAT     H140271   2.074   9.077   8.859
13343WAT     H240272   1.951   8.983   8.911
13344WAT      O40273   8.621   5.926   2.126
13344WAT     H140274   8.578   5.863   2.191
13344WAT     H240275   8.553   5.960   2.062
13345WAT      O40276   9.593   7.774   5.557
13345WAT     H140277   9.551   7.784   5.647
13345WAT     H240278   9.692   7.787   5.565
13346WAT      O40279   9.658   4.205   8.347
13346WAT     H140280   9.595   4.261   8.293
13346WAT     H240281   9.611   4.173   8.430
13347WAT      O40282   8.941   1.387   7.695
13347WAT     H140283   8.932   1.362   7.599
13347WAT     H240284   9.028   1.353   7.730
13348WAT      O40285   8.574   5.658   6.252
13348WAT     H140286   8.632   5.597   6.199
13348WAT     H240287   8.483   5.618   6.263
13349WAT      O40288   0.607   8.948   1.067
13349WAT     H140289   0.670   8.902   1.129
13349WAT     H240290   0.513   8.925   1.092
13350WAT      O40291   4.459   2.054   5.520
13350WAT     H140292   4.534   2.113   5.493
13350WAT     H240293   4.401   2.035   5.440
13351WAT      O40294   5.857   2.113   8.925
13351WAT     H140295   5.777   2.172   8.913
13351WAT     H240296   5.910   2.111   8.839
13352WAT      O40297   5.241   6.508   1.633
13352WAT     H140298   5.298   6.429   1.657
13352WAT     H240299   5.229   6.511   1.534
13353WAT      O40300   1.992   4.088   8.342
13353WAT     H140301   1.957   4.037   8.263
13353WAT     H240302   2.089   4.071   8.353
13354WAT      O40303   4.218   3.866   3.079
13354WAT     H140304   4.313   3.882   3.104
13354WAT     H240305   4.210   3.858   2.980
13355WAT      O40306   5.688   2.054   6.211
13355WAT     H140307   5.737   2.140   6.226
13355WAT     H240308   5.750   1.977   6.228
13356WAT      O40309   0.865   3.782   5.681
13356WAT     H140310   0.942   3.825   5.635
13356WAT     H240311   0.893   3.694   5.719
13357WAT      O40312   4.580   2.887   0.166
13357WAT     H140313   4.603   2.879   0.069
13357WAT     H240314   4.562   2.797   0.204
13358WAT      O40315   9.286   0.408   9.830
13358WAT     H140316   9.191   0.411   9.863
13358WAT     H240317   9.310   0.496   9.790
13359WAT      O40318   9.650   0.152   9.343
13359WAT     H140319   9.598   0.193   9.417
13359WAT     H240320   9.664   0.219   9.270
13360WAT      O40321   6.358   7.327   8.047
13360WAT     H140322   6.292   7.267   8.090
13360WAT     H240323   6.436   7.340   8.109
13361WAT      O40324   0.853   4.946   4.931
13361WAT     H140325   0.844   4.846   4.939
13361WAT     H240326   0.904   4.968   4.848
13362WAT      O40327   6.794   2.628   2.650
13362WAT     H140328   6.877   2.584   2.682
13362WAT     H240329   6.813   2.724   2.628
13363WAT      O40330   3.544   0.844   5.954
13363WAT     H140331   3.588   0.767   5.908
13363WAT     H240332   3.596   0.868   6.036
13364WAT      O40333   6.557   0.778   1.482
13364WAT     H140334   6.520   0.704   1.427
13364WAT     H240335   6.547   0.756   1.579
13365WAT      O40336   2.320   3.622   9.630
13365WAT     H140337   2.279   3.600   9.718
13365WAT     H240338   2.324   3.721   9.619
13366WAT      O40339   2.589   2.028   0.924
13366WAT     H140340   2.501   1.995   0.890
13366WAT     H240341   2.624   1.962   0.991
13367WAT      O40342   3.582   7.433   0.370
13367WAT     H140343   3.610   7.444   0.274
13367WAT     H240344   3.494   7.387   0.374
13368WAT      O40345   5.548   0.012   8.896
13368WAT     H140346   5.555   0.040   8.992
13368WAT     H240347   5.575  -0.084   8.888
13369WAT      O40348   4.037   6.433   0.619
13369WAT     H140349   3.994   6.350   0.584
13369WAT     H240350   4.111   6.410   0.681
13370WAT      O40351   6.737   6.633   7.890
13370WAT     H140352   6.675   6.629   7.967
13370WAT     H240353   6.832   6.636   7.923
13371WAT      O40354   1.756   6.409   4.924
13371WAT     H140355   1.684   6.458   4.973
13371WAT     H240356   1.749   6.430   4.826
13372WAT      O40357   2.774   2.759   6.238
13372WAT     H140358   2.758   2.679   6.295
13372WAT     H240359   2.846   2.739   6.171
13373WAT      O40360   3.896   5.194   6.326
13373WAT     H140361   3.979   5.163   6.279
13373WAT     H240362   3.849   5.115   6.367
13374WAT      O40363   8.272   3.978   4.157
13374WAT     H140364   8.364   3.982   4.197
13374WAT     H240365   8.207   3.947   4.227
13375WAT      O40366   9.147   4.604   4.807
13375WAT     H140367   9.059   4.588   4.852
13375WAT     H240368   9.160   4.538   4.733
13376WAT      O40369   3.676   8.350   7.590
13376WAT     H140370   3.683   8.266   7.645
13376WAT     H240371   3.740   8.346   7.514
13377WAT      O40372   7.297   5.542   8.965
13377WAT     H140373   7.302   5.603   9.044
13377WAT     H240374   7.368   5.471   8.973
13378WAT      O40375   7.107   5.034   2.651
13378WAT     H140376   7.033   5.072   2.595
13378WAT     H240377   7.082   5.039   2.748
13379WAT      O40378   5.550   7.325   4.123
13379WAT     H140379   5.623   7.271   4.166
13379WAT     H240380   5.533   7.407   4.177
13380WAT      O40381   4.662   5.688   6.527
13380WAT     H140382   4.634   5.642   6.443
13380WAT     H240383   4.595   5.760   6.549
13381WAT      O40384   4.928   7.372   9.575
13381WAT     H140385   4.884   7.334   9.656
13381WAT     H240386   4.885   7.458   9.549
13382WAT      O40387   0.068   3.673   0.182
13382WAT     H140388  -0.007   3.607   0.186
13382WAT     H240389   0.155   3.625   0.180
13383WAT      O40390   5.712   5.529   9.811
13383WAT     H140391   5.733   5.438   9.846
13383WAT     H240392   5.699   5.592   9.887
13384WAT      O40393   0.714   7.011   1.690
13384WAT     H140394   0.697   7.049   1.781
13384WAT     H240395   0.667   7.067   1.622
13385WAT      O40396   7.045   5.857   6.269
13385WAT     H140397   7.034   5.877   6.172
13385WAT     H240398   7.027   5.760   6.286
13386WAT      O40399   9.606   1.441   5.825
13386WAT     H140400   9.633   1.518   5.768
13386WAT     H240401   9.506   1.439   5.832
13387WAT      O40402   4.890   6.749   7.077
13387WAT     H140403   4.966   6.773   7.136
13387WAT     H240404   4.857   6.831   7.030
13388WAT      O40405   1.218   3.893   8.943
13388WAT     H140406   1.119   3.891   8.925
13388WAT     H240407   1.250   3.988   8.937
13389WAT      O40408   7.444   2.333   0.073
13389WAT     H140409   7.348   2.340   0.101
13389WAT     H240410   7.468   2.237   0.061
13390WAT      O40411   5.780   3.769   2.586
13390WAT     H140412   5.770   3.810   2.677
13390WAT     H240413   5.690   3.759   2.544
13391WAT      O40414   7.996   5.605   4.053
13391WAT     H140415   7.927   5.560   4.110
13391WAT     H240416   8.075   5.629   4.110
13392WAT      O40417   3.125   5.421   3.595
13392WAT     H140418   3.056   5.374   3.650
13392WAT     H240419   3.083   5.454   3.511
13393WAT      O40420   1.871   5.795   3.553
13393WAT     H140421   1.787   5.834   3.590
13393WAT     H240422   1.934   5.773   3.628
13394WAT      O40423   4.173   5.626   7.136
13394WAT     H140424   4.168   5.603   7.039
13394WAT     H240425   4.143   5.721   7.150
13395WAT      O40426   6.163   1.992   1.201
13395WAT     H140427   6.184   1.910   1.253
13395WAT     H240428   6.227   2.065   1.227
13396WAT      O40429   8.860   1.824   5.101
13396WAT     H140430   8.948   1.866   5.118
13396WAT     H240431   8.857   1.734   5.146
13397WAT      O40432   1.478   3.565   7.469
13397WAT     H140433   1.495   3.561   7.567
13397WAT     H240434   1.380   3.573   7.452
13398WAT      O40435   9.097   5.438   1.591
13398WAT     H140436   9.190   5.452   1.555
13398WAT     H240437   9.031   5.470   1.523
13399WAT      O40438   8.834   3.352   2.982
13399WAT     H140439   8.844   3.253   2.984
13399WAT     H240440   8.891   3.389   2.908
13400WAT      O40441   9.087   3.563   2.964
13400WAT     H140442   9.098   3.469   2.996
13400WAT     H240443   9.171   3.594   2.920
13401WAT      O40444   9.859   8.159   9.640
13401WAT     H140445   9.832   8.251   9.612
13401WAT     H240446   9.815   8.137   9.727
13402WAT      O40447   2.790   3.247   0.347
13402WAT     H140448   2.815   3.330   0.398
13402WAT     H240449   2.871   3.210   0.303
13403WAT      O40450   0.553   2.086   6.865
13403WAT     H140451   0.534   2.182   6.885
13403WAT     H240452   0.510   2.029   6.935
13404WAT      O40453   4.721   2.364   3.506
13404WAT     H140454   4.750   2.281   3.459
13404WAT     H240455   4.628   2.387   3.477
13405WAT      O40456   6.077   7.414   7.538
13405WAT     H140457   6.071   7.406   7.638
13405WAT     H240458   6.147   7.483   7.515
13406WAT      O40459   4.949   9.769   3.979
13406WAT     H140460   4.864   9.764   3.928
13406WAT     H240461   4.929   9.788   4.075
13407WAT      O40462   4.053   2.694   8.939
13407WAT     H140463   4.063   2.599   8.910
13407WAT     H240464   4.016   2.748   8.864
13408WAT      O40465   8.660   7.986   1.785
13408WAT     H140466   8.688   8.053   1.717
13408WAT     H240467   8.716   7.996   1.867
13409WAT      O40468   6.615   7.515   0.105
13409WAT     H140469   6.703   7.534   0.149
13409WAT     H240470   6.586   7.596   0.054
13410WAT      O40471   7.623   9.513   0.811
13410WAT     H140472   7.648   9.609   0.802
13410WAT     H240473   7.702   9.461   0.846
13411WAT      O40474   8.586   8.816   3.688
13411WAT     H140475   8.545   8.786   3.601
13411WAT     H240476   8.684   8.828   3.676
13412WAT      O40477   5.558   1.514   3.554
13412WAT     H140478   5.564   1.610   3.526
13412WAT     H240479   5.583   1.455   3.477
13413WAT      O40480   7.223   9.655   4.490
13413WAT     H140481   7.273   9.622   4.410
13413WAT     H240482   7.287   9.698   4.554
13414WAT      O40483   0.665   7.136   4.985
13414WAT     H140484   0.603   7.175   4.917
13414WAT     H240485   0.708   7.054   4.948
13415WAT      O40486   9.258   7.051   1.425
13415WAT     H140487   9.329   7.025   1.360
13415WAT     H240488   9.209   7.131   1.391
13416WAT      O40489   8.140   1.197   2.739
13416WAT     H140490   8.168   1.280   2.787
13416WAT     H240491   8.088   1.138   2.801
13417WAT      O40492   9.093   3.990   9.816
13417WAT     H140493   9.115   4.086   9.797
13417WAT     H240494   9.033   3.984   9.895
13418WAT      O40495   7.691   2.449   0.101
13418WAT     H140496   7.592   2.437   0.091
13418WAT     H240497   7.711   2.480   0.194
13419WAT      O40498   3.493   4.373   0.281
13419WAT     H140499   3.444   4.311   0.343
13419WAT     H240500   3.430   4.442   0.246
13420WAT      O40501   4.522   6.531   1.914
13420WAT     H140502   4.465   6.606   1.881
13420WAT     H240503   4.567   6.487   1.837
13421WAT      O40504   5.551   2.252   0.573
13421WAT     H140505   5.606   2.246   0.490
13421WAT     H240506   5.497   2.169   0.584
13422WAT      O40507   1.633   3.455   5.079
13422WAT     H140508   1.713   3.404   5.048
13422WAT     H240509   1.648   3.487   5.173
13423WAT      O40510   7.679   2.203   2.131
13423WAT     H140511   7.774   2.205   2.101
13423WAT     H240512   7.673   2.234   2.226
13424WAT      O40513   3.989   0.680   3.405
13424WAT     H140514   4.014   0.631   3.322
13424WAT     H240515   4.068   0.732   3.438
13425WAT      O40516   1.361   5.227   8.411
13425WAT     H140517   1.279   5.267   8.370
13425WAT     H240518   1.371   5.133   8.378
13426WAT      O40519   6.382   7.465   7.257
13426WAT     H140520   6.407   7.463   7.354
13426WAT     H240521   6.373   7.371   7.223
13427WAT      O40522   7.178   7.863   5.102
13427WAT     H140523   7.211   7.840   5.010
13427WAT     H240524   7.078   7.862   5.102
13428WAT      O40525   1.865   2.947   4.644
13428WAT     H140526   1.874   2.849   4.624
13428WAT     H240527   1.835   2.958   4.739
13429WAT      O40528   7.145   8.419   5.159
13429WAT     H140529   7.242   8.446   5.158
13429WAT     H240530   7.135   8.329   5.118
13430WAT      O40531   0.287   7.440   3.221
13430WAT     H140532   0.305   7.343   3.203
13430WAT     H240533   0.345   7.472   3.296
13431WAT      O40534   1.957   4.534   3.998
13431WAT     H140535   1.946   4.634   3.990
13431WAT     H240536   1.952   4.493   3.907
13432WAT      O40537   0.508   5.433   5.539
13432WAT     H140538   0.428   5.376   5.520
13432WAT     H240539   0.575   5.422   5.465
13433WAT      O40540   3.941   7.149   3.568
13433WAT     H140541   3.847   7.135   3.535
13433WAT     H240542   3.980   7.061   3.594
13434WAT      O40543   5.280   2.094   3.471
13434WAT     H140544   5.371   2.074   3.508
13434WAT     H240545   5.211   2.075   3.541
13435WAT      O40546   1.817   5.447   0.695
13435WAT     H140547   1.792   5.361   0.651
13435WAT     H240548   1.915   5.445   0.717
13436WAT      O40549   4.463   5.433   8.136
13436WAT     H140550   4.497   5.380   8.213
13436WAT     H240551   4.429   5.521   8.169
13437WAT      O40552   6.630   9.239   8.088
13437WAT     H140553   6.691   9.318   8.080
13437WAT     H240554   6.608   9.204   7.997
13438WAT      O40555   5.772   3.577   4.993
13438WAT     H140556   5.711   3.656   4.982
13438WAT     H240557   5.718   3.495   5.011
13439WAT      O40558   0.253   3.745   6.046
13439WAT     H140559   0.284   3.754   5.951
13439WAT     H240560   0.320   3.693   6.099
13440WAT      O40561   8.176   9.362   4.482
13440WAT     H140562   8.082   9.387   4.507
13440WAT     H240563   8.174   9.282   4.422
13441WAT      O40564   6.331   0.448   6.763
13441WAT     H140565   6.416   0.486   6.726
13441WAT     H240566   6.288   0.388   6.695
13442WAT      O40567   8.583   8.095   9.165
13442WAT     H140568   8.488   8.084   9.135
13442WAT     H240569   8.638   8.134   9.092
13443WAT      O40570   3.361   9.419   1.606
13443WAT     H140571   3.388   9.428   1.702
13443WAT     H240572   3.358   9.322   1.581
13444WAT      O40573   3.877   5.460   4.160
13444WAT     H140574   3.821   5.513   4.096
13444WAT     H240575   3.871   5.502   4.251
13445WAT      O40576   6.333   1.988   2.290
13445WAT     H140577   6.290   1.899   2.303
13445WAT     H240578   6.268   2.051   2.248
13446WAT      O40579   9.409   2.895   6.944
13446WAT     H140580   9.364   2.978   6.975
13446WAT     H240581   9.507   2.899   6.968
13447WAT      O40582   5.907   7.764   0.532
13447WAT     H140583   5.878   7.841   0.589
13447WAT     H240584   5.995   7.730   0.566
13448WAT      O40585   5.805   6.613   9.180
13448WAT     H140586   5.793   6.641   9.275
13448WAT     H240587   5.896   6.572   9.168
13449WAT      O40588   1.228   7.140   5.647
13449WAT     H140589   1.178   7.138   5.734
13449WAT     H240590   1.312   7.194   5.658
13450WAT      O40591   5.263   7.737   5.227
13450WAT     H140592   5.345   7.793   5.223
13450WAT     H240593   5.200   7.773   5.295
13451WAT      O40594   8.355   9.449   2.251
13451WAT     H140595   8.336   9.520   2.319
13451WAT     H240596   8.279   9.444   2.186
13452WAT      O40597   1.087   1.309   9.451
13452WAT     H140598   1.175   1.270   9.424
13452WAT     H240599   1.017   1.282   9.386
13453WAT      O40600   8.068   8.034   4.832
13453WAT     H140601   8.023   8.033   4.743
13453WAT     H240602   8.144   8.099   4.829
13454WAT      O40603   0.649   9.089   7.234
13454WAT     H140604   0.594   9.016   7.192
13454WAT     H240605   0.624   9.176   7.193
13455WAT      O40606   8.118   9.102   3.312
13455WAT     H140607   8.172   9.099   3.228
13455WAT     H240608   8.101   9.008   3.344
13456WAT      O40609   7.765   2.292   2.373
13456WAT     H140610   7.741   2.253   2.462
13456WAT     H240611   7.864   2.284   2.360
13457WAT      O40612   8.756   5.036   0.609
13457WAT     H140613   8.782   5.132   0.616
13457WAT     H240614   8.803   4.994   0.530
13458WAT      O40615   4.832   5.439   2.505
13458WAT     H140616   4.886   5.370   2.554
13458WAT     H240617   4.747   5.456   2.554
13459WAT      O40618   3.897   5.490   4.459
13459WAT     H140619   3.827   5.425   4.488
13459WAT     H240620   3.986   5.444   4.453
13460WAT      O40621   1.271   5.904   5.780
13460WAT     H140622   1.325   5.899   5.864
13460WAT     H240623   1.229   5.995   5.773
13461WAT      O40624   8.933   7.741   7.697
13461WAT     H140625   9.020   7.713   7.739
13461WAT     H240626   8.935   7.719   7.600
13462WAT      O40627   9.330   5.460   7.656
13462WAT     H140628   9.263   5.442   7.728
13462WAT     H240629   9.376   5.374   7.632
13463WAT      O40630   2.871   0.296   3.757
13463WAT     H140631   2.892   0.310   3.660
13463WAT     H240632   2.956   0.301   3.810
13464WAT      O40633   2.513   0.177   6.524
13464WAT     H140634   2.598   0.125   6.519
13464WAT     H240635   2.534   0.275   6.527
13465WAT      O40636   4.152   1.522   7.858
13465WAT     H140637   4.115   1.460   7.789
13465WAT     H240638   4.205   1.471   7.925
13466WAT      O40639   1.885   3.024   0.541
13466WAT     H140640   1.978   3.056   0.521
13466WAT     H240641   1.824   3.051   0.466
13467WAT      O40642   6.335   2.327   5.758
13467WAT     H140643   6.373   2.380   5.682
13467WAT     H240644   6.256   2.376   5.795
13468WAT      O40645   0.674   6.137   2.279
13468WAT     H140646   0.667   6.040   2.259
13468WAT     H240647   0.604   6.163   2.346
13469WAT      O40648   2.764   0.519   3.813
13469WAT     H140649   2.801   0.426   3.809
13469WAT     H240650   2.747   0.552   3.721
13470WAT      O40651   6.720   8.116   4.875
13470WAT     H140652   6.677   8.094   4.788
13470WAT     H240653   6.663   8.084   4.950
13471WAT      O40654   0.708   7.884   1.390
13471WAT     H140655   0.625   7.927   1.355
13471WAT     H240656   0.684   7.803   1.443
13472WAT      O40657   4.796   8.473   6.500
13472WAT     H140658   4.760   8.418   6.425
13472WAT     H240659   4.888   8.442   6.524
13473WAT      O40660   3.208   2.350   4.186
13473WAT     H140661   3.166   2.421   4.242
13473WAT     H240662   3.279   2.390   4.128
13474WAT      O40663   9.357   3.514   5.265
13474WAT     H140664   9.361   3.562   5.177
13474WAT     H240665   9.270   3.536   5.310
13475WAT      O40666   1.321   3.753   8.553
13475WAT     H140667   1.239   3.731   8.605
13475WAT     H240668   1.313   3.717   8.460
13476WAT      O40669   8.667   1.528   7.324
13476WAT     H140670   8.590   1.591   7.328
13476WAT     H240671   8.751   1.574   7.355
13477WAT      O40672   0.986   2.850   7.005
13477WAT     H140673   0.958   2.831   7.099
13477WAT     H240674   1.010   2.763   6.960
13478WAT      O40675   9.876   2.982   7.420
13478WAT     H140676   9.967   3.019   7.401
13478WAT     H240677   9.882   2.884   7.435
13479WAT      O40678   1.453   2.408   1.593
13479WAT     H140679   1.550   2.380   1.590
13479WAT     H240680   1.442   2.494   1.544
13480WAT      O40681   2.711   4.038   5.106
13480WAT     H140682   2.784   4.106   5.094
13480WAT     H240683   2.656   4.034   5.023
13481WAT      O40684   4.370   6.660   9.865
13481WAT     H140685   4.384   6.616   9.776
13481WAT     H240686   4.391   6.595   9.938
13482WAT      O40687   3.659   4.223   1.866
13482WAT     H140688   3.568   4.228   1.826
13482WAT     H240689   3.715   4.159   1.812
13483WAT      O40690   7.436   9.438   2.867
13483WAT     H140691   7.434   9.440   2.967
13483WAT     H240692   7.347   9.410   2.832
13484WAT      O40693   2.388   9.792   3.582
13484WAT     H140694   2.310   9.740   3.548
13484WAT     H240695   2.469   9.733   3.583
13485WAT      O40696   1.899   2.073   8.257
13485WAT     H140697   1.820   2.011   8.261
13485WAT     H240698   1.983   2.020   8.250
13486WAT      O40699   8.519   9.190   4.578
13486WAT     H140700   8.582   9.124   4.618
13486WAT     H240701   8.556   9.225   4.492
13487WAT      O40702   5.388   1.202   0.906
13487WAT     H140703   5.401   1.186   0.809
13487WAT     H240704   5.452   1.145   0.958
13488WAT      O40705   3.394   5.082   3.059
13488WAT     H140706   3.313   5.138   3.041
13488WAT     H240707   3.392   5.050   3.154
13489WAT      O40708   5.498   8.836   9.169
13489WAT     H140709   5.409   8.875   9.147
13489WAT     H240710   5.501   8.810   9.265
13490WAT      O40711   2.150   3.141   7.543
13490WAT     H140712   2.125   3.196   7.463
13490WAT     H240713   2.247   3.119   7.539
13491WAT      O40714   9.607   0.114   5.278
13491WAT     H140715   9.690   0.088   5.328
13491WAT     H240716   9.626   0.115   5.179
13492WAT      O40717   6.629   1.966   9.206
13492WAT     H140718   6.591   2.055   9.181
13492WAT     H240719   6.557   1.908   9.243
13493WAT      O40720   7.061   3.075   7.597
13493WAT     H140721   7.150   3.118   7.583
13493WAT     H240722   6.993   3.118   7.538
13494WAT      O40723   3.666   0.402   9.301
13494WAT     H140724   3.725   0.398   9.382
13494WAT     H240725   3.716   0.366   9.222
13495WAT      O40726   3.700   2.044   1.788
13495WAT     H140727   3.653   2.087   1.711
13495WAT     H240728   3.791   2.084   1.799
13496WAT      O40729   3.887   3.191   2.375
13496WAT     H140730   3.789   3.178   2.360
13496WAT     H240731   3.917   3.272   2.325
13497WAT      O40732   8.088   1.919   2.562
13497WAT     H140733   8.032   1.844   2.529
13497WAT     H240734   8.175   1.920   2.512
13498WAT      O40735   3.646   8.485   2.654
13498WAT     H140736   3.570   8.450   2.599
13498WAT     H240737   3.627   8.469   2.751
13499WAT      O40738   0.842   5.573   1.305
13499WAT     H140739   0.820   5.648   1.367
13499WAT     H240740   0.757   5.536   1.266
13500WAT      O40741   1.723   1.301   7.207
13500WAT     H140742   1.633   1.345   7.204
13500WAT     H240743   1.718   1.219   7.264
13501WAT      O40744   7.347   9.066   5.416
13501WAT     H140745   7.287   9.142   5.392
13501WAT     H240746   7.432   9.072   5.363
13502WAT      O40747   6.661   9.136   6.652
13502WAT     H140748   6.674   9.053   6.597
13502WAT     H240749   6.574   9.128   6.702
13503WAT      O40750   3.379   8.661   4.282
13503WAT     H140751   3.437   8.598   4.334
13503WAT     H240752   3.371   8.748   4.330
13504WAT      O40753   5.851   0.608   0.122
13504WAT     H140754   5.861   0.685   0.185
13504WAT     H240755   5.886   0.633   0.032
13505WAT      O40756   0.129   9.140   1.718
13505WAT     H140757   0.190   9.219   1.725
13505WAT     H240758   0.184   9.056   1.717
13506WAT      O40759   7.218   8.133   5.759
13506WAT     H140760   7.187   8.228   5.769
13506WAT     H240761   7.313   8.131   5.730
13507WAT      O40762   4.382   8.982   7.944
13507WAT     H140763   4.355   9.058   8.002
13507WAT     H240764   4.328   8.901   7.966
13508WAT      O40765   7.031   7.084   7.498
13508WAT     H140766   7.000   6.998   7.537
13508WAT     H240767   7.082   7.136   7.567
13509WAT      O40768   5.521   0.882   2.387
13509WAT     H140769   5.528   0.982   2.389
13509WAT     H240770   5.554   0.848   2.299
13510WAT      O40771   0.480   7.008   5.144
13510WAT     H140772   0.485   6.909   5.152
13510WAT     H240773   0.554   7.041   5.086
13511WAT      O40774   7.961   5.565   0.622
13511WAT     H140775   7.936   5.471   0.643
13511WAT     H240776   8.016   5.603   0.697
13512WAT      O40777   0.542   9.836   9.442
13512WAT     H140778   0.567   9.843   9.539
13512WAT     H240779   0.533   9.740   9.417
13513WAT      O40780   9.197   4.107   2.581
13513WAT     H140781   9.254   4.066   2.510
13513WAT     H240782   9.225   4.202   2.595
13514WAT      O40783   4.600   6.201   7.107
13514WAT     H140784   4.690   6.238   7.089
13514WAT     H240785   4.539   6.274   7.140
13515WAT      O40786   2.974   6.647   6.977
13515WAT     H140787   2.994   6.555   7.012
13515WAT     H240788   2.909   6.692   7.038
13516WAT      O40789   2.813   0.758   9.504
13516WAT     H140790   2.768   0.847   9.495
13516WAT     H240791   2.782   0.698   9.431
13517WAT      O40792   9.778   3.959   2.378
13517WAT     H140793   9.743   4.032   2.437
13517WAT     H240794   9.853   3.911   2.425
13518WAT      O40795   5.769   8.253   5.470
13518WAT     H140796   5.780   8.183   5.540
13518WAT     H240797   5.738   8.338   5.512
13519WAT      O40798   6.274   2.577   3.411
13519WAT     H140799   6.337   2.637   3.362
13519WAT     H240800   6.290   2.482   3.383
13520WAT      O40801   1.816   1.518   0.969
13520WAT     H140802   1.778   1.503   1.061
13520WAT     H240803   1.748   1.492   0.900
13521WAT      O40804   8.897   2.690   8.116
13521WAT     H140805   8.868   2.624   8.185
13521WAT     H240806   8.821   2.752   8.096
13522WAT      O40807   6.938   3.536   2.276
13522WAT     H140808   6.959   3.475   2.200
13522WAT     H240809   6.862   3.595   2.252
13523WAT      O40810   6.157   5.180   9.277
13523WAT     H140811   6.112   5.151   9.192
13523WAT     H240812   6.181   5.099   9.331
13524WAT      O40813   2.225   5.539   4.500
13524WAT     H140814   2.181   5.513   4.586
13524WAT     H240815   2.186   5.624   4.467
13525WAT      O40816   4.270   0.166   8.256
13525WAT     H140817   4.337   0.094   8.270
13525WAT     H240818   4.310   0.239   8.201
13526WAT      O40819   2.450   2.337   4.674
13526WAT     H140820   2.465   2.347   4.773
13526WAT     H240821   2.352   2.329   4.656
13527WAT      O40822   2.813   1.032   5.836
13527WAT     H140823   2.865   1.057   5.918
13527WAT     H240824   2.773   1.114   5.796
13528WAT      O40825   9.814   9.640   8.658
13528WAT     H140826   9.813   9.555   8.605
13528WAT     H240827   9.897   9.643   8.714
13529WAT      O40828   8.684   9.584   5.550
13529WAT     H140829   8.618   9.569   5.623
13529WAT     H240830   8.684   9.507   5.488
13530WAT      O40831   1.261   4.775   4.444
13530WAT     H140832   1.210   4.843   4.391
13530WAT     H240833   1.239   4.785   4.541
13531WAT      O40834   2.301   0.059   6.898
13531WAT     H140835   2.336  -0.000   6.971
13531WAT     H240836   2.202   0.050   6.892
13532WAT      O40837   5.509   8.759   2.783
13532WAT     H140838   5.601   8.780   2.749
13532WAT     H240839   5.442   8.773   2.711
13533WAT      O40840   4.781   4.452   8.795
13533WAT     H140841   4.771   4.541   8.840
13533WAT     H240842   4.764   4.462   8.697
13534WAT      O40843   6.869   4.319   8.851
13534WAT     H140844   6.855   4.281   8.759
13534WAT     H240845   6.967   4.327   8.868
13535WAT      O40846   2.934   1.168   6.038
13535WAT     H140847   2.965   1.119   6.119
13535WAT     H240848   2.978   1.258   6.034
13536WAT      O40849   3.417   9.281   7.570
13536WAT     H140850   3.416   9.184   7.590
13536WAT     H240851   3.325   9.318   7.576
13537WAT      O40852   3.294   9.736   1.533
13537WAT     H140853   3.213   9.728   1.474
13537WAT     H240854   3.370   9.686   1.492
13538WAT      O40855   2.329   1.428   7.520
13538WAT     H140856   2.316   1.517   7.478
13538WAT     H240857   2.250   1.407   7.579
13539WAT      O40858   5.205   2.793   2.543
13539WAT     H140859   5.216   2.812   2.445
13539WAT     H240860   5.291   2.758   2.580
13540WAT      O40861   2.253   6.869   9.420
13540WAT     H140862   2.230   6.793   9.359
13540WAT     H240863   2.261   6.836   9.514
13541WAT      O40864   4.037   2.364   0.516
13541WAT     H140865   3.969   2.427   0.554
13541WAT     H240866   3.995   2.310   0.443
13542WAT      O40867   3.317   4.866   3.786
13542WAT     H140868   3.409   4.900   3.804
13542WAT     H240869   3.323   4.777   3.740
13543WAT      O40870   8.161   6.783   3.891
13543WAT     H140871   8.132   6.879   3.884
13543WAT     H240872   8.259   6.776   3.873
13544WAT      O40873   0.765   3.668   5.137
13544WAT     H140874   0.727   3.760   5.137
13544WAT     H240875   0.741   3.622   5.223
13545WAT      O40876   4.830   5.218   7.737
13545WAT     H140877   4.786   5.260   7.657
13545WAT     H240878   4.807   5.120   7.740
13546WAT      O40879   7.375   0.015   7.059
13546WAT     H140880   7.364  -0.077   7.096
13546WAT     H240881   7.447   0.063   7.109
13547WAT      O40882   2.648   0.837   5.065
13547WAT     H140883   2.643   0.885   4.977
13547WAT     H240884   2.739   0.797   5.075
13548WAT      O40885   2.121   8.976   5.234
13548WAT     H140886   2.177   8.953   5.314
13548WAT     H240887   2.068   8.895   5.207
13549WAT      O40888   6.836   3.660   8.312
13549WAT     H140889   6.845   3.563   8.332
13549WAT     H240890   6.847   3.676   8.214
13550WAT      O40891   8.968   3.339   8.565
13550WAT     H140892   9.051   3.333   8.620
13550WAT     H240893   8.963   3.261   8.503
13551WAT      O40894   0.303   4.330   9.169
13551WAT     H140895   0.302   4.401   9.098
13551WAT     H240896   0.378   4.267   9.152
13552WAT      O40897   8.998   5.580   5.958
13552WAT     H140898   9.031   5.489   5.935
13552WAT     H240899   9.056   5.649   5.914
13553WAT      O40900   0.289   0.448   1.704
13553WAT     H140901   0.195   0.457   1.735
13553WAT     H240902   0.291   0.436   1.605
13554WAT      O40903   9.790   3.100   3.463
13554WAT     H140904   9.782   3.054   3.374
13554WAT     H240905   9.760   3.195   3.454
13555WAT      O40906   0.006   9.484   4.104
13555WAT     H140907  -0.009   9.510   4.009
13555WAT     H240908   0.053   9.396   4.108
13556WAT      O40909   0.528   9.682   1.750
13556WAT     H140910   0.588   9.731   1.686
13556WAT     H240911   0.446   9.651   1.702
13557WAT      O40912   2.640   8.091   5.648
13557WAT     H140913   2.703   8.035   5.594
13557WAT     H240914   2.678   8.183   5.659
13558WAT      O40915   3.523   1.317   3.745
13558WAT     H140916   3.435   1.326   3.790
13558WAT     H240917   3.594   1.359   3.801
13559WAT      O40918   8.660   5.597   2.815
13559WAT     H140919   8.609   5.659   2.875
13559WAT     H240920   8.758   5.608   2.834
13560WAT      O40921   7.970   4.191   7.409
13560WAT     H140922   8.007   4.099   7.410
13560WAT     H240923   7.920   4.209   7.493
13561WAT      O40924   0.901   8.897   9.675
13561WAT     H140925   0.937   8.921   9.765
13561WAT     H240926   0.942   8.955   9.605
13562WAT      O40927   1.114   8.348   0.357
13562WAT     H140928   1.042   8.282   0.339
13562WAT     H240929   1.076   8.440   0.359
13563WAT      O40930   9.797   1.533   0.436
13563WAT     H140931   9.807   1.627   0.405
13563WAT     H240932   9.822   1.526   0.532
13564WAT      O40933   6.609   1.384   4.766
13564WAT     H140934   6.605   1.284   4.757
13564WAT     H240935   6.695   1.410   4.810
13565WAT      O40936   8.444   6.567   3.098
13565WAT     H140937   8.368   6.630   3.082
13565WAT     H240938   8.408   6.475   3.114
13566WAT      O40939   8.274   0.395   3.170
13566WAT     H140940   8.214   0.442   3.106
13566WAT     H240941   8.231   0.393   3.261
13567WAT      O40942   6.764   7.084   6.571
13567WAT     H140943   6.682   7.102   6.626
13567WAT     H240944   6.746   7.009   6.507
13568WAT      O40945   0.482   4.801   0.560
13568WAT     H140946   0.385   4.802   0.585
13568WAT     H240947   0.494   4.751   0.475
13569WAT      O40948   4.318   2.260   1.156
13569WAT     H140949   4.351   2.245   1.249
13569WAT     H240950   4.397   2.269   1.095
13570WAT      O40951   8.065   6.816   5.073
13570WAT     H140952   8.137   6.829   5.142
13570WAT     H240953   7.993   6.759   5.111
13571WAT      O40954   8.758   7.354   0.982
13571WAT     H140955   8.832   7.364   1.048
13571WAT     H240956   8.679   7.408   1.012
13572WAT      O40957   5.138   3.439   4.442
13572WAT     H140958   5.100   3.390   4.519
13572WAT     H240959   5.238   3.432   4.443
13573WAT      O40960   6.831   7.818   7.758
13573WAT     H140961   6.788   7.858   7.678
13573WAT     H240962   6.895   7.883   7.798
13574WAT      O40963   7.402   8.669   6.759
13574WAT     H140964   7.345   8.622   6.691
13574WAT     H240965   7.494   8.628   6.760
13575WAT      O40966   4.528   8.321   4.468
13575WAT     H140967   4.594   8.331   4.393
13575WAT     H240968   4.436   8.343   4.434
13576WAT      O40969   7.418   2.850   0.582
13576WAT     H140970   7.424   2.825   0.486
13576WAT     H240971   7.326   2.884   0.603
13577WAT      O40972   3.356   1.630   7.275
13577WAT     H140973   3.454   1.649   7.279
13577WAT     H240974   3.319   1.660   7.187
13578WAT      O40975   4.462   1.143   6.909
13578WAT     H140976   4.490   1.085   6.833
13578WAT     H240977   4.378   1.192   6.885
13579WAT      O40978   6.886   4.809   3.825
13579WAT     H140979   6.845   4.889   3.782
13579WAT     H240980   6.857   4.804   3.920
13580WAT      O40981   3.508   6.190   7.716
13580WAT     H140982   3.453   6.274   7.710
13580WAT     H240983   3.604   6.215   7.727
13581WAT      O40984   1.886   9.580   9.744
13581WAT     H140985   1.879   9.651   9.814
13581WAT     H240986   1.983   9.558   9.729
13582WAT      O40987   0.994   1.437   2.132
13582WAT     H140988   1.025   1.469   2.221
13582WAT     H240989   0.948   1.511   2.083
13583WAT      O40990   9.096   1.445   8.693
13583WAT     H140991   9.023   1.441   8.625
13583WAT     H240992   9.138   1.536   8.691
13584WAT      O40993   3.572   8.244   3.232
13584WAT     H140994   3.476   8.230   3.207
13584WAT     H240995   3.602   8.333   3.200
13585WAT      O40996   8.244   0.943   2.933
13585WAT     H140997   8.147   0.924   2.915
13585WAT     H240998   8.300   0.888   2.872
13586WAT      O40999   1.832   3.291   4.990
13586WAT     H141000   1.803   3.285   4.894
13586WAT     H241001   1.909   3.231   5.005
13587WAT      O41002   9.812   0.681   4.425
13587WAT     H141003   9.775   0.596   4.387
13587WAT     H241004   9.888   0.660   4.486
13588WAT      O41005   3.207   1.696   3.554
13588WAT     H141006   3.290   1.640   3.556
13588WAT     H241007   3.187   1.730   3.646
13589WAT      O41008   3.328   2.360   9.256
13589WAT     H141009   3.270   2.436   9.228
13589WAT     H241010   3.298   2.324   9.344
13590WAT      O41011   2.641   2.169   6.286
13590WAT     H141012   2.547   2.140   6.305
13590WAT     H241013   2.695   2.165   6.369
13591WAT      O41014   9.587   7.736   2.905
13591WAT     H141015   9.514   7.772   2.963
13591WAT     H241016   9.580   7.637   2.899
13592WAT      O41017   8.888   2.694   2.869
13592WAT     H141018   8.841   2.732   2.949
13592WAT     H241019   8.842   2.609   2.842
13593WAT      O41020   1.090   5.600   9.083
13593WAT     H141021   1.179   5.606   9.129
13593WAT     H241022   1.101   5.554   8.995
13594WAT      O41023   5.755   4.149   5.007
13594WAT     H141024   5.714   4.062   4.983
13594WAT     H241025   5.821   4.136   5.082
13595WAT      O41026   7.282   4.210   8.377
13595WAT     H141027   7.236   4.270   8.313
13595WAT     H241028   7.296   4.257   8.464
13596WAT      O41029   8.926   5.039   7.621
13596WAT     H141030   8.878   4.999   7.699
13596WAT     H241031   9.014   4.992   7.609
13597WAT      O41032   4.384   6.841   0.357
13597WAT     H141033   4.459   6.864   0.296
13597WAT     H241034   4.313   6.793   0.306
13598WAT      O41035   0.825   6.385   4.523
13598WAT     H141036   0.879   6.367   4.605
13598WAT     H241037   0.886   6.400   4.445
13599WAT      O41038   2.801   8.379   1.836
13599WAT     H141039   2.781   8.285   1.864
13599WAT     H241040   2.884   8.381   1.781
13600WAT      O41041   9.365   2.867   6.664
13600WAT     H141042   9.430   2.795   6.642
13600WAT     H241043   9.351   2.871   6.763
13601WAT      O41044   8.939   6.750   2.539
13601WAT     H141045   8.890   6.837   2.549
13601WAT     H241046   8.987   6.748   2.451
13602WAT      O41047   0.059   0.618   4.804
13602WAT     H141048   0.047   0.713   4.833
13602WAT     H241049   0.114   0.569   4.872
13603WAT      O41050   5.708   3.490   9.698
13603WAT     H141051   5.705   3.406   9.753
13603WAT     H241052   5.783   3.483   9.632
13604WAT      O41053   7.300   4.029   3.458
13604WAT     H141054   7.224   4.082   3.494
13604WAT     H241055   7.347   3.983   3.533
13605WAT      O41056   7.132   1.989   2.637
13605WAT     H141057   7.064   2.058   2.661
13605WAT     H241058   7.129   1.972   2.538
13606WAT      O41059   7.094   0.991   7.450
13606WAT     H141060   7.022   1.030   7.507
13606WAT     H241061   7.053   0.941   7.374
13607WAT      O41062   4.845   3.328   4.912
13607WAT     H141063   4.895   3.285   4.837
13607WAT     H241064   4.895   3.408   4.945
13608WAT      O41065   7.375   9.841   3.679
13608WAT     H141066   7.346   9.778   3.606
13608WAT     H241067   7.433   9.912   3.640
13609WAT      O41068   7.882   2.715   3.713
13609WAT     H141069   7.835   2.733   3.799
13609WAT     H241070   7.935   2.796   3.687
13610WAT      O41071   0.918   9.673   8.874
13610WAT     H141072   0.935   9.589   8.822
13610WAT     H241073   0.820   9.692   8.874
13611WAT      O41074   1.693   4.525   0.176
13611WAT     H141075   1.601   4.503   0.209
13611WAT     H241076   1.688   4.567   0.086
13612WAT      O41077   1.176   1.221   3.981
13612WAT     H141078   1.180   1.216   4.081
13612WAT     H241079   1.106   1.158   3.947
13613WAT      O41080   0.593   3.495   8.140
13613WAT     H141081   0.584   3.544   8.226
13613WAT     H241082   0.538   3.539   8.069
13614WAT      O41083   1.012   4.731   1.761
13614WAT     H141084   1.045   4.739   1.667
13614WAT     H241085   1.010   4.822   1.803
13615WAT      O41086   5.229   3.919   3.910
13615WAT     H141087   5.140   3.926   3.865
13615WAT     H241088   5.223   3.855   3.986
13616WAT      O41089   3.007   1.430   5.700
13616WAT     H141090   3.088   1.416   5.643
13616WAT     H241091   2.926   1.437   5.642
13617WAT      O41092   3.002   3.954   2.127
13617WAT     H141093   2.975   3.987   2.218
13617WAT     H241094   3.096   3.983   2.109
13618WAT      O41095   4.597   6.094   7.838
13618WAT     H141096   4.595   6.008   7.889
13618WAT     H241097   4.507   6.137   7.842
13619WAT      O41098   7.901   6.378   4.104
13619WAT     H141099   7.806   6.367   4.131
13619WAT     H241100   7.915   6.341   4.013
13620WAT      O41101   9.163   4.021   6.614
13620WAT     H141102   9.142   3.950   6.682
13620WAT     H241103   9.103   4.009   6.535
13621WAT      O41104   5.552   9.809   3.103
13621WAT     H141105   5.615   9.775   3.172
13621WAT     H241106   5.589   9.790   3.012
13622WAT      O41107   4.600   6.268   2.808
13622WAT     H141108   4.501   6.275   2.823
13622WAT     H241109   4.624   6.307   2.719
13623WAT      O41110   0.879   4.365   7.072
13623WAT     H141111   0.850   4.325   6.985
13623WAT     H241112   0.812   4.433   7.101
13624WAT      O41113   8.763   2.965   2.206
13624WAT     H141114   8.819   3.039   2.244
13624WAT     H241115   8.728   2.908   2.281
13625WAT      O41116   3.957   0.314   4.357
13625WAT     H141117   3.891   0.240   4.346
13625WAT     H241118   4.048   0.283   4.330
13626WAT      O41119   8.780   2.982   7.054
13626WAT     H141120   8.682   2.989   7.034
13626WAT     H241121   8.816   3.072   7.078
13627WAT      O41122   1.595   7.424   2.675
13627WAT     H141123   1.579   7.388   2.766
13627WAT     H241124   1.553   7.515   2.667
13628WAT      O41125   4.078   3.029   7.634
13628WAT     H141126   3.985   3.064   7.633
13628WAT     H241127   4.097   2.985   7.722
13629WAT      O41128   0.854   9.513   1.299
13629WAT     H141129   0.859   9.605   1.262
13629WAT     H241130   0.807   9.515   1.388
13630WAT      O41131   5.609   7.276   5.491
13630WAT     H141132   5.646   7.336   5.563
13630WAT     H241133   5.680   7.213   5.461
13631WAT      O41134   9.140   3.301   3.027
13631WAT     H141135   9.140   3.222   3.089
13631WAT     H241136   9.159   3.270   2.934
13632WAT      O41137   3.420   8.948   0.032
13632WAT     H141138   3.412   8.964   0.130
13632WAT     H241139   3.329   8.928  -0.006
13633WAT      O41140   7.571   7.858   9.001
13633WAT     H141141   7.620   7.900   9.078
13633WAT     H241142   7.474   7.854   9.022
13634WAT      O41143   1.912   0.648   3.276
13634WAT     H141144   1.950   0.573   3.222
13634WAT     H241145   1.859   0.709   3.216
13635WAT      O41146   4.910   0.988   7.924
13635WAT     H141147   4.902   0.889   7.912
13635WAT     H241148   4.948   1.007   8.015
13636WAT      O41149   1.110   0.008   8.900
13636WAT     H141150   1.193  -0.001   8.845
13636WAT     H241151   1.047  -0.065   8.877
13637WAT      O41152   6.547   3.146   7.004
13637WAT     H141153   6.508   3.092   6.930
13637WAT     H241154   6.645   3.126   7.012
13638WAT      O41155   5.766   1.449   0.566
13638WAT     H141156   5.684   1.464   0.511
13638WAT     H241157   5.835   1.516   0.542
13639WAT      O41158   7.975   5.281   3.046
13639WAT     H141159   8.033   5.309   3.122
13639WAT     H241160   7.968   5.355   2.979
13640WAT      O41161   7.592   6.179   1.848
13640WAT     H141162   7.651   6.249   1.890
13640WAT     H241163   7.649   6.103   1.816
13641WAT      O41164   8.510   1.983   1.282
13641WAT     H141165   8.489   1.936   1.367
13641WAT     H241166   8.448   2.061   1.272
13642WAT      O41167   9.678   6.364   0.156
13642WAT     H141168   9.644   6.441   0.102
13642WAT     H241169   9.663   6.279   0.106
13643WAT      O41170   0.150   1.785   6.218
13643WAT     H141171   0.204   1.868   6.204
13643WAT     H241172   0.084   1.800   6.292
13644WAT      O41173   2.586   4.646   6.877
13644WAT     H141174   2.639   4.711   6.931
13644WAT     H241175   2.517   4.695   6.823
13645WAT      O41176   1.459   1.504   8.453
13645WAT     H141177   1.536   1.474   8.510
13645WAT     H241178   1.492   1.523   8.361
13646WAT      O41179   8.151   8.522   9.644
13646WAT     H141180   8.068   8.577   9.648
13646WAT     H241181   8.157   8.476   9.555
13647WAT      O41182   1.788   6.045   3.117
13647WAT     H141183   1.831   6.087   3.197
13647WAT     H241184   1.859   6.005   3.058
13648WAT      O41185   5.002   4.042   5.614
13648WAT     H141186   5.035   3.973   5.677
13648WAT     H241187   4.956   3.998   5.536
13649WAT      O41188   0.120   6.099   1.229
13649WAT     H141189   0.075   6.188   1.218
13649WAT     H241190   0.074   6.048   1.302
13650WAT      O41191   4.169   0.072   2.019
13650WAT     H141192   4.105   0.036   1.951
13650WAT     H241193   4.262   0.043   1.995
13651WAT      O41194   3.171   9.481   9.768
13651WAT     H141195   3.237   9.449   9.700
13651WAT     H241196   3.213   9.552   9.824
13652WAT      O41197   5.055   4.711   3.163
13652WAT     H141198   5.111   4.786   3.125
13652WAT     H241199   5.056   4.717   3.263
13653WAT      O41200   3.509   1.396   5.070
13653WAT     H141201   3.534   1.299   5.070
13653WAT     H241202   3.573   1.447   5.011
13654WAT      O41203   4.237   5.597   4.089
13654WAT     H141204   4.188   5.681   4.114
13654WAT     H241205   4.273   5.554   4.172
13655WAT      O41206   6.955   3.717   6.078
13655WAT     H141207   7.049   3.681   6.079
13655WAT     H241208   6.901   3.672   6.149
13656WAT      O41209   1.293   8.598   3.362
13656WAT     H141210   1.255   8.584   3.271
13656WAT     H241211   1.286   8.513   3.415
13657WAT      O41212   0.855   5.168   0.595
13657WAT     H141213   0.793   5.095   0.625
13657WAT     H241214   0.938   5.126   0.558
13658WAT      O41215   5.680   4.376   3.674
13658WAT     H141216   5.748   4.314   3.634
13658WAT     H241217   5.694   4.468   3.638
13659WAT      O41218   1.895   6.109   8.133
13659WAT     H141219   1.955   6.042   8.090
13659WAT     H241220   1.800   6.091   8.108
13660WAT      O41221   4.386   8.903   2.009
13660WAT     H141222   4.437   8.861   2.084
13660WAT     H241223   4.375   8.836   1.936
13661WAT      O41224   9.696   9.715   2.164
13661WAT     H141225   9.636   9.732   2.242
13661WAT     H241226   9.785   9.684   2.197
13662WAT      O41227   3.615   6.674   6.916
13662WAT     H141228   3.564   6.686   6.830
13662WAT     H241229   3.605   6.579   6.947
13663WAT      O41230   7.631   2.927   9.797
13663WAT     H141231   7.620   2.954   9.701
13663WAT     H241232   7.701   2.984   9.839
13664WAT      O41233   9.030   5.790   1.242
13664WAT     H141234   8.986   5.874   1.211
13664WAT     H241235   9.120   5.781   1.200
13665WAT      O41236   3.418   6.484   4.586
13665WAT     H141237   3.474   6.562   4.557
13665WAT     H241238   3.472   6.426   4.647
13666WAT      O41239   6.886   7.081   1.181
13666WAT     H141240   6.818   7.011   1.204
13666WAT     H241241   6.978   7.042   1.193
13667WAT      O41242   9.328   5.440   7.053
13667WAT     H141243   9.350   5.346   7.026
13667WAT     H241244   9.381   5.464   7.134
13668WAT      O41245   2.624   5.099   1.455
13668WAT     H141246   2.592   5.118   1.362
13668WAT     H241247   2.554   5.127   1.521
13669WAT      O41248   0.357   8.111   6.772
13669WAT     H141249   0.268   8.086   6.734
13669WAT     H241250   0.423   8.123   6.698
13670WAT      O41251   4.952   4.827   9.221
13670WAT     H141252   4.939   4.926   9.209
13670WAT     H241253   5.031   4.811   9.280
13671WAT      O41254   4.942   1.480   6.818
13671WAT     H141255   4.871   1.494   6.887
13671WAT     H241256   4.901   1.489   6.727
13672WAT      O41257   3.371   0.550   2.478
13672WAT     H141258   3.349   0.452   2.483
13672WAT     H241259   3.462   0.562   2.439
13673WAT      O41260   2.753   5.921   4.140
13673WAT     H141261   2.839   5.969   4.156
13673WAT     H241262   2.729   5.926   4.043
13674WAT      O41263   5.907   5.916   7.866
13674WAT     H141264   5.958   5.949   7.787
13674WAT     H241265   5.819   5.964   7.871
13675WAT      O41266   4.817   7.555   8.652
13675WAT     H141267   4.732   7.598   8.683
13675WAT     H241268   4.807   7.525   8.557
13676WAT      O41269   3.901   3.446   3.584
13676WAT     H141270   3.824   3.408   3.533
13676WAT     H241271   3.966   3.488   3.520
13677WAT      O41272   5.431   0.119   6.580
13677WAT     H141273   5.475   0.208   6.587
13677WAT     H241274   5.332   0.130   6.578
13678WAT      O41275   3.020   8.981   6.291
13678WAT     H141276   3.015   9.047   6.216
13678WAT     H241277   2.934   8.982   6.342
13679WAT      O41278   0.781   1.799   8.680
13679WAT     H141279   0.772   1.862   8.603
13679WAT     H241280   0.877   1.794   8.708
13680WAT      O41281   3.186   4.609   4.306
13680WAT     H141282   3.189   4.679   4.378
13680WAT     H241283   3.112   4.545   4.325
13681WAT      O41284   5.982   4.792   5.710
13681WAT     H141285   6.047   4.722   5.740
13681WAT     H241286   6.016   4.836   5.627
13682WAT      O41287   8.606   3.617   7.455
13682WAT     H141288   8.594   3.674   7.373
13682WAT     H241289   8.603   3.675   7.536
13683WAT      O41290   5.914   7.737   8.797
13683WAT     H141291   5.926   7.814   8.860
13683WAT     H241292   6.001   7.689   8.785
13684WAT      O41293   2.287   4.191   3.533
13684WAT     H141294   2.219   4.261   3.512
13684WAT     H241295   2.250   4.128   3.602
13685WAT      O41296   5.413   4.371   3.418
13685WAT     H141297   5.459   4.446   3.466
13685WAT     H241298   5.414   4.289   3.475
13686WAT      O41299   5.860   6.381   7.761
13686WAT     H141300   5.852   6.342   7.669
13686WAT     H241301   5.787   6.447   7.776
13687WAT      O41302   0.839   1.010   9.487
13687WAT     H141303   0.740   0.997   9.489
13687WAT     H241304   0.872   1.032   9.579
13688WAT      O41305   3.131   3.675   9.531
13688WAT     H141306   3.187   3.756   9.548
13688WAT     H241307   3.189   3.594   9.526
13689WAT      O41308   2.319   6.572   5.284
13689WAT     H141309   2.414   6.543   5.299
13689WAT     H241310   2.258   6.493   5.293
13690WAT      O41311   1.495   7.178   1.763
13690WAT     H141312   1.583   7.130   1.758
13690WAT     H241313   1.510   7.275   1.743
13691WAT      O41314   3.197   5.122   0.736
13691WAT     H141315   3.128   5.059   0.701
13691WAT     H241316   3.234   5.087   0.822
13692WAT      O41317   4.207   2.619   7.517
13692WAT     H141318   4.287   2.649   7.464
13692WAT     H241319   4.166   2.539   7.472
13693WAT      O41320   4.695   8.029   2.937
13693WAT     H141321   4.619   8.062   2.992
13693WAT     H241322   4.695   8.075   2.848
13694WAT      O41323   5.419   3.796   8.273
13694WAT     H141324   5.435   3.699   8.291
13694WAT     H241325   5.491   3.831   8.212
13695WAT      O41326   1.681   1.716   4.403
13695WAT     H141327   1.715   1.791   4.460
13695WAT     H241328   1.593   1.741   4.364
13696WAT      O41329   6.993   4.470   6.340
13696WAT     H141330   7.075   4.454   6.286
13696WAT     H241331   6.922   4.510   6.282
13697WAT      O41332   7.695   2.829   0.543
13697WAT     H141333   7.737   2.786   0.623
13697WAT     H241334   7.600   2.853   0.565
13698WAT      O41335   0.288   3.451   1.836
13698WAT     H141336   0.253   3.358   1.825
13698WAT     H241337   0.375   3.448   1.885
13699WAT      O41338   7.169   3.823   0.449
13699WAT     H141339   7.070   3.822   0.459
13699WAT     H241340   7.206   3.733   0.471
13700WAT      O41341   5.872   4.351   0.382
13700WAT     H141342   5.913   4.364   0.292
13700WAT     H241343   5.793   4.411   0.392
13701WAT      O41344   4.131   0.010   2.299
13701WAT     H141345   4.198   0.061   2.354
13701WAT     H241346   4.144   0.033   2.203
13702WAT      O41347   7.985   6.688   2.804
13702WAT     H141348   7.924   6.643   2.869
13702WAT     H241349   8.058   6.626   2.777
13703WAT      O41350   0.983   3.363   9.246
13703WAT     H141351   1.059   3.428   9.235
13703WAT     H241352   0.976   3.305   9.165
13704WAT      O41353   3.556   3.242   5.418
13704WAT     H141354   3.575   3.188   5.337
13704WAT     H241355   3.534   3.336   5.391
13705WAT      O41356   9.220   2.469   9.362
13705WAT     H141357   9.218   2.373   9.393
13705WAT     H241358   9.147   2.484   9.295
13706WAT      O41359   3.538   0.032   1.118
13706WAT     H141360   3.468   0.005   1.052
13706WAT     H241361   3.582   0.116   1.087
13707WAT      O41362   1.208   2.227   4.947
13707WAT     H141363   1.224   2.307   4.890
13707WAT     H241364   1.129   2.243   5.006
13708WAT      O41365   4.179   6.239   7.252
13708WAT     H141366   4.213   6.318   7.302
13708WAT     H241367   4.095   6.263   7.203
13709WAT      O41368   8.319   0.941   0.843
13709WAT     H141369   8.347   1.028   0.803
13709WAT     H241370   8.267   0.959   0.927
13710WAT      O41371   2.529   7.248   2.588
13710WAT     H141372   2.497   7.172   2.533
13710WAT     H241373   2.568   7.319   2.528
13711WAT      O41374   7.252   5.222   7.841
13711WAT     H141375   7.202   5.139   7.817
13711WAT     H241376   7.350   5.203   7.843
13712WAT      O41377   9.390   8.646   7.533
13712WAT     H141378   9.382   8.673   7.437
13712WAT     H241379   9.387   8.546   7.539
13713WAT      O41380   3.716   6.365   8.403
13713WAT     H141381   3.727   6.411   8.316
13713WAT     H241382   3.620   6.339   8.415
13714WAT      O41383   7.842   5.887   2.162
13714WAT     H141384   7.803   5.947   2.232
13714WAT     H241385   7.769   5.843   2.111
13715WAT      O41386   4.065   5.886   7.200
13715WAT     H141387   3.994   5.857   7.263
13715WAT     H241388   4.146   5.914   7.251
13716WAT      O41389   7.661   3.447   6.122
13716WAT     H141390   7.606   3.435   6.039
13716WAT     H241391   7.749   3.402   6.110
13717WAT      O41392   4.219   1.971   6.390
13717WAT     H141393   4.276   1.918   6.452
13717WAT     H241394   4.193   2.057   6.435
13718WAT      O41395   4.550   7.205   1.449
13718WAT     H141396   4.606   7.271   1.401
13718WAT     H241397   4.550   7.118   1.399
13719WAT      O41398   8.413   5.442   6.355
13719WAT     H141399   8.469   5.376   6.404
13719WAT     H241400   8.396   5.409   6.262
13720WAT      O41401   5.180   6.249   6.416
13720WAT     H141402   5.214   6.189   6.488
13720WAT     H241403   5.081   6.236   6.406
13721WAT      O41404   5.187   9.831   2.131
13721WAT     H141405   5.260   9.889   2.095
13721WAT     H241406   5.098   9.861   2.096
13722WAT      O41407   1.243   7.256   2.428
13722WAT     H141408   1.278   7.193   2.498
13722WAT     H241409   1.292   7.242   2.343
13723WAT      O41410   2.161   2.472   4.854
13723WAT     H141411   2.075   2.504   4.894
13723WAT     H241412   2.220   2.436   4.926
13724WAT      O41413   6.092   4.558   1.318
13724WAT     H141414   6.104   4.531   1.414
13724WAT     H241415   6.179   4.591   1.281
13725WAT      O41416   6.338   7.052   5.943
13725WAT     H141417   6.380   7.106   6.016
13725WAT     H241418   6.370   7.086   5.855
13726WAT      O41419   7.198   4.234   6.040
13726WAT     H141420   7.154   4.288   5.968
13726WAT     H241421   7.128   4.183   6.091
13727WAT      O41422   2.052   3.967   2.212
13727WAT     H141423   2.112   3.938   2.138
13727WAT     H241424   2.029   4.064   2.201
13728WAT      O41425   7.152   4.048   0.912
13728WAT     H141426   7.156   4.071   0.815
13728WAT     H241427   7.065   4.003   0.933
13729WAT      O41428   0.656   8.846   8.679
13729WAT     H141429   0.644   8.784   8.602
13729WAT     H241430   0.642   8.940   8.648
13730WAT      O41431   2.294   8.486   7.409
13730WAT     H141432   2.197   8.492   7.386
13730WAT     H241433   2.312   8.402   7.460
13731WAT      O41434   0.352   2.223   1.092
13731WAT     H141435   0.438   2.266   1.064
13731WAT     H241436   0.290   2.293   1.129
13732WAT      O41437   9.806   3.964   4.262
13732WAT     H141438   9.735   3.898   4.237
13732WAT     H241439   9.811   3.971   4.362
13733WAT      O41440   6.201   5.791   4.902
13733WAT     H141441   6.187   5.828   4.994
13733WAT     H241442   6.243   5.700   4.910
13734WAT      O41443   2.785   1.715   6.874
13734WAT     H141444   2.759   1.732   6.969
13734WAT     H241445   2.855   1.780   6.846
13735WAT      O41446   4.330   4.861   0.139
13735WAT     H141447   4.271   4.783   0.118
13735WAT     H241448   4.422   4.828   0.160
13736WAT      O41449   5.600   2.823   9.785
13736WAT     H141450   5.677   2.867   9.831
13736WAT     H241451   5.632   2.785   9.698
13737WAT      O41452   1.555   7.907   7.341
13737WAT     H141453   1.620   7.877   7.411
13737WAT     H241454   1.463   7.911   7.380
13738WAT      O41455   6.056   5.825   0.546
13738WAT     H141456   6.095   5.897   0.489
13738WAT     H241457   6.067   5.736   0.501
13739WAT      O41458   0.409   1.005   0.059
13739WAT     H141459   0.497   0.957   0.053
13739WAT     H241460   0.335   0.940   0.043
13740WAT      O41461   8.143   0.629   6.839
13740WAT     H141462   8.219   0.694   6.843
13740WAT     H241463   8.153   0.562   6.914
13741WAT      O41464   9.814   3.845   9.780
13741WAT     H141465   9.851   3.797   9.860
13741WAT     H241466   9.729   3.890   9.804
13742WAT      O41467   4.755   2.755   6.439
13742WAT     H141468   4.685   2.693   6.474
13742WAT     H241469   4.729   2.787   6.348
13743WAT      O41470   1.102   8.074   8.109
13743WAT     H141471   1.183   8.132   8.099
13743WAT     H241472   1.112   7.993   8.051
13744WAT      O41473   2.709   2.147   8.349
13744WAT     H141474   2.808   2.164   8.342
13744WAT     H241475   2.662   2.193   8.275
13745WAT      O41476   2.075   7.001   4.874
13745WAT     H141477   2.065   6.901   4.873
13745WAT     H241478   2.166   7.025   4.909
13746WAT      O41479   2.436   0.680   0.368
13746WAT     H141480   2.377   0.681   0.449
13746WAT     H241481   2.532   0.683   0.395
13747WAT      O41482   7.078   9.822   8.920
13747WAT     H141483   7.166   9.836   8.965
13747WAT     H241484   7.059   9.900   8.860
13748WAT      O41485   8.853   2.055   5.656
13748WAT     H141486   8.831   2.020   5.565
13748WAT     H241487   8.780   2.117   5.686
13749WAT      O41488   6.807   0.919   6.928
13749WAT     H141489   6.845   0.997   6.877
13749WAT     H241490   6.738   0.951   6.992
13750WAT      O41491   2.981   3.681   1.999
13750WAT     H141492   2.965   3.778   2.015
13750WAT     H241493   2.956   3.658   1.905
13751WAT      O41494   0.639   8.926   8.132
13751WAT     H141495   0.619   8.984   8.053
13751WAT     H241496   0.737   8.906   8.134
13752WAT      O41497   6.315   5.761   9.157
13752WAT     H141498   6.231   5.739   9.106
13752WAT     H241499   6.390   5.774   9.092
13753WAT      O41500   7.153   7.870   0.103
13753WAT     H141501   7.076   7.861   0.040
13753WAT     H241502   7.192   7.962   0.096
13754WAT      O41503   4.670   8.987   7.865
13754WAT     H141504   4.709   9.058   7.923
13754WAT     H241505   4.571   8.993   7.865
13755WAT      O41506   4.333   9.293   4.662
13755WAT     H141507   4.335   9.343   4.749
13755WAT     H241508   4.252   9.234   4.660
13756WAT      O41509   0.786   6.970   0.139
13756WAT     H141510   0.772   7.057   0.093
13756WAT     H241511   0.754   6.977   0.234
13757WAT      O41512   6.783   6.386   8.849
13757WAT     H141513   6.724   6.462   8.824
13757WAT     H241514   6.873   6.400   8.808
13758WAT      O41515   5.451   0.047   8.194
13758WAT     H141516   5.468   0.130   8.141
13758WAT     H241517   5.534  -0.009   8.196
13759WAT      O41518   9.117   1.354   2.737
13759WAT     H141519   9.058   1.423   2.693
13759WAT     H241520   9.137   1.281   2.671
13760WAT      O41521   1.784   5.528   1.057
13760WAT     H141522   1.777   5.603   0.990
13760WAT     H241523   1.772   5.441   1.010
13761WAT      O41524   1.134   4.607   7.922
13761WAT     H141525   1.071   4.549   7.869
13761WAT     H241526   1.081   4.674   7.974
13762WAT      O41527   8.380   6.481   8.835
13762WAT     H141528   8.369   6.568   8.882
13762WAT     H241529   8.454   6.489   8.767
13763WAT      O41530   2.729   3.693   6.868
13763WAT     H141531   2.755   3.766   6.804
13763WAT     H241532   2.805   3.674   6.929
13764WAT      O41533   9.844   3.397   7.610
13764WAT     H141534   9.920   3.459   7.624
13764WAT     H241535   9.759   3.450   7.598
13765WAT      O41536   2.009   4.658   5.087
13765WAT     H141537   2.080   4.685   5.153
13765WAT     H241538   1.920   4.659   5.132
13766WAT      O41539   8.765   3.558   1.993
13766WAT     H141540   8.861   3.569   2.018
13766WAT     H241541   8.754   3.566   1.894
13767WAT      O41542   9.719   1.250   2.072
13767WAT     H141543   9.755   1.299   1.992
13767WAT     H241544   9.720   1.310   2.151
13768WAT      O41545   6.546   1.059   1.565
13768WAT     H141546   6.452   1.080   1.590
13768WAT     H241547   6.547   0.975   1.509
13769WAT      O41548   1.181   1.927   2.864
13769WAT     H141549   1.245   1.858   2.898
13769WAT     H241550   1.101   1.931   2.924
13770WAT      O41551   6.471   2.440   6.303
13770WAT     H141552   6.561   2.466   6.340
13770WAT     H241553   6.414   2.521   6.293
13771WAT      O41554   5.718   7.885   6.225
13771WAT     H141555   5.759   7.950   6.289
13771WAT     H241556   5.689   7.933   6.142
13772WAT      O41557   9.638   6.956   2.916
13772WAT     H141558   9.623   6.886   2.847
13772WAT     H241559   9.603   7.044   2.883
13773WAT      O41560   3.087   1.384   3.357
13773WAT     H141561   3.163   1.424   3.408
13773WAT     H241562   3.005   1.385   3.413
13774WAT      O41563   4.676   7.440   6.857
13774WAT     H141564   4.723   7.518   6.815
13774WAT     H241565   4.698   7.357   6.806
13775WAT      O41566   1.483   8.487   0.860
13775WAT     H141567   1.496   8.493   0.762
13775WAT     H241568   1.570   8.468   0.905
13776WAT      O41569   8.038   3.172   0.430
13776WAT     H141570   8.096   3.195   0.508
13776WAT     H241571   8.092   3.125   0.360
13777WAT      O41572   9.704   9.183   2.847
13777WAT     H141573   9.657   9.162   2.933
13777WAT     H241574   9.686   9.278   2.821
13778WAT      O41575   8.255   1.457   9.856
13778WAT     H141576   8.167   1.414   9.834
13778WAT     H241577   8.267   1.459   9.955
13779WAT      O41578   8.705   8.550   2.469
13779WAT     H141579   8.607   8.555   2.451
13779WAT     H241580   8.737   8.456   2.452
13780WAT      O41581   9.805   1.774   5.114
13780WAT     H141582   9.706   1.768   5.096
13780WAT     H241583   9.825   1.733   5.202
13781WAT      O41584   3.043   6.210   8.692
13781WAT     H141585   3.092   6.148   8.754
13781WAT     H241586   3.017   6.293   8.741
13782WAT      O41587   4.654   3.531   0.936
13782WAT     H141588   4.718   3.560   1.007
13782WAT     H241589   4.680   3.573   0.849
13783WAT      O41590   5.340   4.599   9.838
13783WAT     H141591   5.344   4.688   9.883
13783WAT     H241592   5.351   4.610   9.740
13784WAT      O41593   6.185   7.339   6.094
13784WAT     H141594   6.139   7.299   6.015
13784WAT     H241595   6.262   7.395   6.063
13785WAT      O41596   0.817   6.046   3.355
13785WAT     H141597   0.905   6.000   3.341
13785WAT     H241598   0.833   6.135   3.396
13786WAT      O41599   1.726   6.812   1.457
13786WAT     H141600   1.775   6.768   1.382
13786WAT     H241601   1.706   6.906   1.433
13787WAT      O41602   6.678   7.866   6.664
13787WAT     H141603   6.619   7.786   6.677
13787WAT     H241604   6.756   7.861   6.727
13788WAT      O41605   5.923   3.587   1.691
13788WAT     H141606   5.826   3.599   1.715
13788WAT     H241607   5.969   3.535   1.763
13789WAT      O41608   5.176   3.207   6.098
13789WAT     H141609   5.208   3.197   6.004
13789WAT     H241610   5.254   3.217   6.160
13790WAT      O41611   7.670   4.329   1.292
13790WAT     H141612   7.638   4.410   1.242
13790WAT     H241613   7.755   4.352   1.340
13791WAT      O41614   3.239   4.127   4.767
13791WAT     H141615   3.242   4.027   4.761
13791WAT     H241616   3.194   4.163   4.685
13792WAT      O41617   5.200   7.203   9.028
13792WAT     H141618   5.125   7.162   8.976
13792WAT     H241619   5.212   7.298   8.999
13793WAT      O41620   9.426   4.360   4.401
13793WAT     H141621   9.387   4.275   4.367
13793WAT     H241622   9.446   4.421   4.323
13794WAT      O41623   1.987   1.739   9.640
13794WAT     H141624   2.049   1.688   9.580
13794WAT     H241625   1.908   1.682   9.663
13795WAT      O41626   0.101   1.243   3.399
13795WAT     H141627   0.100   1.342   3.382
13795WAT     H241628   0.178   1.202   3.351
13796WAT      O41629   2.363   9.363   0.136
13796WAT     H141630   2.283   9.339   0.080
13796WAT     H241631   2.349   9.331   0.229
13797WAT      O41632   4.485   3.907   5.937
13797WAT     H141633   4.574   3.906   5.891
13797WAT     H241634   4.433   3.988   5.908
13798WAT      O41635   5.997   4.299   6.983
13798WAT     H141636   5.992   4.319   6.885
13798WAT     H241637   5.969   4.379   7.035
13799WAT      O41638   9.149   7.490   9.519
13799WAT     H141639   9.075   7.437   9.478
13799WAT     H241640   9.126   7.588   9.515
13800WAT      O41641   9.369   7.039   0.021
13800WAT     H141642   9.455   6.992  -0.001
13800WAT     H241643   9.315   7.049  -0.062
13801WAT      O41644   1.388   1.153   8.579
13801WAT     H141645   1.462   1.108   8.527
13801WAT     H241646   1.428   1.206   8.653
13802WAT      O41647   4.445   2.384   2.596
13802WAT     H141648   4.534   2.383   2.551
13802WAT     H241649   4.421   2.478   2.620
13803WAT      O41650   4.485   5.549   3.104
13803WAT     H141651   4.411   5.613   3.124
13803WAT     H241652   4.455   5.455   3.121
13804WAT      O41653   9.641   6.026   4.320
13804WAT     H141654   9.625   5.987   4.411
13804WAT     H241655   9.685   6.116   4.330
13805WAT      O41656   6.997   0.130   1.749
13805WAT     H141657   7.013   0.042   1.705
13805WAT     H241658   7.044   0.202   1.697
13806WAT      O41659   1.872   1.130   1.782
13806WAT     H141660   1.899   1.124   1.878
13806WAT     H241661   1.953   1.120   1.723
13807WAT      O41662   6.700   7.899   8.479
13807WAT     H141663   6.670   7.987   8.516
13807WAT     H241664   6.798   7.888   8.497
13808WAT      O41665   4.700   7.001   2.864
13808WAT     H141666   4.662   7.039   2.948
13808WAT     H241667   4.797   6.982   2.876
13809WAT      O41668   7.786   4.878   6.293
13809WAT     H141669   7.799   4.857   6.390
13809WAT     H241670   7.802   4.976   6.278
13810WAT      O41671   1.587   9.140   9.006
13810WAT     H141672   1.541   9.119   8.920
13810WAT     H241673   1.574   9.065   9.070
13811WAT      O41674   7.998   8.377   5.783
13811WAT     H141675   7.923   8.330   5.735
13811WAT     H241676   8.040   8.313   5.848
13812WAT      O41677   9.546   7.928   8.022
13812WAT     H141678   9.607   7.997   7.982
13812WAT     H241679   9.481   7.973   8.084
13813WAT      O41680   8.448   0.346   8.096
13813WAT     H141681   8.529   0.353   8.038
13813WAT     H241682   8.377   0.296   8.047
13814WAT      O41683   9.327   2.093   0.381
13814WAT     H141684   9.319   2.132   0.473
13814WAT     H241685   9.284   2.003   0.380
13815WAT      O41686   7.565   5.518   5.476
13815WAT     H141687   7.586   5.487   5.569
13815WAT     H241688   7.565   5.440   5.414
13816WAT      O41689   5.632   6.141   9.282
13816WAT     H141690   5.589   6.208   9.342
13816WAT     H241691   5.583   6.138   9.195
13817WAT      O41692   6.389   1.223   7.118
13817WAT     H141693   6.294   1.196   7.101
13817WAT     H241694   6.411   1.303   7.062
13818WAT      O41695   6.437   3.081   6.373
13818WAT     H141696   6.354   3.116   6.330
13818WAT     H241697   6.425   2.985   6.395
13819WAT      O41698   2.151   5.154   6.104
13819WAT     H141699   2.245   5.186   6.093
13819WAT     H241700   2.090   5.232   6.118
13820WAT      O41701   7.698   9.537   4.702
13820WAT     H141702   7.653   9.593   4.772
13820WAT     H241703   7.777   9.491   4.742
13821WAT      O41704   6.118   9.659   1.261
13821WAT     H141705   6.081   9.566   1.261
13821WAT     H241706   6.201   9.661   1.205
13822WAT      O41707   8.216   8.945   9.656
13822WAT     H141708   8.200   9.036   9.616
13822WAT     H241709   8.234   8.879   9.583
13823WAT      O41710   9.590   2.287   3.759
13823WAT     H141711   9.492   2.305   3.747
13823WAT     H241712   9.638   2.374   3.767
13824WAT      O41713   1.196   4.505   8.164
13824WAT     H141714   1.172   4.539   8.073
13824WAT     H241715   1.166   4.571   8.233
13825WAT      O41716   8.612   2.522   2.003
13825WAT     H141717   8.707   2.503   2.027
13825WAT     H241718   8.552   2.496   2.079
13826WAT      O41719   1.074   7.189   8.964
13826WAT     H141720   1.029   7.168   9.051
13826WAT     H241721   1.149   7.124   8.949
13827WAT      O41722   3.025   9.252   3.092
13827WAT     H141723   2.950   9.299   3.044
13827WAT     H241724   3.107   9.309   3.089
13828WAT      O41725   4.662   7.335   1.000
13828WAT     H141726   4.705   7.425   0.989
13828WAT     H241727   4.563   7.346   1.010
13829WAT      O41728   8.560   7.702   1.890
13829WAT     H141729   8.608   7.788   1.875
13829WAT     H241730   8.461   7.718   1.890
13830WAT      O41731   4.602   2.933   9.545
13830WAT     H141732   4.614   2.867   9.471
13830WAT     H241733   4.542   3.007   9.514
13831WAT      O41734   8.295   4.121   2.340
13831WAT     H141735   8.256   4.036   2.306
13831WAT     H241736   8.270   4.134   2.436
13832WAT      O41737   1.890   8.094   8.526
13832WAT     H141738   1.818   8.163   8.520
13832WAT     H241739   1.980   8.139   8.522
13833WAT      O41740   4.331   5.774   4.396
13833WAT     H141741   4.410   5.831   4.417
13833WAT     H241742   4.264   5.827   4.344
13834WAT      O41743   1.612   1.957   6.674
13834WAT     H141744   1.529   1.901   6.672
13834WAT     H241745   1.655   1.956   6.583
13835WAT      O41746   1.911   3.333   5.675
13835WAT     H141747   1.826   3.378   5.702
13835WAT     H241748   1.913   3.240   5.711
13836WAT      O41749   6.390   7.080   1.570
13836WAT     H141750   6.381   7.096   1.668
13836WAT     H241751   6.393   7.168   1.522
13837WAT      O41752   4.217   2.193   4.838
13837WAT     H141753   4.266   2.279   4.852
13837WAT     H241754   4.211   2.173   4.741
13838WAT      O41755   9.116   5.701   1.733
13838WAT     H141756   9.084   5.619   1.687
13838WAT     H241757   9.069   5.781   1.695
13839WAT      O41758   7.242   4.716   6.875
13839WAT     H141759   7.214   4.806   6.907
13839WAT     H241760   7.341   4.706   6.882
13840WAT      O41761   7.599   0.434   5.331
13840WAT     H141762   7.672   0.367   5.321
13840WAT     H241763   7.625   0.501   5.400
13841WAT      O41764   7.444   0.629   7.112
13841WAT     H141765   7.453   0.714   7.166
13841WAT     H241766   7.354   0.589   7.127
13842WAT      O41767   6.158   0.237   6.926
13842WAT     H141768   6.211   0.287   6.857
13842WAT     H241769   6.070   0.283   6.941
13843WAT      O41770   5.608   4.610   9.704
13843WAT     H141771   5.575   4.605   9.610
13843WAT     H241772   5.533   4.637   9.764
13844WAT      O41773   5.939   2.261   6.796
13844WAT     H141774   5.840   2.246   6.804
13844WAT     H241775   5.985   2.212   6.870
13845WAT      O41776   8.358   8.491   0.828
13845WAT     H141777   8.408   8.489   0.914
13845WAT     H241778   8.285   8.558   0.833
13846WAT      O41779   4.772   4.130   5.287
13846WAT     H141780   4.700   4.130   5.217
13846WAT     H241781   4.784   4.037   5.322
13847WAT      O41782   7.085   7.844   4.300
13847WAT     H141783   7.067   7.808   4.208
13847WAT     H241784   7.136   7.930   4.292
13848WAT      O41785   6.441   6.112   3.889
13848WAT     H141786   6.426   6.164   3.974
13848WAT     H241787   6.499   6.034   3.908
13849WAT      O41788   6.382   7.939   6.348
13849WAT     H141789   6.385   7.842   6.324
13849WAT     H241790   6.469   7.983   6.321
13850WAT      O41791   4.316   0.945   6.293
13850WAT     H141792   4.218   0.928   6.302
13850WAT     H241793   4.360   0.932   6.382
13851WAT      O41794   8.069   5.085   1.389
13851WAT     H141795   8.001   5.149   1.353
13851WAT     H241796   8.151   5.089   1.332
13852WAT      O41797   4.632   5.137   3.766
13852WAT     H141798   4.584   5.210   3.718
13852WAT     H241799   4.731   5.153   3.762
13853WAT      O41800   8.923   0.873   1.882
13853WAT     H141801   8.982   0.906   1.808
13853WAT     H241802   8.899   0.778   1.866
13854WAT      O41803   8.617   4.916   9.765
13854WAT     H141804   8.693   4.851   9.767
13854WAT     H241805   8.631   4.985   9.836
13855WAT      O41806   7.370   8.652   1.568
13855WAT     H141807   7.378   8.669   1.470
13855WAT     H241808   7.383   8.555   1.587
13856WAT      O41809   4.591   1.752   7.163
13856WAT     H141810   4.619   1.743   7.258
13856WAT     H241811   4.569   1.848   7.144
13857WAT      O41812   5.091   8.523   3.582
13857WAT     H141813   5.117   8.429   3.602
13857WAT     H241814   5.064   8.570   3.666
13858WAT      O41815   9.211   0.154   5.530
13858WAT     H141816   9.256   0.239   5.558
13858WAT     H241817   9.131   0.138   5.589
13859WAT      O41818   1.448   8.043   2.998
13859WAT     H141819   1.380   7.971   3.010
13859WAT     H241820   1.415   8.110   2.932
13860WAT      O41821   6.746   0.376   5.612
13860WAT     H141822   6.818   0.317   5.648
13860WAT     H241823   6.658   0.330   5.620
13861WAT      O41824   9.109   5.818   0.225
13861WAT     H141825   9.124   5.913   0.197
13861WAT     H241826   9.132   5.809   0.322
13862WAT      O41827   8.161   3.112   6.003
13862WAT     H141828   8.089   3.062   5.956
13862WAT     H241829   8.155   3.095   6.102
13863WAT      O41830   4.836   7.499   8.385
13863WAT     H141831   4.908   7.518   8.318
13863WAT     H241832   4.758   7.559   8.368
13864WAT      O41833   2.127   0.713   7.367
13864WAT     H141834   2.114   0.638   7.432
13864WAT     H241835   2.099   0.683   7.276
13865WAT      O41836   9.326   9.462   1.609
13865WAT     H141837   9.338   9.510   1.696
13865WAT     H241838   9.378   9.376   1.612
13866WAT      O41839   0.918   3.590   4.931
13866WAT     H141840   1.013   3.615   4.950
13866WAT     H241841   0.858   3.629   5.000
13867WAT      O41842   7.964   5.180   8.717
13867WAT     H141843   7.954   5.279   8.729
13867WAT     H241844   8.037   5.161   8.652
13868WAT      O41845   4.205   8.584   4.494
13868WAT     H141846   4.123   8.556   4.544
13868WAT     H241847   4.267   8.633   4.556
13869WAT      O41848   5.431   8.554   4.831
13869WAT     H141849   5.428   8.509   4.920
13869WAT     H241850   5.404   8.489   4.760
13870WAT      O41851   6.663   9.485   4.897
13870WAT     H141852   6.717   9.424   4.955
13870WAT     H241853   6.605   9.542   4.956
13871WAT      O41854   3.480   1.275   7.599
13871WAT     H141855   3.523   1.321   7.521
13871WAT     H241856   3.381   1.290   7.597
13872WAT      O41857   3.330   4.688   1.285
13872WAT     H141858   3.298   4.779   1.310
13872WAT     H241859   3.418   4.695   1.238
13873WAT      O41860   1.717   2.764   9.731
13873WAT     H141861   1.798   2.807   9.773
13873WAT     H241862   1.739   2.670   9.707
13874WAT      O41863   5.939   2.532   9.133
13874WAT     H141864   5.955   2.570   9.042
13874WAT     H241865   5.957   2.601   9.203
13875WAT      O41866   4.936   5.649   0.430
13875WAT     H141867   4.973   5.733   0.391
13875WAT     H241868   5.004   5.608   0.491
13876WAT      O41869   8.453   3.418   2.545
13876WAT     H141870   8.480   3.326   2.519
13876WAT     H241871   8.447   3.424   2.645
13877WAT      O41872   6.855   8.978   0.252
13877WAT     H141873   6.934   9.016   0.301
13877WAT     H241874   6.852   8.879   0.266
13878WAT      O41875   8.446   3.675   2.419
13878WAT     H141876   8.449   3.736   2.498
13878WAT     H241877   8.434   3.581   2.451
13879WAT      O41878   3.914   7.343   7.043
13879WAT     H141879   3.929   7.248   7.071
13879WAT     H241880   3.956   7.359   6.954
13880WAT      O41881   1.190   0.809   8.712
13880WAT     H141882   1.135   0.729   8.689
13880WAT     H241883   1.131   0.889   8.721
13881WAT      O41884   2.072   8.876   6.902
13881WAT     H141885   2.063   8.936   6.822
13881WAT     H241886   2.160   8.891   6.945
13882WAT      O41887   5.078   7.689   6.315
13882WAT     H141888   5.106   7.644   6.230
13882WAT     H241889   5.065   7.786   6.298
13883WAT      O41890   8.440   7.852   8.579
13883WAT     H141891   8.441   7.777   8.513
13883WAT     H241892   8.519   7.843   8.640
13884WAT      O41893   0.472   0.515   0.112
13884WAT     H141894   0.535   0.437   0.117
13884WAT     H241895   0.454   0.537   0.016
13885WAT      O41896   7.702   7.057   7.336
13885WAT     H141897   7.781   7.015   7.291
13885WAT     H241898   7.674   7.139   7.286
13886WAT      O41899  -0.000   5.656   3.913
13886WAT     H141900   0.017   5.562   3.882
13886WAT     H241901   0.076   5.715   3.885
13887WAT      O41902   1.227   8.129   6.716
13887WAT     H141903   1.305   8.093   6.665
13887WAT     H241904   1.210   8.223   6.690
13888WAT      O41905   4.194   1.301   5.878
13888WAT     H141906   4.241   1.269   5.961
13888WAT     H241907   4.234   1.257   5.798
13889WAT      O41908   7.448   7.935   4.296
13889WAT     H141909   7.530   7.984   4.326
13889WAT     H241910   7.452   7.920   4.197
13890WAT      O41911   5.893   5.132   1.087
13890WAT     H141912   5.976   5.168   1.044
13890WAT     H241913   5.825   5.110   1.016
13891WAT      O41914   4.707   3.303   2.081
13891WAT     H141915   4.659   3.375   2.031
13891WAT     H241916   4.641   3.245   2.129
13892WAT      O41917   4.302   6.733   5.688
13892WAT     H141918   4.269   6.726   5.594
13892WAT     H241919   4.322   6.829   5.710
13893WAT      O41920   4.623   0.971   7.975
13893WAT     H141921   4.704   0.998   7.923
13893WAT     H241922   4.540   0.993   7.922
13894WAT      O41923   1.546   7.575   0.094
13894WAT     H141924   1.606   7.648   0.124
13894WAT     H241925   1.466   7.614   0.048
13895WAT      O41926   4.331   4.441   0.177
13895WAT     H141927   4.347   4.484   0.266
13895WAT     H241928   4.418   4.415   0.136
13896WAT      O41929   9.556   8.903   8.189
13896WAT     H141930   9.479   8.955   8.155
13896WAT     H241931   9.534   8.805   8.187
13897WAT      O41932   2.211   2.545   7.489
13897WAT     H141933   2.117   2.526   7.460
13897WAT     H241934   2.213   2.630   7.541
13898WAT      O41935   1.394   4.071   2.695
13898WAT     H141936   1.405   4.090   2.597
13898WAT     H241937   1.300   4.042   2.713
13899WAT      O41938   2.438   7.161   3.579
13899WAT     H141939   2.529   7.201   3.590
13899WAT     H241940   2.419   7.101   3.657
13900WAT      O41941   6.855   1.202   7.907
13900WAT     H141942   6.810   1.287   7.934
13900WAT     H241943   6.878   1.149   7.989
13901WAT      O41944   5.656   0.785   8.719
13901WAT     H141945   5.608   0.788   8.807
13901WAT     H241946   5.750   0.754   8.734
13902WAT      O41947   9.091   8.533   8.598
13902WAT     H141948   9.101   8.497   8.506
13902WAT     H241949   9.041   8.620   8.595
13903WAT      O41950   4.533   3.507   3.681
13903WAT     H141951   4.623   3.546   3.701
13903WAT     H241952   4.513   3.435   3.748
13904WAT      O41953   9.785   3.718   8.748
13904WAT     H141954   9.812   3.812   8.727
13904WAT     H241955   9.823   3.656   8.679
13905WAT      O41956   3.159   7.032   6.036
13905WAT     H141957   3.242   7.030   6.092
13905WAT     H241958   3.134   6.939   6.009
13906WAT      O41959   7.299   6.008   5.092
13906WAT     H141960   7.267   6.041   5.181
13906WAT     H241961   7.220   5.996   5.032
13907WAT      O41962   3.165   8.432   7.816
13907WAT     H141963   3.238   8.377   7.777
13907WAT     H241964   3.204   8.498   7.881
13908WAT      O41965   3.465   6.950   1.881
13908WAT     H141966   3.456   6.997   1.969
13908WAT     H241967   3.527   7.001   1.821
13909WAT      O41968   4.152   3.191   8.059
13909WAT     H141969   4.180   3.246   7.980
13909WAT     H241970   4.181   3.235   8.143
13910WAT      O41971   2.685   7.744   9.895
13910WAT     H141972   2.636   7.757   9.809
13910WAT     H241973   2.775   7.705   9.877
13911WAT      O41974   1.361   6.013   3.655
13911WAT     H141975   1.303   6.021   3.574
13911WAT     H241976   1.337   6.085   3.720
13912WAT      O41977   1.876   4.139   0.152
13912WAT     H141978   1.915   4.181   0.234
13912WAT     H241979   1.901   4.193   0.072
13913WAT      O41980   2.524   0.348   1.019
13913WAT     H141981   2.554   0.343   0.923
13913WAT     H241982   2.589   0.402   1.071
13914WAT      O41983   7.471   8.252   4.485
13914WAT     H141984   7.566   8.279   4.466
13914WAT     H241985   7.471   8.169   4.540
13915WAT      O41986   8.486   3.448   0.749
13915WAT     H141987   8.497   3.366   0.805
13915WAT     H241988   8.553   3.447   0.674
13916WAT      O41989   1.561   7.308   3.522
13916WAT     H141990   1.559   7.385   3.586
13916WAT     H241991   1.649   7.307   3.473
13917WAT      O41992   6.168   0.450   4.234
13917WAT     H141993   6.164   0.374   4.169
13917WAT     H241994   6.076   0.485   4.251
13918WAT      O41995   5.521   7.006   4.190
13918WAT     H141996   5.604   7.060   4.207
13918WAT     H241997   5.442   7.052   4.231
13919WAT      O41998   3.855   1.148   7.879
13919WAT     H141999   3.894   1.182   7.964
13919WAT     H242000   3.782   1.082   7.899
13920WAT      O42001   3.472   7.802   8.248
13920WAT     H142002   3.446   7.764   8.159
13920WAT     H242003   3.458   7.901   8.247
13921WAT      O42004   5.655   8.420   9.436
13921WAT     H142005   5.744   8.465   9.421
13921WAT     H242006   5.619   8.389   9.349
13922WAT      O42007   8.442   5.906   6.225
13922WAT     H142008   8.506   5.829   6.235
13922WAT     H242009   8.353   5.879   6.262
13923WAT      O42010   3.286   1.130   8.127
13923WAT     H142011   3.374   1.151   8.084
13923WAT     H242012   3.257   1.038   8.100
13924WAT      O42013   8.765   3.702   3.388
13924WAT     H142014   8.835   3.638   3.358
13924WAT     H242015   8.808   3.785   3.423
13925WAT      O42016   2.474   4.663   8.535
13925WAT     H142017   2.564   4.623   8.553
13925WAT     H242018   2.423   4.670   8.621
13926WAT      O42019   8.153   5.345   3.293
13926WAT     H142020   8.243   5.366   3.254
13926WAT     H242021   8.164   5.315   3.387
13927WAT      O42022   5.731   1.557   1.060
13927WAT     H142023   5.685   1.486   1.114
13927WAT     H242024   5.752   1.522   0.969
13928WAT      O42025   2.522   6.150   3.074
13928WAT     H142026   2.595   6.085   3.052
13928WAT     H242027   2.484   6.187   2.989
13929WAT      O42028   3.015   7.511   9.487
13929WAT     H142029   3.087   7.528   9.554
13929WAT     H242030   3.027   7.571   9.408
13930WAT      O42031   0.795   4.021   2.789
13930WAT     H142032   0.877   3.971   2.815
13930WAT     H242033   0.778   4.095   2.854
13931WAT      O42034   9.440   7.192   1.657
13931WAT     H142035   9.354   7.233   1.627
13931WAT     H242036   9.451   7.103   1.612
13932WAT      O42037   7.259   1.719   1.654
13932WAT     H142038   7.249   1.701   1.557
13932WAT     H242039   7.177   1.764   1.689
13933WAT      O42040   4.821   2.623   2.595
13933WAT     H142041   4.802   2.621   2.694
13933WAT     H242042   4.773   2.701   2.554
13934WAT      O42043   1.556   4.897   9.492
13934WAT     H142044   1.597   4.970   9.438
13934WAT     H242045   1.625   4.826   9.509
13935WAT      O42046   6.148   7.807   4.738
13935WAT     H142047   6.242   7.825   4.768
13935WAT     H242048   6.084   7.846   4.805
13936WAT      O42049   9.666   7.085   3.921
13936WAT     H142050   9.612   7.066   3.840
13936WAT     H242051   9.630   7.167   3.966
13937WAT      O42052   8.489   4.462   0.774
13937WAT     H142053   8.440   4.538   0.732
13937WAT     H242054   8.467   4.457   0.871
13938WAT      O42055   4.596   5.476   5.699
13938WAT     H142056   4.576   5.444   5.792
13938WAT     H242057   4.642   5.404   5.648
13939WAT      O42058   5.468   5.813   7.851
13939WAT     H142059   5.535   5.887   7.853
13939WAT     H242060   5.514   5.728   7.823
13940WAT      O42061   4.165   9.119   7.029
13940WAT     H142062   4.214   9.068   6.958
13940WAT     H242063   4.088   9.168   6.988
13941WAT      O42064   4.209   7.630   2.692
13941WAT     H142065   4.146   7.641   2.615
13941WAT     H242066   4.290   7.579   2.662
13942WAT      O42067   6.633   3.181   4.861
13942WAT     H142068   6.637   3.209   4.957
13942WAT     H242069   6.720   3.139   4.835
13943WAT      O42070   7.998   8.198   1.386
13943WAT     H142071   8.026   8.275   1.443
13943WAT     H242072   7.905   8.212   1.352
13944WAT      O42073   6.503   7.367   8.259
13944WAT     H142074   6.479   7.293   8.321
13944WAT     H242075   6.599   7.390   8.270
13945WAT      O42076   5.909   2.040   5.582
13945WAT     H142077   5.977   2.068   5.650
13945WAT     H242078   5.949   2.043   5.491
13946WAT      O42079   7.971   1.722   2.382
13946WAT     H142080   7.988   1.624   2.381
13946WAT     H242081   7.873   1.740   2.375
13947WAT      O42082   5.595   5.842   7.028
13947WAT     H142083   5.629   5.749   7.045
13947WAT     H242084   5.496   5.844   7.040
13948WAT      O42085   1.507   1.443   7.180
13948WAT     H142086   1.525   1.526   7.232
13948WAT     H242087   1.408   1.430   7.171
13949WAT      O42088   9.346   5.029   2.437
13949WAT     H142089   9.349   5.023   2.537
13949WAT     H242090   9.430   5.073   2.405
13950WAT      O42091   7.953   7.251   3.506
13950WAT     H142092   7.917   7.186   3.574
13950WAT     H242093   8.013   7.317   3.552
13951WAT      O42094   5.796   1.844   7.871
13951WAT     H142095   5.712   1.897   7.859
13951WAT     H242096   5.875   1.905   7.865
13952WAT      O42097   7.436   1.687   7.925
13952WAT     H142098   7.456   1.696   8.023
13952WAT     H242099   7.520   1.694   7.873
13953WAT      O42100   5.543   1.238   7.693
13953WAT     H142101   5.537   1.174   7.770
13953WAT     H242102   5.486   1.204   7.617
13954WAT      O42103   2.922   0.029   9.530
13954WAT     H142104   2.870  -0.056   9.521
13954WAT     H242105   3.019   0.012   9.512
13955WAT      O42106   2.815   2.758   1.422
13955WAT     H142107   2.835   2.719   1.511
13955WAT     H242108   2.724   2.800   1.422
13956WAT      O42109   6.719   7.221   4.524
13956WAT     H142110   6.797   7.266   4.568
13956WAT     H242111   6.699   7.267   4.437
13957WAT      O42112   0.102   3.452   2.184
13957WAT     H142113   0.144   3.539   2.160
13957WAT     H242114   0.086   3.449   2.283
13958WAT      O42115   0.751   4.720   2.000
13958WAT     H142116   0.750   4.714   2.100
13958WAT     H242117   0.674   4.776   1.970
13959WAT      O42118   3.169   5.158   9.639
13959WAT     H142119   3.165   5.177   9.737
13959WAT     H242120   3.262   5.130   9.615
13960WAT      O42121   6.095   0.081   2.741
13960WAT     H142122   6.094   0.089   2.641
13960WAT     H242123   6.022   0.019   2.771
13961WAT      O42124   5.812   6.861   9.652
13961WAT     H142125   5.769   6.817   9.731
13961WAT     H242126   5.822   6.794   9.578
13962WAT      O42127   2.619   1.432   9.335
13962WAT     H142128   2.580   1.478   9.255
13962WAT     H242129   2.552   1.367   9.372
13963WAT      O42130   3.146   7.832   4.254
13963WAT     H142131   3.078   7.800   4.187
13963WAT     H242132   3.190   7.915   4.220
13964WAT      O42133   8.630   1.947   0.478
13964WAT     H142134   8.703   1.905   0.423
13964WAT     H242135   8.635   2.046   0.469
13965WAT      O42136   0.178   9.691   4.104
13965WAT     H142137   0.183   9.752   4.183
13965WAT     H242138   0.105   9.625   4.118
13966WAT      O42139   8.807   0.814   7.618
13966WAT     H142140   8.736   0.885   7.615
13966WAT     H242141   8.858   0.822   7.703
13967WAT      O42142   2.873   4.029   9.587
13967WAT     H142143   2.965   4.070   9.587
13967WAT     H242144   2.882   3.929   9.587
13968WAT      O42145   8.548   6.045   1.562
13968WAT     H142146   8.483   6.120   1.570
13968WAT     H242147   8.578   6.016   1.653
13969WAT      O42148   0.767   4.768   9.090
13969WAT     H142149   0.673   4.801   9.091
13969WAT     H242150   0.829   4.846   9.096
13970WAT      O42151   0.015   7.061   0.934
13970WAT     H142152   0.060   7.018   0.856
13970WAT     H242153  -0.080   7.081   0.910
13971WAT      O42154   7.630   6.659   1.331
13971WAT     H142155   7.602   6.728   1.264
13971WAT     H242156   7.595   6.684   1.421
13972WAT      O42157   3.808   2.039   3.612
13972WAT     H142158   3.872   1.971   3.576
13972WAT     H242159   3.801   2.115   3.548
13973WAT      O42160   4.426   9.717   5.504
13973WAT     H142161   4.394   9.718   5.598
13973WAT     H242162   4.383   9.641   5.455
13974WAT      O42163   7.644   3.041   7.582
13974WAT     H142164   7.744   3.043   7.573
13974WAT     H242165   7.614   2.948   7.603
13975WAT      O42166   0.187   8.547   8.791
13975WAT     H142167   0.201   8.619   8.723
13975WAT     H242168   0.194   8.458   8.747
13976WAT      O42169   5.741   2.915   4.191
13976WAT     H142170   5.693   2.995   4.154
13976WAT     H242171   5.833   2.911   4.154
13977WAT      O42172   3.996   8.461   5.416
13977WAT     H142173   4.070   8.526   5.399
13977WAT     H242174   3.945   8.490   5.497
13978WAT      O42175   7.720   9.442   0.423
13978WAT     H142176   7.696   9.367   0.484
13978WAT     H242177   7.764   9.515   0.476
13979WAT      O42178   0.636   7.445   5.923
13979WAT     H142179   0.704   7.383   5.883
13979WAT     H242180   0.612   7.517   5.858
13980WAT      O42181   2.622   3.465   4.676
13980WAT     H142182   2.711   3.464   4.631
13980WAT     H242183   2.580   3.374   4.668
13981WAT      O42184   2.722   4.086   3.594
13981WAT     H142185   2.652   4.157   3.608
13981WAT     H242186   2.751   4.051   3.683
13982WAT      O42187   7.169   2.119   3.041
13982WAT     H142188   7.085   2.066   3.029
13982WAT     H242189   7.206   2.143   2.951
13983WAT      O42190   9.330   1.426   0.169
13983WAT     H142191   9.409   1.448   0.227
13983WAT     H242192   9.352   1.448   0.074
13984WAT      O42193   7.758   2.189   7.014
13984WAT     H142194   7.742   2.279   6.974
13984WAT     H242195   7.729   2.190   7.110
13985WAT      O42196   9.567   2.548   0.843
13985WAT     H142197   9.572   2.473   0.908
13985WAT     H242198   9.504   2.618   0.877
13986WAT      O42199   4.525   5.017   1.276
13986WAT     H142200   4.574   5.105   1.278
13986WAT     H242201   4.541   4.968   1.361
13987WAT      O42202   5.479   0.504   5.234
13987WAT     H142203   5.437   0.500   5.325
13987WAT     H242204   5.448   0.426   5.180
13988WAT      O42205   7.346   1.871   5.562
13988WAT     H142206   7.390   1.810   5.495
13988WAT     H242207   7.405   1.879   5.643
13989WAT      O42208   2.897   6.641   9.764
13989WAT     H142209   2.901   6.644   9.664
13989WAT     H242210   2.921   6.730   9.801
13990WAT      O42211   7.253   2.385   0.306
13990WAT     H142212   7.319   2.380   0.382
13990WAT     H242213   7.230   2.480   0.288
13991WAT      O42214   9.404   8.965   2.675
13991WAT     H142215   9.370   8.972   2.581
13991WAT     H242216   9.353   8.893   2.723
13992WAT      O42217   2.022   0.732   7.076
13992WAT     H142218   1.939   0.727   7.132
13992WAT     H242219   2.050   0.640   7.050
13993WAT      O42220   5.116   6.381   3.826
13993WAT     H142221   5.151   6.400   3.918
13993WAT     H242222   5.152   6.293   3.794
13994WAT      O42223   0.537   3.893   6.652
13994WAT     H142224   0.528   3.866   6.556
13994WAT     H242225   0.633   3.913   6.672
13995WAT      O42226   1.301   8.386   2.650
13995WAT     H142227   1.283   8.418   2.743
13995WAT     H242228   1.214   8.372   2.603
13996WAT      O42229   6.580   7.833   0.800
13996WAT     H142230   6.637   7.853   0.721
13996WAT     H242231   6.501   7.778   0.771
13997WAT      O42232   3.922   2.784   4.473
13997WAT     H142233   4.008   2.823   4.505
13997WAT     H242234   3.904   2.815   4.380
13998WAT      O42235   8.540   9.402   9.284
13998WAT     H142236   8.581   9.317   9.317
13998WAT     H242237   8.458   9.423   9.337
13999WAT      O42238   6.952   6.963   8.091
13999WAT     H142239   7.020   6.996   8.025
13999WAT     H242240   6.994   6.958   8.181
14000WAT      O42241   4.027   3.418   9.251
14000WAT     H142242   4.046   3.325   9.283
14000WAT     H242243   3.997   3.475   9.327
14001WAT      O42244   0.671   8.669   5.730
14001WAT     H142245   0.629   8.701   5.815
14001WAT     H242246   0.600   8.632   5.670
14002WAT      O42247   8.190   1.697   6.023
14002WAT     H142248   8.211   1.794   6.008
14002WAT     H242249   8.261   1.641   5.980
14003WAT      O42250   8.560   9.609   5.088
14003WAT     H142251   8.633   9.570   5.145
14003WAT     H242252   8.545   9.704   5.115
14004WAT      O42253   3.200   9.692   2.034
14004WAT     H142254   3.183   9.664   1.939
14004WAT     H242255   3.283   9.749   2.037
14005WAT      O42256   2.891   9.649   5.033
14005WAT     H142257   2.990   9.662   5.037
14005WAT     H242258   2.845   9.739   5.033
14006WAT      O42259   8.832   0.612   2.288
14006WAT     H142260   8.738   0.642   2.305
14006WAT     H242261   8.857   0.542   2.355
14007WAT      O42262   1.939   6.180   5.199
14007WAT     H142263   1.904   6.209   5.289
14007WAT     H242264   1.951   6.081   5.198
14008WAT      O42265   3.432   4.951   4.742
14008WAT     H142266   3.420   5.041   4.783
14008WAT     H242267   3.358   4.891   4.771
14009WAT      O42268   4.994   6.803   1.916
14009WAT     H142269   4.902   6.833   1.890
14009WAT     H242270   5.052   6.799   1.834
14010WAT      O42271   4.145   6.141   3.815
14010WAT     H142272   4.147   6.165   3.912
14010WAT     H242273   4.186   6.214   3.761
14011WAT      O42274   7.172   9.634   6.199
14011WAT     H142275   7.258   9.678   6.224
14011WAT     H242276   7.150   9.563   6.266
14012WAT      O42277   6.597   9.582   6.577
14012WAT     H142278   6.621   9.489   6.549
14012WAT     H242279   6.649   9.606   6.659
14013WAT      O42280   2.286   1.654   0.793
14013WAT     H142281   2.302   1.753   0.794
14013WAT     H242282   2.333   1.612   0.870
14014WAT      O42283   5.841   0.676   8.234
14014WAT     H142284   5.872   0.738   8.162
14014WAT     H242285   5.876   0.584   8.216
14015WAT      O42286   1.193   0.089   6.827
14015WAT     H142287   1.281   0.099   6.780
14015WAT     H242288   1.208   0.046   6.916
14016WAT      O42289   2.465   2.435   7.064
14016WAT     H142290   2.391   2.369   7.049
14016WAT     H242291   2.465   2.463   7.160
14017WAT      O42292   3.918   0.239   1.974
14017WAT     H142293   3.847   0.297   1.933
14017WAT     H242294   3.953   0.176   1.905
14018WAT      O42295   5.312   6.737   7.891
14018WAT     H142296   5.336   6.703   7.982
14018WAT     H242297   5.327   6.665   7.824
14019WAT      O42298   3.221   3.350   3.336
14019WAT     H142299   3.121   3.351   3.336
14019WAT     H242300   3.254   3.318   3.425
14020WAT      O42301   6.151   7.083   3.039
14020WAT     H142302   6.113   7.079   3.131
14020WAT     H242303   6.177   6.992   3.009
14021WAT      O42304   8.265   1.477   6.682
14021WAT     H142305   8.290   1.438   6.593
14021WAT     H242306   8.329   1.444   6.752
14022WAT      O42307   7.718   5.608   8.869
14022WAT     H142308   7.670   5.526   8.900
14022WAT     H242309   7.725   5.674   8.944
14023WAT      O42310   6.657   6.623   2.763
14023WAT     H142311   6.744   6.672   2.752
14023WAT     H242312   6.637   6.573   2.679
14024WAT      O42313   1.146   5.163   0.423
14024WAT     H142314   1.221   5.147   0.360
14024WAT     H242315   1.179   5.153   0.517
14025WAT      O42316   4.112   3.830   1.669
14025WAT     H142317   4.072   3.738   1.672
14025WAT     H242318   4.209   3.823   1.647
14026WAT      O42319   7.296   7.256   1.586
14026WAT     H142320   7.287   7.355   1.580
14026WAT     H242321   7.369   7.225   1.524
14027WAT      O42322   7.836   3.451   0.630
14027WAT     H142323   7.811   3.364   0.588
14027WAT     H242324   7.815   3.526   0.568
14028WAT      O42325   5.547   7.670   3.376
14028WAT     H142326   5.641   7.696   3.353
14028WAT     H242327   5.540   7.655   3.474
14029WAT      O42328   9.478   9.624   5.256
14029WAT     H142329   9.458   9.704   5.312
14029WAT     H242330   9.578   9.614   5.246
14030WAT      O42331   0.353   1.677   8.256
14030WAT     H142332   0.382   1.661   8.350
14030WAT     H242333   0.255   1.696   8.254
14031WAT      O42334   6.986   7.711   3.072
14031WAT     H142335   7.051   7.646   3.034
14031WAT     H242336   7.022   7.749   3.157
14032WAT      O42337   8.879   1.095   2.709
14032WAT     H142338   8.909   1.138   2.794
14032WAT     H242339   8.878   1.163   2.635
14033WAT      O42340   7.997   8.576   1.769
14033WAT     H142341   7.912   8.606   1.726
14033WAT     H242342   7.977   8.513   1.844
14034WAT      O42343   3.283   6.963   9.788
14034WAT     H142344   3.198   6.909   9.791
14034WAT     H242345   3.328   6.960   9.877
14035WAT      O42346   8.155   6.307   4.177
14035WAT     H142347   8.203   6.395   4.169
14035WAT     H242348   8.062   6.317   4.142
14036WAT      O42349   8.208   6.759   5.646
14036WAT     H142350   8.129   6.749   5.585
14036WAT     H242351   8.187   6.718   5.735
14037WAT      O42352   8.192   9.521   1.083
14037WAT     H142353   8.229   9.445   1.030
14037WAT     H242354   8.115   9.562   1.034
14038WAT      O42355   7.415   0.080   3.356
14038WAT     H142356   7.475   0.092   3.435
14038WAT     H242357   7.369   0.167   3.336
14039WAT      O42358   6.689   3.909   0.513
14039WAT     H142359   6.654   3.821   0.479
14039WAT     H242360   6.777   3.894   0.559
14040WAT      O42361   4.536   0.194   2.628
14040WAT     H142362   4.606   0.206   2.557
14040WAT     H242363   4.565   0.237   2.713
14041WAT      O42364   0.081   2.440   6.017
14041WAT     H142365  -0.006   2.484   6.040
14041WAT     H242366   0.146   2.509   5.985
14042WAT      O42367   1.252   0.744   3.954
14042WAT     H142368   1.214   0.747   4.046
14042WAT     H242369   1.235   0.654   3.914
14043WAT      O42370   8.023   5.008   3.065
14043WAT     H142371   7.942   4.966   3.026
14043WAT     H242372   8.029   5.104   3.035
14044WAT      O42373   7.569   3.630   1.033
14044WAT     H142374   7.494   3.688   1.065
14044WAT     H242375   7.648   3.641   1.093
14045WAT      O42376   2.761   3.365   8.331
14045WAT     H142377   2.671   3.349   8.371
14045WAT     H242378   2.798   3.278   8.297
14046WAT      O42379   3.666   5.660   4.384
14046WAT     H142380   3.601   5.599   4.338
14046WAT     H242381   3.747   5.608   4.413
14047WAT      O42382   5.671   5.318   6.402
14047WAT     H142383   5.735   5.271   6.463
14047WAT     H242384   5.611   5.377   6.455
14048WAT      O42385   3.047   5.724   5.380
14048WAT     H142386   2.982   5.729   5.304
14048WAT     H242387   3.070   5.629   5.398
14049WAT      O42388   1.637   9.761   9.334
14049WAT     H142389   1.594   9.820   9.402
14049WAT     H242390   1.692   9.816   9.272
14050WAT      O42391   5.632   7.481   3.141
14050WAT     H142392   5.653   7.503   3.237
14050WAT     H242393   5.671   7.551   3.082
14051WAT      O42394   9.476   4.647   9.853
14051WAT     H142395   9.487   4.554   9.889
14051WAT     H242396   9.522   4.712   9.915
14052WAT      O42397   9.222   2.304   3.167
14052WAT     H142398   9.137   2.303   3.220
14052WAT     H242399   9.251   2.210   3.150
14053WAT      O42400   5.359   9.523   1.490
14053WAT     H142401   5.386   9.432   1.457
14053WAT     H242402   5.361   9.587   1.414
14054WAT      O42403   7.385   1.995   7.460
14054WAT     H142404   7.378   1.996   7.360
14054WAT     H242405   7.413   1.905   7.491
14055WAT      O42406   2.582   0.457   4.200
14055WAT     H142407   2.678   0.437   4.180
14055WAT     H242408   2.538   0.496   4.120
14056WAT      O42409   4.510   7.147   1.735
14056WAT     H142410   4.537   7.167   1.641
14056WAT     H242411   4.482   7.052   1.743
14057WAT      O42412   1.501   9.443   3.416
14057WAT     H142413   1.454   9.524   3.380
14057WAT     H242414   1.600   9.453   3.400
14058WAT      O42415   7.481   5.277   4.874
14058WAT     H142416   7.425   5.220   4.935
14058WAT     H242417   7.510   5.360   4.923
14059WAT      O42418   1.187   2.508   6.870
14059WAT     H142419   1.186   2.418   6.915
14059WAT     H242420   1.098   2.552   6.883
14060WAT      O42421   5.211   6.810   8.655
14060WAT     H142422   5.240   6.903   8.680
14060WAT     H242423   5.146   6.815   8.579
14061WAT      O42424   8.893   6.880   8.354
14061WAT     H142425   8.974   6.912   8.305
14061WAT     H242426   8.811   6.920   8.313
14062WAT      O42427   4.022   0.100   3.190
14062WAT     H142428   4.101   0.073   3.135
14062WAT     H242429   3.946   0.037   3.172
14063WAT      O42430   3.837   0.221   3.981
14063WAT     H142431   3.754   0.234   4.035
14063WAT     H242432   3.816   0.172   3.897
14064WAT      O42433   8.502   1.644   8.006
14064WAT     H142434   8.426   1.601   8.053
14064WAT     H242435   8.469   1.693   7.926
14065WAT      O42436   0.952   4.763   5.802
14065WAT     H142437   0.950   4.863   5.791
14065WAT     H242438   0.949   4.741   5.899
14066WAT      O42439   2.718   1.426   7.311
14066WAT     H142440   2.637   1.427   7.251
14066WAT     H242441   2.792   1.377   7.265
14067WAT      O42442   8.381   0.331   8.635
14067WAT     H142443   8.351   0.324   8.539
14067WAT     H242444   8.431   0.249   8.660
14068WAT      O42445   2.385   6.009   6.864
14068WAT     H142446   2.398   6.009   6.963
14068WAT     H242447   2.403   6.101   6.828
14069WAT      O42448   8.858   5.952   7.160
14069WAT     H142449   8.912   5.870   7.178
14069WAT     H242450   8.854   5.968   7.061
14070WAT      O42451   9.406   6.982   8.090
14070WAT     H142452   9.392   6.883   8.100
14070WAT     H242453   9.501   7.005   8.108
14071WAT      O42454   9.107   9.413   4.137
14071WAT     H142455   9.136   9.322   4.166
14071WAT     H242456   9.155   9.482   4.192
14072WAT      O42457   6.309   7.633   8.107
14072WAT     H142458   6.402   7.659   8.082
14072WAT     H242459   6.289   7.541   8.072
14073WAT      O42460   8.366   1.039   8.267
14073WAT     H142461   8.270   1.044   8.295
14073WAT     H242462   8.389   0.944   8.246
14074WAT      O42463   9.396   7.863   3.057
14074WAT     H142464   9.434   7.948   3.095
14074WAT     H242465   9.311   7.883   3.010
14075WAT      O42466   7.119   3.654   6.828
14075WAT     H142467   7.023   3.679   6.836
14075WAT     H242468   7.153   3.621   6.917
14076WAT      O42469   8.776   5.207   2.474
14076WAT     H142470   8.801   5.162   2.389
14076WAT     H242471   8.750   5.138   2.542
14077WAT      O42472   2.907   2.736   9.268
14077WAT     H142473   2.915   2.813   9.205
14077WAT     H242474   2.940   2.763   9.358
14078WAT      O42475   1.697   1.102   2.944
14078WAT     H142476   1.614   1.089   2.998
14078WAT     H242477   1.687   1.183   2.886
14079WAT      O42478   0.758   2.685   1.077
14079WAT     H142479   0.835   2.622   1.083
14079WAT     H242480   0.723   2.687   0.983
14080WAT      O42481   4.202   5.022   4.591
14080WAT     H142482   4.264   5.069   4.654
14080WAT     H242483   4.109   5.024   4.627
14081WAT      O42484   1.771   1.081   3.688
14081WAT     H142485   1.833   1.156   3.665
14081WAT     H242486   1.680   1.101   3.651
14082WAT      O42487   2.402   8.308   1.217
14082WAT     H142488   2.321   8.292   1.160
14082WAT     H242489   2.464   8.230   1.209
14083WAT      O42490   9.762   7.708   7.428
14083WAT     H142491   9.720   7.664   7.507
14083WAT     H242492   9.851   7.665   7.409
14084WAT      O42493   9.747   6.273   5.430
14084WAT     H142494   9.656   6.314   5.436
14084WAT     H242495   9.780   6.252   5.522
14085WAT      O42496   2.798   6.234   5.864
14085WAT     H142497   2.852   6.316   5.845
14085WAT     H242498   2.716   6.259   5.915
14086WAT      O42499   6.100   8.306   5.938
14086WAT     H142500   6.149   8.317   5.852
14086WAT     H242501   6.148   8.354   6.011
14087WAT      O42502   6.664   1.707   5.026
14087WAT     H142503   6.579   1.655   5.017
14087WAT     H242504   6.734   1.650   5.069
14088WAT      O42505   7.661   8.396   6.494
14088WAT     H142506   7.746   8.429   6.535
14088WAT     H242507   7.605   8.350   6.563
14089WAT      O42508   8.658   3.369   7.555
14089WAT     H142509   8.627   3.459   7.527
14089WAT     H242510   8.707   3.376   7.642
14090WAT      O42511   2.926   5.608   8.881
14090WAT     H142512   2.983   5.581   8.959
14090WAT     H242513   2.919   5.531   8.817
14091WAT      O42514   1.377   5.877   3.882
14091WAT     H142515   1.410   5.921   3.799
14091WAT     H242516   1.449   5.819   3.920
14092WAT      O42517   9.165   7.203   8.032
14092WAT     H142518   9.258   7.224   8.064
14092WAT     H242519   9.121   7.287   8.001
14093WAT      O42520   4.999   1.096   2.968
14093WAT     H142521   5.000   1.060   2.875
14093WAT     H242522   4.957   1.187   2.967
14094WAT      O42523   1.300   9.387   6.106
14094WAT     H142524   1.342   9.463   6.055
14094WAT     H242525   1.221   9.421   6.156
14095WAT      O42526   2.084   1.889   6.372
14095WAT     H142527   2.085   1.989   6.366
14095WAT     H242528   2.029   1.861   6.450
14096WAT      O42529   0.877   6.160   9.784
14096WAT     H142530   0.823   6.126   9.707
14096WAT     H242531   0.974   6.146   9.766
14097WAT      O42532   8.094   9.233   2.979
14097WAT     H142533   8.093   9.136   2.954
14097WAT     H242534   8.179   9.254   3.027
14098WAT      O42535   8.655   5.825   8.155
14098WAT     H142536   8.699   5.797   8.070
14098WAT     H242537   8.680   5.761   8.228
14099WAT      O42538   3.333   5.872   2.411
14099WAT     H142539   3.290   5.952   2.369
14099WAT     H242540   3.422   5.856   2.368
14100WAT      O42541   6.991   5.694   1.885
14100WAT     H142542   6.921   5.634   1.847
14100WAT     H242543   7.056   5.641   1.938
14101WAT      O42544   2.593   0.111   5.785
14101WAT     H142545   2.602   0.077   5.878
14101WAT     H242546   2.497   0.134   5.767
14102WAT      O42547   8.114   5.102   3.968
14102WAT     H142548   8.047   5.034   3.999
14102WAT     H242549   8.204   5.059   3.963
14103WAT      O42550   7.947   8.032   5.078
14103WAT     H142551   7.951   8.044   4.979
14103WAT     H242552   8.013   8.093   5.122
14104WAT      O42553   4.224   3.300   3.682
14104WAT     H142554   4.237   3.391   3.644
14104WAT     H242555   4.302   3.242   3.659
14105WAT      O42556   5.035   6.189   1.710
14105WAT     H142557   5.029   6.210   1.808
14105WAT     H242558   5.115   6.132   1.693
14106WAT      O42559   4.738   5.498   8.589
14106WAT     H142560   4.768   5.464   8.677
14106WAT     H242561   4.690   5.585   8.601
14107WAT      O42562   2.334   4.906   1.556
14107WAT     H142563   2.429   4.899   1.588
14107WAT     H242564   2.275   4.930   1.632
14108WAT      O42565   8.807   6.285   9.327
14108WAT     H142566   8.792   6.257   9.422
14108WAT     H242567   8.815   6.203   9.269
14109WAT      O42568   2.880   6.360   6.330
14109WAT     H142569   2.908   6.321   6.417
14109WAT     H242570   2.799   6.312   6.296
14110WAT      O42571   7.904   7.509   8.824
14110WAT     H142572   7.969   7.443   8.860
14110WAT     H242573   7.937   7.545   8.737
14111WAT      O42574   1.572   1.865   5.495
14111WAT     H142575   1.541   1.771   5.482
14111WAT     H242576   1.555   1.918   5.412
14112WAT      O42577   8.471   2.741   2.368
14112WAT     H142578   8.460   2.642   2.356
14112WAT     H242579   8.400   2.789   2.317
14113WAT      O42580   5.124   7.391   7.709
14113WAT     H142581   5.155   7.309   7.758
14113WAT     H242582   5.175   7.470   7.742
14114WAT      O42583   4.982   9.567   6.442
14114WAT     H142584   5.076   9.599   6.426
14114WAT     H242585   4.978   9.468   6.428
14115WAT      O42586   5.147   1.221   4.064
14115WAT     H142587   5.194   1.145   4.109
14115WAT     H242588   5.083   1.263   4.128
14116WAT      O42589   7.027   4.036   4.581
14116WAT     H142590   6.985   4.107   4.637
14116WAT     H242591   6.983   4.034   4.491
14117WAT      O42592   2.785   4.834   4.228
14117WAT     H142593   2.708   4.795   4.278
14117WAT     H242594   2.847   4.760   4.201
14118WAT      O42595   8.842   3.513   8.013
14118WAT     H142596   8.896   3.481   8.092
14118WAT     H242597   8.750   3.536   8.043
14119WAT      O42598   6.468   1.578   7.114
14119WAT     H142599   6.554   1.529   7.102
14119WAT     H242600   6.471   1.632   7.199
14120WAT      O42601   3.878   7.432   6.535
14120WAT     H142602   3.943   7.476   6.597
14120WAT     H242603   3.927   7.391   6.459
14121WAT      O42604   2.707   3.127   5.033
14121WAT     H142605   2.710   3.227   5.041
14121WAT     H242606   2.694   3.086   5.123
14122WAT      O42607   9.773   8.412   9.571
14122WAT     H142608   9.804   8.492   9.520
14122WAT     H242609   9.771   8.434   9.669
14123WAT      O42610   9.213   4.493   3.403
14123WAT     H142611   9.177   4.586   3.396
14123WAT     H242612   9.249   4.478   3.495
14124WAT      O42613   4.001   6.080   6.991
14124WAT     H142614   4.000   6.167   7.041
14124WAT     H242615   4.048   6.011   7.045
14125WAT      O42616   5.811   6.813   5.458
14125WAT     H142617   5.713   6.794   5.449
14125WAT     H242618   5.848   6.758   5.533
14126WAT      O42619   1.480   8.377   6.288
14126WAT     H142620   1.394   8.339   6.323
14126WAT     H242621   1.488   8.356   6.190
14127WAT      O42622   9.447   0.624   6.347
14127WAT     H142623   9.540   0.613   6.382
14127WAT     H242624   9.445   0.603   6.250
14128WAT      O42625   5.507   6.860   8.932
14128WAT     H142626   5.420   6.898   8.960
14128WAT     H242627   5.504   6.761   8.937
14129WAT      O42628   5.525   7.287   3.766
14129WAT     H142629   5.456   7.221   3.796
14129WAT     H242630   5.604   7.284   3.828
14130WAT      O42631   4.739   3.682   0.722
14130WAT     H142632   4.768   3.776   0.701
14130WAT     H242633   4.796   3.618   0.671
14131WAT      O42634   8.616   4.960   7.643
14131WAT     H142635   8.530   4.910   7.651
14131WAT     H242636   8.598   5.052   7.608
14132WAT      O42637   2.698   1.499   4.458
14132WAT     H142638   2.678   1.549   4.374
14132WAT     H242639   2.725   1.405   4.435
14133WAT      O42640   4.340   0.313   3.841
14133WAT     H142641   4.343   0.250   3.763
14133WAT     H242642   4.371   0.266   3.923
14134WAT      O42643   6.360   4.914   7.219
14134WAT     H142644   6.323   4.923   7.311
14134WAT     H242645   6.363   5.003   7.175
14135WAT      O42646   1.521   9.806   0.795
14135WAT     H142647   1.502   9.726   0.852
14135WAT     H242648   1.560   9.777   0.708
14136WAT      O42649   7.232   7.887   6.583
14136WAT     H142650   7.211   7.853   6.675
14136WAT     H242651   7.239   7.810   6.520
14137WAT      O42652   1.257   0.238   5.509
14137WAT     H142653   1.315   0.157   5.513
14137WAT     H242654   1.313   0.319   5.528
14138WAT      O42655   0.372   8.793   7.750
14138WAT     H142656   0.424   8.863   7.800
14138WAT     H242657   0.326   8.733   7.815
14139WAT      O42658   1.235   8.188   8.683
14139WAT     H142659   1.160   8.249   8.661
14139WAT     H242660   1.218   8.143   8.771
14140WAT      O42661   1.377   1.532   5.099
14140WAT     H142662   1.280   1.509   5.093
14140WAT     H242663   1.389   1.629   5.075
14141WAT      O42664   1.057   2.081   3.193
14141WAT     H142665   1.131   2.130   3.147
14141WAT     H242666   1.094   2.025   3.266
14142WAT      O42667   1.946   3.659   1.601
14142WAT     H142668   1.902   3.569   1.602
14142WAT     H242669   2.024   3.659   1.663
14143WAT      O42670   8.003   3.439   8.209
14143WAT     H142671   8.024   3.508   8.140
14143WAT     H242672   7.954   3.481   8.285
14144WAT      O42673   7.954   7.032   5.659
14144WAT     H142674   7.976   6.945   5.615
14144WAT     H242675   8.038   7.084   5.675
14145WAT      O42676   2.160   6.173   8.794
14145WAT     H142677   2.144   6.129   8.706
14145WAT     H242678   2.221   6.252   8.782
14146WAT      O42679   5.762   4.554   5.744
14146WAT     H142680   5.784   4.645   5.780
14146WAT     H242681   5.701   4.507   5.807
14147WAT      O42682   4.077   7.239   4.305
14147WAT     H142683   4.045   7.155   4.261
14147WAT     H242684   4.008   7.271   4.370
14148WAT      O42685   3.181   7.932   0.727
14148WAT     H142686   3.230   8.017   0.706
14148WAT     H242687   3.193   7.868   0.651
14149WAT      O42688   1.594   4.875   0.452
14149WAT     H142689   1.516   4.874   0.390
14149WAT     H242690   1.570   4.830   0.537
14150WAT      O42691   2.768   5.924   1.389
14150WAT     H142692   2.803   5.949   1.480
14150WAT     H242693   2.843   5.925   1.323
14151WAT      O42694   8.691   3.155   8.381
14151WAT     H142695   8.651   3.220   8.316
14151WAT     H242696   8.685   3.193   8.473
14152WAT      O42697   2.000   2.427   9.195
14152WAT     H142698   2.005   2.331   9.223
14152WAT     H242699   2.050   2.439   9.109
14153WAT      O42700   3.247   3.126   2.335
14153WAT     H142701   3.288   3.099   2.422
14153WAT     H242702   3.256   3.051   2.269
14154WAT      O42703   2.649   4.904   7.274
14154WAT     H142704   2.650   4.981   7.338
14154WAT     H242705   2.556   4.891   7.239
14155WAT      O42706   8.652   4.215   0.123
14155WAT     H142707   8.574   4.270   0.093
14155WAT     H242708   8.684   4.248   0.212
14156WAT      O42709   1.109   2.505   8.482
14156WAT     H142710   1.088   2.411   8.456
14156WAT     H242711   1.111   2.563   8.400
14157WAT      O42712   7.548   0.434   4.316
14157WAT     H142713   7.476   0.366   4.304
14157WAT     H242714   7.638   0.390   4.308
14158WAT      O42715   6.518   0.065   3.269
14158WAT     H142716   6.580  -0.009   3.245
14158WAT     H242717   6.533   0.143   3.208
14159WAT      O42718   8.408   7.344   5.825
14159WAT     H142719   8.327   7.333   5.767
14159WAT     H242720   8.378   7.355   5.920
14160WAT      O42721   3.045   6.054   0.037
14160WAT     H142722   3.040   6.028   0.133
14160WAT     H242723   3.097   6.139   0.028
14161WAT      O42724   0.246   9.775   1.535
14161WAT     H142725   0.194   9.705   1.585
14161WAT     H242726   0.261   9.854   1.595
14162WAT      O42727   3.472   1.221   0.550
14162WAT     H142728   3.535   1.207   0.626
14162WAT     H242729   3.414   1.301   0.569
14163WAT      O42730   5.802   4.311   6.200
14163WAT     H142731   5.873   4.248   6.231
14163WAT     H242732   5.773   4.286   6.108
14164WAT      O42733   1.286   1.946   8.687
14164WAT     H142734   1.300   2.045   8.684
14164WAT     H242735   1.256   1.913   8.598
14165WAT      O42736   9.450   7.157   9.486
14165WAT     H142737   9.518   7.199   9.547
14165WAT     H242738   9.498   7.103   9.417
14166WAT      O42739   5.608   8.175   3.772
14166WAT     H142740   5.517   8.217   3.764
14166WAT     H242741   5.603   8.079   3.745
14167WAT      O42742   9.565   3.772   0.181
14167WAT     H142743   9.471   3.745   0.160
14167WAT     H242744   9.589   3.852   0.126
14168WAT      O42745   0.057   4.209   2.301
14168WAT     H142746  -0.028   4.162   2.277
14168WAT     H242747   0.073   4.285   2.237
14169WAT      O42748   3.361   1.143   6.108
14169WAT     H142749   3.319   1.169   6.195
14169WAT     H242750   3.316   1.062   6.071
14170WAT      O42751   7.489   9.022   8.651
14170WAT     H142752   7.474   8.924   8.656
14170WAT     H242753   7.550   9.051   8.725
14171WAT      O42754   6.788   8.338   7.388
14171WAT     H142755   6.865   8.288   7.428
14171WAT     H242756   6.823   8.418   7.338
14172WAT      O42757   9.031   8.849   9.275
14172WAT     H142758   9.096   8.913   9.234
14172WAT     H242759   9.080   8.772   9.316
14173WAT      O42760   8.086   6.609   7.924
14173WAT     H142761   8.085   6.631   8.021
14173WAT     H242762   8.009   6.550   7.902
14174WAT      O42763   6.780   2.397   9.780
14174WAT     H142764   6.748   2.458   9.708
14174WAT     H242765   6.707   2.382   9.847
14175WAT      O42766   6.388   0.651   7.695
14175WAT     H142767   6.370   0.594   7.615
14175WAT     H242768   6.473   0.702   7.682
14176WAT      O42769   3.469   4.557   0.536
14176WAT     H142770   3.527   4.520   0.463
14176WAT     H242771   3.382   4.507   0.538
14177WAT      O42772   3.851   0.551   0.649
14177WAT     H142773   3.869   0.520   0.556
14177WAT     H242774   3.890   0.486   0.714
14178WAT      O42775   6.217   7.719   0.034
14178WAT     H142776   6.119   7.730   0.046
14178WAT     H242777   6.264   7.803   0.061
14179WAT      O42778   0.400   4.740   7.358
14179WAT     H142779   0.364   4.738   7.451
14179WAT     H242780   0.376   4.655   7.311
14180WAT      O42781   2.569   3.305   5.327
14180WAT     H142782   2.582   3.280   5.423
14180WAT     H242783   2.498   3.375   5.320
14181WAT      O42784   2.924   6.332   6.613
14181WAT     H142785   2.925   6.239   6.650
14181WAT     H242786   3.018   6.366   6.607
14182WAT      O42787   0.710   6.226   8.170
14182WAT     H142788   0.797   6.257   8.132
14182WAT     H242789   0.671   6.155   8.112
14183WAT      O42790   6.478   6.256   3.665
14183WAT     H142791   6.518   6.184   3.608
14183WAT     H242792   6.442   6.216   3.749
14184WAT      O42793   1.239   3.302   6.646
14184WAT     H142794   1.184   3.360   6.585
14184WAT     H242795   1.272   3.222   6.596
14185WAT      O42796   1.092   1.188   8.881
14185WAT     H142797   1.091   1.183   8.781
14185WAT     H242798   1.013   1.138   8.917
14186WAT      O42799   1.089   9.395   6.647
14186WAT     H142800   1.001   9.439   6.665
14186WAT     H242801   1.158   9.432   6.708
14187WAT      O42802   1.134   3.143   5.829
14187WAT     H142803   1.086   3.194   5.900
14187WAT     H242804   1.154   3.203   5.752
14188WAT      O42805   3.168   0.965   2.522
14188WAT     H142806   3.250   1.014   2.493
14188WAT     H242807   3.098   1.030   2.551
14189WAT      O42808   7.317   8.442   0.700
14189WAT     H142809   7.281   8.487   0.618
14189WAT     H242810   7.403   8.487   0.727
14190WAT      O42811   2.284   2.775   6.839
14190WAT     H142812   2.240   2.792   6.750
14190WAT     H242813   2.348   2.699   6.830
14191WAT      O42814   8.776   3.705   9.308
14191WAT     H142815   8.872   3.693   9.335
14191WAT     H242816   8.718   3.658   9.375
14192WAT      O42817   4.664   4.857   0.480
14192WAT     H142818   4.627   4.835   0.390
14192WAT     H242819   4.660   4.956   0.494
14193WAT      O42820   5.286   1.541   7.079
14193WAT     H142821   5.342   1.483   7.019
14193WAT     H242822   5.244   1.484   7.150
14194WAT      O42823   1.432   2.066   0.611
14194WAT     H142824   1.432   2.030   0.518
14194WAT     H242825   1.361   2.020   0.665
14195WAT      O42826   3.024   9.023   0.695
14195WAT     H142827   3.118   9.030   0.729
14195WAT     H242828   2.986   8.934   0.720
14196WAT      O42829   3.886   3.429   2.160
14196WAT     H142830   3.960   3.397   2.102
14196WAT     H242831   3.801   3.384   2.134
14197WAT      O42832   3.982   6.095   7.767
14197WAT     H142833   4.065   6.053   7.804
14197WAT     H242834   4.003   6.140   7.680
14198WAT      O42835   0.411   5.817   2.994
14198WAT     H142836   0.437   5.731   3.037
14198WAT     H242837   0.417   5.891   3.061
14199WAT      O42838   0.660   8.712   0.120
14199WAT     H142839   0.618   8.793   0.079
14199WAT     H242840   0.685   8.648   0.048
14200WAT      O42841   4.269   7.640   9.594
14200WAT     H142842   4.253   7.549   9.556
14200WAT     H242843   4.206   7.705   9.552
14201WAT      O42844   2.752   8.440   3.678
14201WAT     H142845   2.824   8.370   3.689
14201WAT     H242846   2.777   8.500   3.602
14202WAT      O42847   4.336   0.170   4.094
14202WAT     H142848   4.343   0.232   4.173
14202WAT     H242849   4.251   0.117   4.101
14203WAT      O42850   1.945   0.123   6.609
14203WAT     H142851   1.919   0.219   6.598
14203WAT     H242852   1.876   0.066   6.565
14204WAT      O42853   8.874   4.464   1.542
14204WAT     H142854   8.933   4.542   1.562
14204WAT     H242855   8.779   4.487   1.562
14205WAT      O42856   7.051   0.087   7.464
14205WAT     H142857   6.983   0.116   7.397
14205WAT     H242858   7.020   0.002   7.508
14206WAT      O42859   2.388   9.663   0.218
14206WAT     H142860   2.482   9.695   0.231
14206WAT     H242861   2.387   9.584   0.158
14207WAT      O42862   1.242   6.751   9.286
14207WAT     H142863   1.264   6.848   9.275
14207WAT     H242864   1.323   6.702   9.318
14208WAT      O42865   3.265   0.318   3.461
14208WAT     H142866   3.352   0.324   3.510
14208WAT     H242867   3.270   0.373   3.377
14209WAT      O42868   3.177   3.887   0.468
14209WAT     H142869   3.238   3.808   0.461
14209WAT     H242870   3.228   3.970   0.449
14210WAT      O42871   9.758   8.081   6.357
14210WAT     H142872   9.842   8.050   6.312
14210WAT     H242873   9.679   8.049   6.305
14211WAT      O42874   4.861   1.442   4.914
14211WAT     H142875   4.863   1.537   4.882
14211WAT     H242876   4.935   1.391   4.871
14212WAT      O42877   7.106   6.903   6.982
14212WAT     H142878   7.101   6.989   7.033
14212WAT     H242879   7.201   6.877   6.968
14213WAT      O42880   7.922   7.871   4.171
14213WAT     H142881   7.936   7.785   4.220
14213WAT     H242882   7.961   7.863   4.080
14214WAT      O42883   4.919   9.783   0.480
14214WAT     H142884   4.861   9.702   0.497
14214WAT     H242885   4.872   9.844   0.417
14215WAT      O42886   5.820   9.644   3.556
14215WAT     H142887   5.825   9.546   3.574
14215WAT     H242888   5.726   9.676   3.573
14216WAT      O42889   2.689   0.859   6.985
14216WAT     H142890   2.745   0.785   6.947
14216WAT     H242891   2.714   0.945   6.940
14217WAT      O42892   0.627   5.125   5.999
14217WAT     H142893   0.586   5.175   5.923
14217WAT     H242894   0.723   5.153   6.009
14218WAT      O42895   6.152   0.078   1.411
14218WAT     H142896   6.118   0.010   1.346
14218WAT     H242897   6.093   0.080   1.492
14219WAT      O42898   3.097   3.342   5.449
14219WAT     H142899   3.087   3.346   5.349
14219WAT     H242900   3.092   3.246   5.479
14220WAT      O42901   0.895   1.588   0.559
14220WAT     H142902   0.952   1.519   0.515
14220WAT     H242903   0.798   1.563   0.548
14221WAT      O42904   4.402   0.243   6.748
14221WAT     H142905   4.418   0.243   6.847
14221WAT     H242906   4.312   0.204   6.729
14222WAT      O42907   2.912   7.773   0.700
14222WAT     H142908   2.878   7.853   0.749
14222WAT     H242909   2.925   7.795   0.603
14223WAT      O42910   2.971   8.460   5.764
14223WAT     H142911   2.949   8.556   5.778
14223WAT     H242912   3.050   8.452   5.704
14224WAT      O42913   3.417   8.421   0.051
14224WAT     H142914   3.471   8.493   0.095
14224WAT     H242915   3.374   8.457  -0.032
14225WAT      O42916   6.469   3.183   9.816
14225WAT     H142917   6.461   3.280   9.840
14225WAT     H242918   6.546   3.143   9.864
14226WAT      O42919   3.360   1.794   2.500
14226WAT     H142920   3.390   1.866   2.438
14226WAT     H242921   3.394   1.813   2.592
14227WAT      O42922   7.209   4.232   8.075
14227WAT     H142923   7.183   4.313   8.127
14227WAT     H242924   7.299   4.201   8.104
14228WAT      O42925   5.396   9.174   0.508
14228WAT     H142926   5.404   9.128   0.420
14228WAT     H242927   5.482   9.163   0.559
14229WAT      O42928   8.600   0.848   9.390
14229WAT     H142929   8.503   0.867   9.377
14229WAT     H242930   8.654   0.902   9.325
14230WAT      O42931   9.280   7.550   7.180
14230WAT     H142932   9.342   7.527   7.105
14230WAT     H242933   9.320   7.623   7.235
14231WAT      O42934   9.631   3.890   7.243
14231WAT     H142935   9.579   3.881   7.328
14231WAT     H242936   9.594   3.965   7.189
14232WAT      O42937   2.119   4.675   1.923
14232WAT     H142938   2.090   4.757   1.874
14232WAT     H242939   2.039   4.630   1.962
14233WAT      O42940   8.803   1.961   0.118
14233WAT     H142941   8.751   1.880   0.146
14233WAT     H242942   8.840   2.006   0.199
14234WAT      O42943   7.481   7.057   9.239
14234WAT     H142944   7.400   7.115   9.249
14234WAT     H242945   7.523   7.075   9.150
14235WAT      O42946   4.622   8.699   5.252
14235WAT     H142947   4.605   8.755   5.171
14235WAT     H242948   4.547   8.635   5.266
14236WAT      O42949   5.317   4.101   8.217
14236WAT     H142950   5.402   4.136   8.177
14236WAT     H242951   5.327   4.004   8.237
14237WAT      O42952   0.003   0.447   6.144
14237WAT     H142953   0.097   0.414   6.138
14237WAT     H242954  -0.057   0.388   6.090
14238WAT      O42955   6.249   3.464   6.848
14238WAT     H142956   6.235   3.426   6.757
14238WAT     H242957   6.162   3.499   6.883
14239WAT      O42958   3.135   6.422   8.356
14239WAT     H142959   3.169   6.443   8.447
14239WAT     H242960   3.077   6.496   8.324
14240WAT      O42961   8.792   0.038   7.781
14240WAT     H142962   8.791  -0.061   7.787
14240WAT     H242963   8.699   0.073   7.785
14241WAT      O42964   8.916   6.968   7.694
14241WAT     H142965   8.945   7.063   7.705
14241WAT     H242966   8.944   6.934   7.605
14242WAT      O42967   1.960   1.890   3.261
14242WAT     H142968   2.009   1.803   3.262
14242WAT     H242969   1.963   1.931   3.353
14243WAT      O42970   9.390   8.424   3.116
14243WAT     H142971   9.397   8.521   3.097
14243WAT     H242972   9.477   8.390   3.151
14244WAT      O42973   6.590   2.564   0.741
14244WAT     H142974   6.566   2.660   0.752
14244WAT     H242975   6.679   2.556   0.697
14245WAT      O42976   2.404   9.206   4.094
14245WAT     H142977   2.403   9.303   4.074
14245WAT     H242978   2.313   9.175   4.120
14246WAT      O42979   9.344   6.032   1.869
14246WAT     H142980   9.291   6.060   1.789
14246WAT     H242981   9.431   6.081   1.871
14247WAT      O42982   5.681   1.091   7.019
14247WAT     H142983   5.587   1.062   7.001
14247WAT     H242984   5.723   1.122   6.933
14248WAT      O42985   0.337   2.016   1.690
14248WAT     H142986   0.357   2.114   1.699
14248WAT     H242987   0.310   1.996   1.596
14249WAT      O42988   7.559   1.690   0.181
14249WAT     H142989   7.518   1.782   0.180
14249WAT     H242990   7.523   1.640   0.260
14250WAT      O42991   3.208   4.168   4.216
14250WAT     H142992   3.280   4.237   4.228
14250WAT     H242993   3.177   4.167   4.121
14251WAT      O42994   9.050   7.311   6.287
14251WAT     H142995   9.053   7.396   6.236
14251WAT     H242996   9.084   7.236   6.231
14252WAT      O42997   9.634   0.531   9.679
14252WAT     H142998   9.725   0.549   9.643
14252WAT     H242999   9.641   0.497   9.773
14253WAT      O43000   4.491   7.557   2.293
14253WAT     H143001   4.431   7.590   2.220
14253WAT     H243002   4.586   7.568   2.266
14254WAT      O43003   4.261   3.073   1.861
14254WAT     H143004   4.260   3.042   1.766
14254WAT     H243005   4.352   3.056   1.900
14255WAT      O43006   9.776   4.351   6.457
14255WAT     H143007   9.871   4.362   6.427
14255WAT     H243008   9.774   4.308   6.547
14256WAT      O43009   7.120   0.851   2.208
14256WAT     H143010   7.030   0.830   2.169
14256WAT     H243011   7.173   0.767   2.218
14257WAT      O43012   2.861   8.670   6.479
14257WAT     H143013   2.828   8.642   6.389
14257WAT     H243014   2.832   8.764   6.497
14258WAT      O43015   2.926   7.928   7.113
14258WAT     H143016   3.006   7.988   7.119
14258WAT     H243017   2.908   7.905   7.018
14259WAT      O43018   1.128   3.779   3.542
14259WAT     H143019   1.064   3.831   3.599
14259WAT     H243020   1.120   3.809   3.447
14260WAT      O43021   5.290   1.456   7.445
14260WAT     H143022   5.383   1.419   7.442
14260WAT     H243023   5.237   1.420   7.369
14261WAT      O43024   9.851   0.378   2.823
14261WAT     H143025   9.928   0.439   2.803
14261WAT     H243026   9.880   0.307   2.886
14262WAT      O43027   8.237   3.182   8.511
14262WAT     H143028   8.222   3.118   8.436
14262WAT     H243029   8.267   3.132   8.592
14263WAT      O43030   8.030   4.834   1.479
14263WAT     H143031   8.062   4.825   1.574
14263WAT     H243032   8.024   4.931   1.455
14264WAT      O43033   5.568   4.506   1.542
14264WAT     H143034   5.591   4.491   1.446
14264WAT     H243035   5.613   4.437   1.598
14265WAT      O43036   8.412   7.514   2.358
14265WAT     H143037   8.341   7.507   2.428
14265WAT     H243038   8.486   7.451   2.379
14266WAT      O43039   3.889   1.853   0.208
14266WAT     H143040   3.925   1.774   0.256
14266WAT     H243041   3.805   1.828   0.160
14267WAT      O43042   2.036   3.076   6.006
14267WAT     H143043   1.951   3.077   6.059
14267WAT     H243044   2.089   3.158   6.026
14268WAT      O43045   4.856   3.801   6.079
14268WAT     H143046   4.910   3.846   6.150
14268WAT     H243047   4.830   3.710   6.109
14269WAT      O43048   7.296   3.000   8.087
14269WAT     H143049   7.339   3.028   8.001
14269WAT     H243050   7.305   2.902   8.099
14270WAT      O43051   6.532   8.049   5.080
14270WAT     H143052   6.441   8.030   5.042
14270WAT     H243053   6.522   8.077   5.176
14271WAT      O43054   6.479   7.375   6.306
14271WAT     H143055   6.546   7.405   6.374
14271WAT     H243056   6.417   7.309   6.349
14272WAT      O43057   7.226   7.440   4.369
14272WAT     H143058   7.174   7.509   4.318
14272WAT     H243059   7.192   7.437   4.463
14273WAT      O43060   5.675   0.567   2.103
14273WAT     H143061   5.706   0.503   2.032
14273WAT     H243062   5.737   0.562   2.181
14274WAT      O43063   7.030   0.965   5.676
14274WAT     H143064   7.054   0.922   5.763
14274WAT     H243065   6.959   1.034   5.692
14275WAT      O43066   1.583   2.962   4.260
14275WAT     H143067   1.624   3.053   4.249
14275WAT     H243068   1.555   2.950   4.355
14276WAT      O43069   3.983   9.579   5.259
14276WAT     H143070   3.957   9.509   5.325
14276WAT     H243071   4.049   9.540   5.194
14277WAT      O43072   1.053   9.361   3.644
14277WAT     H143073   1.136   9.326   3.600
14277WAT     H243074   1.046   9.323   3.736
14278WAT      O43075   1.913   6.985   2.222
14278WAT     H143076   1.843   6.914   2.227
14278WAT     H243077   1.871   7.074   2.242
14279WAT      O43078   1.507   2.445   9.208
14279WAT     H143079   1.540   2.451   9.302
14279WAT     H243080   1.581   2.418   9.148
14280WAT      O43081   5.977   6.996   3.939
14280WAT     H143082   5.985   7.077   3.881
14280WAT     H243083   6.064   6.946   3.937
14281WAT      O43084   3.688   2.764   2.016
14281WAT     H143085   3.749   2.829   1.970
14281WAT     H243086   3.712   2.759   2.113
14282WAT      O43087   3.557   5.035   4.475
14282WAT     H143088   3.506   4.966   4.526
14282WAT     H243089   3.655   5.014   4.479
14283WAT      O43090   1.981   6.131   2.001
14283WAT     H143091   1.958   6.175   2.088
14283WAT     H243092   1.927   6.172   1.928
14284WAT      O43093   6.472   2.131   4.715
14284WAT     H143094   6.443   2.074   4.638
14284WAT     H243095   6.571   2.122   4.728
14285WAT      O43096   6.401   3.980   5.799
14285WAT     H143097   6.320   4.007   5.748
14285WAT     H243098   6.471   3.947   5.736
14286WAT      O43099   1.113   3.229   6.912
14286WAT     H143100   1.199   3.201   6.871
14286WAT     H243101   1.042   3.161   6.892
14287WAT      O43102   1.159   2.014   7.651
14287WAT     H143103   1.180   2.105   7.686
14287WAT     H243104   1.146   1.951   7.727
14288WAT      O43105   2.226   7.561   3.067
14288WAT     H143106   2.223   7.529   3.162
14288WAT     H243107   2.203   7.659   3.065
14289WAT      O43108   5.908   8.796   0.510
14289WAT     H143109   5.813   8.800   0.479
14289WAT     H243110   5.914   8.828   0.604
14290WAT      O43111   5.252   3.478   1.131
14290WAT     H143112   5.199   3.497   1.214
14290WAT     H243113   5.189   3.450   1.058
14291WAT      O43114   0.824   8.681   0.754
14291WAT     H143115   0.891   8.705   0.823
14291WAT     H243116   0.767   8.761   0.735
14292WAT      O43117   5.584   3.042   7.761
14292WAT     H143118   5.560   3.029   7.665
14292WAT     H243119   5.593   3.139   7.781
14293WAT      O43120   1.444   0.442   5.640
14293WAT     H143121   1.407   0.474   5.727
14293WAT     H243122   1.420   0.506   5.567
14294WAT      O43123   6.954   2.022   9.739
14294WAT     H143124   6.911   2.073   9.664
14294WAT     H243125   6.919   1.929   9.741
14295WAT      O43126   1.421   0.328   1.509
14295WAT     H143127   1.463   0.367   1.427
14295WAT     H243128   1.384   0.238   1.487
14296WAT      O43129   3.925   1.321   2.050
14296WAT     H143130   3.938   1.288   1.957
14296WAT     H243131   3.942   1.246   2.114
14297WAT      O43132   2.732   6.190   8.604
14297WAT     H143133   2.830   6.184   8.622
14297WAT     H243134   2.710   6.134   8.524
14298WAT      O43135   1.669   6.690   1.956
14298WAT     H143136   1.627   6.702   1.866
14298WAT     H243137   1.751   6.748   1.962
14299WAT      O43138   2.634   9.831   8.993
14299WAT     H143139   2.708   9.764   8.987
14299WAT     H243140   2.661   9.915   8.947
14300WAT      O43141   4.983   2.864   3.267
14300WAT     H143142   4.976   2.770   3.301
14300WAT     H243143   5.073   2.879   3.226
14301WAT      O43144   6.364   2.816   5.057
14301WAT     H143145   6.342   2.814   5.154
14301WAT     H243146   6.317   2.742   5.010
14302WAT      O43147   1.934   6.028   7.731
14302WAT     H143148   1.894   5.944   7.695
14302WAT     H243149   1.863   6.099   7.737
14303WAT      O43150   9.379   0.794   2.211
14303WAT     H143151   9.289   0.816   2.173
14303WAT     H243152   9.415   0.711   2.167
14304WAT      O43153   0.633   8.308   6.805
14304WAT     H143154   0.593   8.373   6.870
14304WAT     H243155   0.628   8.346   6.712
14305WAT      O43156   5.260   7.043   9.806
14305WAT     H143157   5.340   7.008   9.757
14305WAT     H243158   5.178   6.995   9.774
14306WAT      O43159   8.143   5.799   7.751
14306WAT     H143160   8.215   5.741   7.788
14306WAT     H243161   8.183   5.884   7.717
14307WAT      O43162   3.607   9.437   7.689
14307WAT     H143163   3.563   9.365   7.637
14307WAT     H243164   3.657   9.398   7.766
14308WAT      O43165   6.599   5.059   2.908
14308WAT     H143166   6.551   5.042   2.994
14308WAT     H243167   6.668   4.988   2.894
14309WAT      O43168   2.701   9.800   7.134
14309WAT     H143169   2.765   9.840   7.068
14309WAT     H243170   2.656   9.874   7.184
14310WAT      O43171   0.908   8.828   7.427
14310WAT     H143172   0.984   8.765   7.445
14310WAT     H243173   0.942   8.905   7.372
14311WAT      O43174   1.145   7.197   8.130
14311WAT     H143175   1.156   7.259   8.207
14311WAT     H243176   1.196   7.112   8.148
14312WAT      O43177   6.884   6.289   3.336
14312WAT     H143178   6.921   6.308   3.427
14312WAT     H243179   6.862   6.191   3.329
14313WAT      O43180   8.218   2.518   8.232
14313WAT     H143181   8.138   2.561   8.190
14313WAT     H243182   8.191   2.475   8.318
14314WAT      O43183   6.776   9.722   5.182
14314WAT     H143184   6.817   9.659   5.248
14314WAT     H243185   6.844   9.747   5.113
14315WAT      O43186   3.934   9.053   4.015
14315WAT     H143187   3.956   9.024   3.922
14315WAT     H243188   3.988   9.133   4.039
14316WAT      O43189   5.231   4.715   6.554
14316WAT     H143190   5.202   4.676   6.467
14316WAT     H243191   5.331   4.721   6.556
14317WAT      O43192   3.574   1.315   9.022
14317WAT     H143193   3.631   1.361   9.090
14317WAT     H243194   3.619   1.318   8.933
14318WAT      O43195   7.888   0.766   6.352
14318WAT     H143196   7.813   0.798   6.411
14318WAT     H243197   7.971   0.757   6.406
14319WAT      O43198   3.460   0.946   6.360
14319WAT     H143199   3.378   0.890   6.370
14319WAT     H243200   3.509   0.918   6.277
14320WAT      O43201   3.404   2.900   0.598
14320WAT     H143202   3.331   2.920   0.663
14320WAT     H243203   3.459   2.982   0.583
14321WAT      O43204   8.535   4.187   0.739
14321WAT     H143205   8.507   4.283   0.744
14321WAT     H243206   8.615   4.179   0.681
14322WAT      O43207   5.504   3.038   9.472
14322WAT     H143208   5.557   2.971   9.420
14322WAT     H243209   5.422   3.064   9.420
14323WAT      O43210   0.162   9.652   1.305
14323WAT     H143211   0.184   9.690   1.394
14323WAT     H243212   0.122   9.561   1.316
14324WAT      O43213   3.902   0.633   4.389
14324WAT     H143214   3.963   0.706   4.420
14324WAT     H243215   3.914   0.552   4.445
14325WAT      O43216   7.720   2.588   5.932
14325WAT     H143217   7.718   2.510   5.993
14325WAT     H243218   7.813   2.603   5.899
14326WAT      O43219   5.874   5.590   1.795
14326WAT     H143220   5.897   5.673   1.744
14326WAT     H243221   5.920   5.512   1.752
14327WAT      O43222   5.685   8.523   2.044
14327WAT     H143223   5.656   8.443   2.098
14327WAT     H243224   5.750   8.577   2.097
14328WAT      O43225   8.548   7.123   5.366
14328WAT     H143226   8.528   7.025   5.367
14328WAT     H243227   8.645   7.137   5.350
14329WAT      O43228   2.298   4.129   5.946
14329WAT     H143229   2.359   4.066   5.993
14329WAT     H243230   2.239   4.079   5.882
14330WAT      O43231   7.403   2.208   6.722
14330WAT     H143232   7.399   2.245   6.814
14330WAT     H243233   7.310   2.193   6.688
14331WAT      O43234   2.175   5.906   2.165
14331WAT     H143235   2.150   5.995   2.127
14331WAT     H243236   2.092   5.854   2.186
14332WAT      O43237   4.884   6.816   2.309
14332WAT     H143238   4.937   6.743   2.267
14332WAT     H243239   4.851   6.786   2.398
14333WAT      O43240   9.418   6.777   5.321
14333WAT     H143241   9.400   6.679   5.316
14333WAT     H243242   9.482   6.803   5.249
14334WAT      O43243   6.995   5.691   3.561
14334WAT     H143244   6.992   5.778   3.513
14334WAT     H243245   7.086   5.650   3.550
14335WAT      O43246   6.068   8.831   7.233
14335WAT     H143247   6.111   8.805   7.319
14335WAT     H243248   6.128   8.894   7.183
14336WAT      O43249   4.965   1.918   0.058
14336WAT     H143250   4.995   1.951   0.148
14336WAT     H243251   4.879   1.962   0.034
14337WAT      O43252   3.467   6.510   1.197
14337WAT     H143253   3.467   6.538   1.100
14337WAT     H243254   3.547   6.550   1.242
14338WAT      O43255   3.745   6.715   0.944
14338WAT     H143256   3.842   6.729   0.923
14338WAT     H243257   3.701   6.669   0.867
14339WAT      O43258   6.632   7.720   6.215
14339WAT     H143259   6.656   7.624   6.203
14339WAT     H243260   6.532   7.729   6.222
14340WAT      O43261   4.099   6.443   9.069
14340WAT     H143262   4.001   6.457   9.053
14340WAT     H243263   4.124   6.482   9.158
14341WAT      O43264   9.796   1.917   9.414
14341WAT     H143265   9.796   1.973   9.332
14341WAT     H243266   9.765   1.824   9.391
14342WAT      O43267   2.310   3.051   8.034
14342WAT     H143268   2.270   3.083   8.120
14342WAT     H243269   2.374   3.120   8.001
14343WAT      O43270   7.466   3.055   8.823
14343WAT     H143271   7.447   3.025   8.729
14343WAT     H243272   7.420   3.143   8.839
14344WAT      O43273   1.655   4.082   3.273
14344WAT     H143274   1.687   4.095   3.179
14344WAT     H243275   1.556   4.098   3.278
14345WAT      O43276   2.672   1.028   9.725
14345WAT     H143277   2.683   1.078   9.811
14345WAT     H243278   2.603   0.957   9.736
14346WAT      O43279   9.787   4.161   4.938
14346WAT     H143280   9.742   4.078   4.905
14346WAT     H243281   9.738   4.241   4.904
14347WAT      O43282   2.434   2.501   9.165
14347WAT     H143283   2.383   2.459   9.090
14347WAT     H243284   2.458   2.595   9.141
14348WAT      O43285   6.624   8.857   8.484
14348WAT     H143286   6.603   8.851   8.387
14348WAT     H243287   6.545   8.894   8.533
14349WAT      O43288   7.630   2.324   4.384
14349WAT     H143289   7.553   2.304   4.325
14349WAT     H243290   7.713   2.335   4.329
14350WAT      O43291   4.729   3.208   0.514
14350WAT     H143292   4.788   3.227   0.593
14350WAT     H243293   4.633   3.213   0.542
14351WAT      O43294   6.609   1.968   6.282
14351WAT     H143295   6.615   2.012   6.193
14351WAT     H243296   6.585   1.871   6.271
14352WAT      O43297   5.299   1.394   3.917
14352WAT     H143298   5.393   1.371   3.892
14352WAT     H243299   5.263   1.323   3.978
14353WAT      O43300   5.723   4.172   8.372
14353WAT     H143301   5.758   4.090   8.418
14353WAT     H243302   5.798   4.233   8.351
14354WAT      O43303   9.650   5.770   6.285
14354WAT     H143304   9.729   5.830   6.276
14354WAT     H243305   9.679   5.675   6.274
14355WAT      O43306   6.382   8.945   2.783
14355WAT     H143307   6.317   8.890   2.836
14355WAT     H243308   6.389   9.037   2.823
14356WAT      O43309   4.914   7.138   7.376
14356WAT     H143310   4.908   7.068   7.448
14356WAT     H243311   5.010   7.162   7.361
14357WAT      O43312   7.985   0.488   6.622
14357WAT     H143313   7.966   0.513   6.717
14357WAT     H243314   8.034   0.563   6.578
14358WAT      O43315   0.044   2.635   3.768
14358WAT     H143316   0.041   2.630   3.868
14358WAT     H243317   0.140   2.632   3.737
14359WAT      O43318   0.875   3.883   6.769
14359WAT     H143319   0.892   3.836   6.682
14359WAT     H243320   0.927   3.969   6.771
14360WAT      O43321   0.709   1.363   8.226
14360WAT     H143322   0.783   1.357   8.159
14360WAT     H243323   0.708   1.454   8.267
14361WAT      O43324   1.677   8.805   3.119
14361WAT     H143325   1.670   8.831   3.215
14361WAT     H243326   1.773   8.790   3.095
14362WAT      O43327   9.737   3.022   5.443
14362WAT     H143328   9.720   3.088   5.370
14362WAT     H243329   9.715   3.065   5.531
14363WAT      O43330   5.363   6.937   5.962
14363WAT     H143331   5.351   6.837   5.965
14363WAT     H243332   5.460   6.958   5.960
14364WAT      O43333   1.310   9.774   3.678
14364WAT     H143334   1.394   9.720   3.689
14364WAT     H243335   1.233   9.712   3.663
14365WAT      O43336   9.506   0.045   0.136
14365WAT     H143337   9.457   0.090   0.210
14365WAT     H243338   9.605   0.059   0.148
14366WAT      O43339   1.199   6.533   0.511
14366WAT     H143340   1.139   6.454   0.519
14366WAT     H243341   1.169   6.590   0.435
14367WAT      O43342   7.952   0.424   0.545
14367WAT     H143343   7.924   0.408   0.451
14367WAT     H243344   8.047   0.395   0.557
14368WAT      O43345   0.097   7.173   7.984
14368WAT     H143346   0.009   7.181   7.937
14368WAT     H243347   0.126   7.263   8.017
14369WAT      O43348   3.346   0.754   3.390
14369WAT     H143349   3.424   0.701   3.421
14369WAT     H243350   3.266   0.695   3.383
14370WAT      O43351   1.692   2.856   8.559
14370WAT     H143352   1.641   2.906   8.628
14370WAT     H243353   1.745   2.783   8.602
14371WAT      O43354   5.638   2.875   4.533
14371WAT     H143355   5.623   2.784   4.493
14371WAT     H243356   5.601   2.876   4.626
14372WAT      O43357   8.758   4.407   9.633
14372WAT     H143358   8.853   4.428   9.656
14372WAT     H243359   8.735   4.316   9.668
14373WAT      O43360   1.554   4.236   7.435
14373WAT     H143361   1.577   4.247   7.338
14373WAT     H243362   1.466   4.279   7.453
14374WAT      O43363   0.038   0.517   8.228
14374WAT     H143364   0.106   0.567   8.174
14374WAT     H243365   0.018   0.568   8.312
14375WAT      O43366   0.507   5.399   9.368
14375WAT     H143367   0.526   5.401   9.466
14375WAT     H243368   0.593   5.411   9.317
14376WAT      O43369   9.392   4.363   5.080
14376WAT     H143370   9.408   4.311   5.164
14376WAT     H243371   9.312   4.326   5.033
14377WAT      O43372   5.026   9.722   1.031
14377WAT     H143373   5.018   9.689   1.125
14377WAT     H243374   5.045   9.646   0.969
14378WAT      O43375   8.685   0.819   0.523
14378WAT     H143376   8.650   0.910   0.501
14378WAT     H243377   8.639   0.751   0.465
14379WAT      O43378   6.619   4.023   6.370
14379WAT     H143379   6.683   4.049   6.442
14379WAT     H243380   6.640   4.074   6.287
14380WAT      O43381   0.844   9.415   1.756
14380WAT     H143382   0.913   9.350   1.724
14380WAT     H243383   0.806   9.383   1.843
14381WAT      O43384   8.716   4.149   3.792
14381WAT     H143385   8.768   4.072   3.755
14381WAT     H243386   8.619   4.135   3.775
14382WAT      O43387   4.382   1.815   1.114
14382WAT     H143388   4.340   1.766   1.037
14382WAT     H243389   4.310   1.859   1.168
14383WAT      O43390   9.773   7.183   7.819
14383WAT     H143391   9.682   7.192   7.859
14383WAT     H243392   9.771   7.212   7.724
14384WAT      O43393   6.824   2.092   0.320
14384WAT     H143394   6.890   2.021   0.299
14384WAT     H243395   6.747   2.086   0.256
14385WAT      O43396   8.237   4.295   7.372
14385WAT     H143397   8.155   4.247   7.341
14385WAT     H243398   8.214   4.389   7.395
14386WAT      O43399   4.549   3.788   5.504
14386WAT     H143400   4.514   3.877   5.474
14386WAT     H243401   4.526   3.773   5.600
14387WAT      O43402   8.779   1.796   4.528
14387WAT     H143403   8.791   1.853   4.610
14387WAT     H243404   8.866   1.790   4.479
14388WAT      O43405   4.572   2.233   5.774
14388WAT     H143406   4.565   2.264   5.868
14388WAT     H243407   4.495   2.174   5.752
14389WAT      O43408   0.727   5.264   1.178
14389WAT     H143409   0.818   5.279   1.140
14389WAT     H243410   0.666   5.231   1.106
14390WAT      O43411   2.131   0.296   1.261
14390WAT     H143412   2.198   0.245   1.207
14390WAT     H243413   2.152   0.393   1.257
14391WAT      O43414   2.130   5.141   8.351
14391WAT     H143415   2.123   5.111   8.447
14391WAT     H243416   2.050   5.196   8.328
14392WAT      O43417   6.938   8.958   4.510
14392WAT     H143418   6.965   8.868   4.545
14392WAT     H243419   6.986   9.029   4.561
14393WAT      O43420   8.822   6.983   3.162
14393WAT     H143421   8.914   7.020   3.180
14393WAT     H243422   8.771   6.979   3.248
14394WAT      O43423   5.646   8.007   7.686
14394WAT     H143424   5.669   8.073   7.757
14394WAT     H243425   5.704   8.023   7.606
14395WAT      O43426   0.358   2.285   4.236
14395WAT     H143427   0.436   2.222   4.231
14395WAT     H243428   0.293   2.262   4.164
14396WAT      O43429   4.851   6.002   6.299
14396WAT     H143430   4.895   5.915   6.318
14396WAT     H243431   4.856   6.023   6.202
14397WAT      O43432   4.232   1.124   8.050
14397WAT     H143433   4.222   1.054   8.120
14397WAT     H243434   4.264   1.083   7.965
14398WAT      O43435   9.119   4.750   3.378
14398WAT     H143436   9.065   4.791   3.305
14398WAT     H243437   9.073   4.762   3.466
14399WAT      O43438   9.521   8.255   2.012
14399WAT     H143439   9.572   8.336   1.982
14399WAT     H243440   9.491   8.204   1.931
14400WAT      O43441   5.387   6.047   0.578
14400WAT     H143442   5.435   6.081   0.659
14400WAT     H243443   5.307   5.995   0.605
14401WAT      O43444   0.922   8.013   0.980
14401WAT     H143445   0.827   8.042   0.968
14401WAT     H243446   0.937   7.926   0.933
14402WAT      O43447   6.703   1.472   7.072
14402WAT     H143448   6.677   1.406   7.002
14402WAT     H243449   6.786   1.521   7.043
14403WAT      O43450   2.586   5.106   2.978
14403WAT     H143451   2.679   5.080   2.952
14403WAT     H243452   2.520   5.063   2.916
14404WAT      O43453   6.495   8.916   4.377
14404WAT     H143454   6.508   9.016   4.375
14404WAT     H243455   6.474   8.887   4.470
14405WAT      O43456   3.074   9.479   6.850
14405WAT     H143457   3.166   9.512   6.833
14405WAT     H243458   3.012   9.556   6.863
14406WAT      O43459   7.749   0.958   9.650
14406WAT     H143460   7.689   0.891   9.693
14406WAT     H243461   7.833   0.913   9.619
14407WAT      O43462   3.784   4.492   6.577
14407WAT     H143463   3.688   4.519   6.574
14407WAT     H243464   3.841   4.571   6.555
14408WAT      O43465   6.660   7.061   7.282
14408WAT     H143466   6.680   7.126   7.356
14408WAT     H243467   6.729   6.989   7.282
14409WAT      O43468   2.385   9.168   3.439
14409WAT     H143469   2.431   9.113   3.507
14409WAT     H243470   2.420   9.261   3.441
14410WAT      O43471   3.669   8.133   3.636
14410WAT     H143472   3.606   8.138   3.714
14410WAT     H243473   3.667   8.220   3.586
14411WAT      O43474   7.450   3.665   6.559
14411WAT     H143475   7.433   3.707   6.647
14411WAT     H243476   7.540   3.621   6.559
14412WAT      O43477   2.721   8.714   9.866
14412WAT     H143478   2.766   8.716   9.777
14412WAT     H243479   2.764   8.644   9.923
14413WAT      O43480   7.577   3.125   6.176
14413WAT     H143481   7.562   3.208   6.230
14413WAT     H243482   7.490   3.078   6.162
14414WAT      O43483   8.924   6.341   5.530
14414WAT     H143484   8.966   6.271   5.472
14414WAT     H243485   8.916   6.306   5.623
14415WAT      O43486   9.624   5.721   3.919
14415WAT     H143487   9.723   5.712   3.924
14415WAT     H243488   9.589   5.765   4.002
14416WAT      O43489   1.606   8.611   4.831
14416WAT     H143490   1.581   8.705   4.811
14416WAT     H243491   1.538   8.549   4.793
14417WAT      O43492   2.759   4.233   8.310
14417WAT     H143493   2.740   4.187   8.224
14417WAT     H243494   2.780   4.165   8.380
14418WAT      O43495   7.209   9.097   1.339
14418WAT     H143496   7.132   9.093   1.403
14418WAT     H243497   7.294   9.077   1.389
14419WAT      O43498   1.047   7.973   5.003
14419WAT     H143499   1.097   7.957   4.919
14419WAT     H243500   1.056   7.893   5.063
14420WAT      O43501   7.709   9.073   9.491
14420WAT     H143502   7.772   9.107   9.421
14420WAT     H243503   7.761   9.035   9.567
14421WAT      O43504   4.554   3.039   1.880
14421WAT     H143505   4.578   3.089   1.797
14421WAT     H243506   4.574   3.095   1.960
14422WAT      O43507   6.195   5.148   6.464
14422WAT     H143508   6.167   5.060   6.426
14422WAT     H243509   6.294   5.158   6.453
14423WAT      O43510   5.812   1.771   4.655
14423WAT     H143511   5.813   1.770   4.555
14423WAT     H243512   5.766   1.854   4.687
14424WAT      O43513   6.843   5.180   7.809
14424WAT     H143514   6.793   5.157   7.725
14424WAT     H243515   6.894   5.100   7.840
14425WAT      O43516   8.002   6.233   8.755
14425WAT     H143517   8.022   6.136   8.744
14425WAT     H243518   8.064   6.286   8.698
14426WAT      O43519   8.452   5.222   7.999
14426WAT     H143520   8.407   5.146   8.046
14426WAT     H243521   8.546   5.197   7.978
14427WAT      O43522   4.462   5.988   2.361
14427WAT     H143523   4.512   5.975   2.275
14427WAT     H243524   4.451   6.086   2.379
14428WAT      O43525   9.000   6.873   2.039
14428WAT     H143526   8.939   6.878   1.960
14428WAT     H243527   9.030   6.965   2.063
14429WAT      O43528   1.035   0.454   4.738
14429WAT     H143529   1.025   0.414   4.829
14429WAT     H243530   1.095   0.534   4.743
14430WAT      O43531   0.276   1.288   4.101
14430WAT     H143532   0.293   1.308   4.005
14430WAT     H243533   0.211   1.354   4.139
14431WAT      O43534   8.715   7.952   6.163
14431WAT     H143535   8.618   7.960   6.185
14431WAT     H243536   8.760   8.041   6.173
14432WAT      O43537   6.840   6.587   3.393
14432WAT     H143538   6.838   6.487   3.383
14432WAT     H243539   6.922   6.613   3.444
14433WAT      O43540   5.349   5.518   5.886
14433WAT     H143541   5.294   5.492   5.806
14433WAT     H243542   5.446   5.510   5.863
14434WAT      O43543   0.980   0.180   7.939
14434WAT     H143544   0.921   0.251   7.903
14434WAT     H243545   1.029   0.135   7.864
14435WAT      O43546   5.946   5.043   4.823
14435WAT     H143547   6.007   4.970   4.856
14435WAT     H243548   5.855   5.032   4.863
14436WAT      O43549   3.573   2.867   9.694
14436WAT     H143550   3.627   2.809   9.633
14436WAT     H243551   3.519   2.932   9.639
14437WAT      O43552   6.123   6.087   2.029
14437WAT     H143553   6.032   6.075   1.990
14437WAT     H243554   6.182   6.013   1.998
14438WAT      O43555   3.323   3.356   4.342
14438WAT     H143556   3.308   3.397   4.252
14438WAT     H243557   3.319   3.256   4.334
14439WAT      O43558   8.262   9.398   2.561
14439WAT     H143559   8.185   9.336   2.576
14439WAT     H243560   8.344   9.344   2.539
14440WAT      O43561   5.890   9.262   9.447
14440WAT     H143562   5.959   9.239   9.516
14440WAT     H243563   5.936   9.284   9.361
14441WAT      O43564   8.905   1.448   8.477
14441WAT     H143565   8.862   1.363   8.507
14441WAT     H243566   8.846   1.493   8.410
14442WAT      O43567   8.710   7.293   7.246
14442WAT     H143568   8.702   7.393   7.245
14442WAT     H243569   8.803   7.267   7.272
14443WAT      O43570   4.931   7.375   8.865
14443WAT     H143571   4.960   7.292   8.818
14443WAT     H243572   4.863   7.424   8.810
14444WAT      O43573   7.147   3.100   8.964
14444WAT     H143574   7.150   3.044   9.047
14444WAT     H243575   7.190   3.189   8.983
14445WAT      O43576   3.588   8.863   1.829
14445WAT     H143577   3.609   8.926   1.904
14445WAT     H243578   3.510   8.807   1.853
14446WAT      O43579   8.440   9.770   8.167
14446WAT     H143580   8.465   9.799   8.259
14446WAT     H243581   8.341   9.774   8.156
14447WAT      O43582   1.287   8.158   0.145
14447WAT     H143583   1.191   8.145   0.124
14447WAT     H243584   1.306   8.256   0.156
14448WAT      O43585   2.961   3.253   6.647
14448WAT     H143586   3.015   3.311   6.708
14448WAT     H243587   3.013   3.171   6.624
14449WAT      O43588   0.780   5.401   1.521
14449WAT     H143589   0.695   5.440   1.558
14449WAT     H243590   0.820   5.465   1.455
14450WAT      O43591   2.093   8.034   8.171
14450WAT     H143592   2.157   8.111   8.166
14450WAT     H243593   2.135   7.959   8.222
14451WAT      O43594   8.483   2.801   7.285
14451WAT     H143595   8.392   2.829   7.253
14451WAT     H243596   8.550   2.820   7.213
14452WAT      O43597   5.920   6.090   8.716
14452WAT     H143598   5.898   6.012   8.657
14452WAT     H243599   5.843   6.153   8.719
14453WAT      O43600   7.927   3.206   0.870
14453WAT     H143601   7.953   3.170   0.960
14453WAT     H243602   7.995   3.274   0.841
14454WAT      O43603   5.461   1.315   0.169
14454WAT     H143604   5.541   1.313   0.108
14454WAT     H243605   5.385   1.268   0.125
14455WAT      O43606   9.499   6.436   6.188
14455WAT     H143607   9.459   6.401   6.104
14455WAT     H243608   9.495   6.536   6.188
14456WAT      O43609   5.169   6.606   5.432
14456WAT     H143610   5.136   6.691   5.473
14456WAT     H243611   5.106   6.577   5.361
14457WAT      O43612   8.864   4.443   0.650
14457WAT     H143613   8.926   4.376   0.691
14457WAT     H243614   8.798   4.396   0.592
14458WAT      O43615   7.635   4.867   9.263
14458WAT     H143616   7.584   4.789   9.225
14458WAT     H243617   7.731   4.841   9.274
14459WAT      O43618   5.652   7.911   3.648
14459WAT     H143619   5.554   7.899   3.634
14459WAT     H243620   5.685   7.843   3.713
14460WAT      O43621   5.642   3.404   7.045
14460WAT     H143622   5.728   3.352   7.043
14460WAT     H243623   5.583   3.367   7.118
14461WAT      O43624   8.420   9.815   6.929
14461WAT     H143625   8.508   9.860   6.944
14461WAT     H243626   8.363   9.873   6.870
14462WAT      O43627   8.178   4.498   1.883
14462WAT     H143628   8.272   4.469   1.863
14462WAT     H243629   8.169   4.596   1.870
14463WAT      O43630   2.022   7.926   3.864
14463WAT     H143631   2.071   7.840   3.850
14463WAT     H243632   1.932   7.920   3.822
14464WAT      O43633   9.266   3.034   8.062
14464WAT     H143634   9.264   3.133   8.073
14464WAT     H243635   9.201   2.992   8.125
14465WAT      O43636   6.859   0.413   8.775
14465WAT     H143637   6.951   0.451   8.784
14465WAT     H243638   6.819   0.444   8.689
14466WAT      O43639   4.916   7.106   2.408
14466WAT     H143640   4.856   7.038   2.450
14466WAT     H243641   4.860   7.180   2.368
14467WAT      O43642   6.739   3.985   2.123
14467WAT     H143643   6.716   3.935   2.206
14467WAT     H243644   6.816   3.941   2.077
14468WAT      O43645   2.478   2.743   9.005
14468WAT     H143646   2.452   2.839   9.011
14468WAT     H243647   2.577   2.736   8.987
14469WAT      O43648   2.525   5.158   8.622
14469WAT     H143649   2.472   5.216   8.561
14469WAT     H243650   2.562   5.081   8.571
14470WAT      O43651   1.445   6.618   5.949
14470WAT     H143652   1.499   6.654   5.873
14470WAT     H243653   1.409   6.694   6.003
14471WAT      O43654   5.072   5.648   7.809
14471WAT     H143655   5.064   5.554   7.841
14471WAT     H243656   4.995   5.670   7.749
14472WAT      O43657   1.860   0.087   0.242
14472WAT     H143658   1.809   0.025   0.183
14472WAT     H243659   1.909   0.034   0.312
14473WAT      O43660   7.381   2.604   2.634
14473WAT     H143661   7.303   2.579   2.692
14473WAT     H243662   7.461   2.622   2.691
14474WAT      O43663   3.409   3.148   8.947
14474WAT     H143664   3.482   3.190   9.001
14474WAT     H243665   3.422   3.049   8.946
14475WAT      O43666   1.140   5.163   9.643
14475WAT     H143667   1.115   5.259   9.632
14475WAT     H243668   1.072   5.106   9.596
14476WAT      O43669   3.492   3.202   1.073
14476WAT     H143670   3.503   3.184   1.170
14476WAT     H243671   3.521   3.123   1.020
14477WAT      O43672   9.344   0.182   2.875
14477WAT     H143673   9.272   0.112   2.869
14477WAT     H243674   9.427   0.148   2.831
14478WAT      O43675   0.393   5.407   0.466
14478WAT     H143676   0.326   5.427   0.537
14478WAT     H243677   0.482   5.388   0.509
14479WAT      O43678   6.479   1.939   9.525
14479WAT     H143679   6.398   1.931   9.583
14479WAT     H243680   6.513   1.848   9.501
14480WAT      O43681   3.500   6.312   1.548
14480WAT     H143682   3.487   6.349   1.640
14480WAT     H243683   3.421   6.256   1.523
14481WAT      O43684   5.379   2.943   4.054
14481WAT     H143685   5.292   2.895   4.042
14481WAT     H243686   5.376   3.029   4.004
14482WAT      O43687   3.022   9.739   4.278
14482WAT     H143688   3.019   9.827   4.231
14482WAT     H243689   3.065   9.672   4.218
14483WAT      O43690   1.897   7.288   7.490
14483WAT     H143691   1.914   7.334   7.577
14483WAT     H243692   1.925   7.348   7.415
14484WAT      O43693   4.008   3.520   1.603
14484WAT     H143694   4.069   3.548   1.528
14484WAT     H243695   4.031   3.427   1.631
14485WAT      O43696   3.992   4.402   8.482
14485WAT     H143697   3.984   4.304   8.466
14485WAT     H243698   3.964   4.451   8.399
14486WAT      O43699   9.084   7.246   1.369
14486WAT     H143700   9.015   7.183   1.404
14486WAT     H243701   9.052   7.289   1.285
14487WAT      O43702   4.747   2.670   7.067
14487WAT     H143703   4.697   2.732   7.128
14487WAT     H243704   4.755   2.581   7.110
14488WAT      O43705   8.159   6.238   9.451
14488WAT     H143706   8.172   6.309   9.382
14488WAT     H243707   8.136   6.279   9.539
14489WAT      O43708   6.550   8.300   9.124
14489WAT     H143709   6.501   8.288   9.038
14489WAT     H243710   6.624   8.232   9.130
14490WAT      O43711   5.796   3.770   1.074
14490WAT     H143712   5.871   3.745   1.012
14490WAT     H243713   5.754   3.687   1.109
14491WAT      O43714   0.343   3.519   4.971
14491WAT     H143715   0.425   3.576   4.967
14491WAT     H243716   0.274   3.556   4.909
14492WAT      O43717   4.712   9.659   5.143
14492WAT     H143718   4.693   9.562   5.157
14492WAT     H243719   4.647   9.714   5.195
14493WAT      O43720   1.303   3.194   9.193
14493WAT     H143721   1.357   3.119   9.155
14493WAT     H243722   1.364   3.260   9.237
14494WAT      O43723   7.417   8.794   3.597
14494WAT     H143724   7.429   8.788   3.498
14494WAT     H243725   7.506   8.804   3.641
14495WAT      O43726   3.622   3.093   6.676
14495WAT     H143727   3.602   2.996   6.690
14495WAT     H243728   3.590   3.145   6.755
14496WAT      O43729   6.732   8.960   4.815
14496WAT     H143730   6.817   9.006   4.789
14496WAT     H243731   6.725   8.874   4.765
14497WAT      O43732   8.023   1.358   1.159
14497WAT     H143733   7.988   1.343   1.251
14497WAT     H243734   7.978   1.296   1.095
14498WAT      O43735   4.002   4.582   0.349
14498WAT     H143736   3.988   4.674   0.386
14498WAT     H243737   3.976   4.514   0.417
14499WAT      O43738   0.015   6.557   5.065
14499WAT     H143739   0.057   6.629   5.120
14499WAT     H243740   0.002   6.475   5.121
14500WAT      O43741   2.030   6.025   0.058
14500WAT     H143742   1.988   5.973  -0.016
14500WAT     H243743   2.008   5.982   0.146
14501WAT      O43744   0.804   1.993   6.847
14501WAT     H143745   0.859   2.073   6.825
14501WAT     H243746   0.708   2.019   6.856
14502WAT      O43747   5.659   3.506   2.937
14502WAT     H143748   5.560   3.495   2.926
14502WAT     H243749   5.697   3.423   2.977
14503WAT      O43750   5.465   1.873   2.544
14503WAT     H143751   5.409   1.838   2.620
14503WAT     H243752   5.533   1.805   2.519
14504WAT      O43753   0.064   4.071   1.172
14504WAT     H143754   0.078   4.137   1.245
14504WAT     H243755   0.118   3.989   1.190
14505WAT      O43756   1.907   3.587   1.026
14505WAT     H143757   1.993   3.540   1.006
14505WAT     H243758   1.831   3.522   1.020
14506WAT      O43759   4.761   6.045   4.893
14506WAT     H143760   4.820   5.997   4.828
14506WAT     H243761   4.813   6.065   4.976
14507WAT      O43762   2.419   9.184   7.830
14507WAT     H143763   2.502   9.128   7.826
14507WAT     H243764   2.339   9.125   7.819
14508WAT      O43765   7.231   6.581   3.667
14508WAT     H143766   7.191   6.666   3.635
14508WAT     H243767   7.187   6.554   3.753
14509WAT      O43768   9.180   6.990   5.691
14509WAT     H143769   9.133   6.936   5.620
14509WAT     H243770   9.151   6.959   5.781
14510WAT      O43771   5.302   7.022   2.266
14510WAT     H143772   5.269   7.046   2.357
14510WAT     H243773   5.224   7.014   2.204
14511WAT      O43774   8.211   5.882   6.339
14511WAT     H143775   8.187   5.978   6.324
14511WAT     H243776   8.135   5.824   6.311
14512WAT      O43777   6.321   8.136   8.321
14512WAT     H143778   6.255   8.067   8.291
14512WAT     H243779   6.278   8.226   8.320
14513WAT      O43780   1.490   6.320   2.647
14513WAT     H143781   1.463   6.360   2.735
14513WAT     H243782   1.557   6.248   2.662
14514WAT      O43783   1.429   6.765   0.888
14514WAT     H143784   1.349   6.802   0.842
14514WAT     H243785   1.477   6.839   0.936
14515WAT      O43786   6.317   1.471   6.036
14515WAT     H143787   6.332   1.557   5.988
14515WAT     H243788   6.232   1.429   6.003
14516WAT      O43789   5.963   3.297   2.800
14516WAT     H143790   6.046   3.283   2.856
14516WAT     H243791   5.951   3.395   2.783
14517WAT      O43792   1.984   5.451   0.096
14517WAT     H143793   1.967   5.468  -0.001
14517WAT     H243794   2.006   5.355   0.109
14518WAT      O43795   1.118   3.337   1.583
14518WAT     H143796   1.107   3.384   1.496
14518WAT     H243797   1.199   3.371   1.630
14519WAT      O43798   6.507   6.852   0.569
14519WAT     H143799   6.488   6.756   0.548
14519WAT     H243800   6.427   6.907   0.546
14520WAT      O43801   5.730   8.959   9.441
14520WAT     H143802   5.726   9.017   9.359
14520WAT     H243803   5.667   8.882   9.431
14521WAT      O43804   1.450   2.246   7.354
14521WAT     H143805   1.428   2.171   7.417
14521WAT     H243806   1.389   2.323   7.370
14522WAT      O43807   7.901   0.718   4.481
14522WAT     H143808   7.883   0.621   4.499
14522WAT     H243809   7.881   0.772   4.562
14523WAT      O43810   9.531   9.498   1.842
14523WAT     H143811   9.494   9.540   1.925
14523WAT     H243812   9.557   9.404   1.862
14524WAT      O43813   4.336   1.937   4.102
14524WAT     H143814   4.348   1.841   4.126
14524WAT     H243815   4.300   1.944   4.008
14525WAT      O43816   7.869   3.317   3.747
14525WAT     H143817   7.954   3.288   3.702
14525WAT     H243818   7.889   3.344   3.841
14526WAT      O43819   5.586   1.216   6.412
14526WAT     H143820   5.518   1.202   6.485
14526WAT     H243821   5.669   1.165   6.434
14527WAT      O43822   3.537   2.460   9.555
14527WAT     H143823   3.445   2.448   9.592
14527WAT     H243824   3.590   2.518   9.617
14528WAT      O43825   0.906   5.964   5.158
14528WAT     H143826   0.927   5.876   5.117
14528WAT     H243827   0.916   5.958   5.258
14529WAT      O43828   0.318   1.312   8.198
14529WAT     H143829   0.261   1.391   8.175
14529WAT     H243830   0.264   1.228   8.186
14530WAT      O43831   7.717   8.819   8.763
14530WAT     H143832   7.685   8.842   8.855
14530WAT     H243833   7.816   8.806   8.765
14531WAT      O43834   5.202   7.649   2.255
14531WAT     H143835   5.138   7.719   2.287
14531WAT     H243836   5.271   7.632   2.325
14532WAT      O43837   8.511   3.238   4.266
14532WAT     H143838   8.448   3.169   4.230
14532WAT     H243839   8.524   3.223   4.364
14533WAT      O43840   6.015   6.220   2.688
14533WAT     H143841   5.960   6.164   2.750
14533WAT     H243842   6.031   6.169   2.603
14534WAT      O43843   2.268   5.486   3.434
14534WAT     H143844   2.353   5.512   3.478
14534WAT     H243845   2.231   5.404   3.479
14535WAT      O43846   4.565   9.182   7.201
14535WAT     H143847   4.525   9.104   7.249
14535WAT     H243848   4.633   9.150   7.135
14536WAT      O43849   1.085   3.765   1.051
14536WAT     H143850   1.071   3.673   1.088
14536WAT     H243851   1.050   3.769   0.958
14537WAT      O43852   6.554   7.820   3.878
14537WAT     H143853   6.638   7.775   3.906
14537WAT     H243854   6.576   7.908   3.834
14538WAT      O43855   8.208   8.518   2.682
14538WAT     H143856   8.108   8.525   2.686
14538WAT     H243857   8.233   8.439   2.625
14539WAT      O43858   8.091   4.887   0.782
14539WAT     H143859   8.086   4.902   0.683
14539WAT     H243860   8.006   4.848   0.815
14540WAT      O43861   2.704   7.254   4.173
14540WAT     H143862   2.767   7.330   4.158
14540WAT     H243863   2.710   7.224   4.268
14541WAT      O43864   7.570   1.234   9.014
14541WAT     H143865   7.660   1.236   9.058
14541WAT     H243866   7.557   1.318   8.961
14542WAT      O43867   4.923   8.435   1.732
14542WAT     H143868   4.845   8.389   1.690
14542WAT     H243869   4.907   8.447   1.830
14543WAT      O43870   0.285   0.328   9.218
14543WAT     H143871   0.332   0.331   9.131
14543WAT     H243872   0.351   0.314   9.292
14544WAT      O43873   8.712   8.634   1.686
14544WAT     H143874   8.664   8.556   1.724
14544WAT     H243875   8.804   8.607   1.659
14545WAT      O43876   8.196   4.756   3.443
14545WAT     H143877   8.124   4.758   3.514
14545WAT     H243878   8.190   4.839   3.388
14546WAT      O43879   2.727   1.018   9.460
14546WAT     H143880   2.693   1.052   9.548
14546WAT     H243881   2.824   1.040   9.451
14547WAT      O43882   2.717   5.956   7.077
14547WAT     H143883   2.658   5.917   7.147
14547WAT     H243884   2.690   5.921   6.987
14548WAT      O43885   0.005   3.148   4.542
14548WAT     H143886   0.095   3.120   4.575
14548WAT     H243887  -0.056   3.164   4.619
14549WAT      O43888   2.152   8.909   6.144
14549WAT     H143889   2.251   8.914   6.131
14549WAT     H243890   2.127   8.963   6.225
14550WAT      O43891   6.769   5.479   2.089
14550WAT     H143892   6.855   5.429   2.097
14550WAT     H243893   6.784   5.575   2.109
14551WAT      O43894   5.502   5.005   6.189
14551WAT     H143895   5.423   4.946   6.206
14551WAT     H243896   5.486   5.094   6.230
14552WAT      O43897   5.048   6.914   2.928
14552WAT     H143898   5.009   6.844   2.988
14552WAT     H243899   5.145   6.927   2.950
14553WAT      O43900   5.960   0.672   2.798
14553WAT     H143901   5.912   0.745   2.749
14553WAT     H243902   6.021   0.711   2.866
14554WAT      O43903   6.103   0.112   6.241
14554WAT     H143904   6.006   0.103   6.266
14554WAT     H243905   6.137   0.201   6.273
14555WAT      O43906   7.625   3.005   3.708
14555WAT     H143907   7.645   3.041   3.617
14555WAT     H243908   7.614   2.906   3.704
14556WAT      O43909   8.727   0.679   5.349
14556WAT     H143910   8.801   0.713   5.407
14556WAT     H243911   8.640   0.720   5.379
14557WAT      O43912   0.641   9.215   5.497
14557WAT     H143913   0.677   9.249   5.410
14557WAT     H243914   0.620   9.118   5.489
14558WAT      O43915   2.287   3.133   9.250
14558WAT     H143916   2.313   3.226   9.223
14558WAT     H243917   2.197   3.112   9.212
14559WAT      O43918   2.289   2.102   4.442
14559WAT     H143919   2.229   2.141   4.512
14559WAT     H243920   2.324   2.014   4.473
14560WAT      O43921   1.391   8.403   0.389
14560WAT     H143922   1.294   8.424   0.375
14560WAT     H243923   1.433   8.473   0.447
14561WAT      O43924   2.343   4.011   0.204
14561WAT     H143925   2.285   4.078   0.251
14561WAT     H243926   2.364   4.042   0.112
14562WAT      O43927   1.900   2.990   0.237
14562WAT     H143928   1.993   2.974   0.205
14562WAT     H243929   1.869   3.080   0.205
14563WAT      O43930   1.993   9.038   1.726
14563WAT     H143931   1.928   9.068   1.656
14563WAT     H243932   1.942   8.998   1.803
14564WAT      O43933   6.702   7.254   3.390
14564WAT     H143934   6.689   7.155   3.383
14564WAT     H243935   6.778   7.273   3.452
14565WAT      O43936   6.472   6.841   1.910
14565WAT     H143937   6.552   6.845   1.850
14565WAT     H243938   6.500   6.812   2.002
14566WAT      O43939   8.181   8.787   5.428
14566WAT     H143940   8.149   8.746   5.342
14566WAT     H243941   8.141   8.737   5.505
14567WAT      O43942   7.526   6.035   5.849
14567WAT     H143943   7.455   6.065   5.785
14567WAT     H243944   7.484   6.018   5.938
14568WAT      O43945   7.091   1.636   4.715
14568WAT     H143946   7.095   1.722   4.665
14568WAT     H243947   7.178   1.620   4.762
14569WAT      O43948   0.099   8.713   9.206
14569WAT     H143949   0.064   8.729   9.114
14569WAT     H243950   0.152   8.793   9.237
14570WAT      O43951   5.144   0.908   8.198
14570WAT     H143952   5.060   0.869   8.234
14570WAT     H243953   5.205   0.834   8.170
14571WAT      O43954   4.635   7.452   8.150
14571WAT     H143955   4.657   7.510   8.072
14571WAT     H243956   4.658   7.357   8.128
14572WAT      O43957   5.846   1.966   5.192
14572WAT     H143958   5.759   2.012   5.175
14572WAT     H243959   5.888   1.940   5.105
14573WAT      O43960   5.502   7.584   6.976
14573WAT     H143961   5.473   7.515   6.910
14573WAT     H243962   5.422   7.633   7.011
14574WAT      O43963   0.784   0.588   5.958
14574WAT     H143964   0.689   0.568   5.935
14574WAT     H243965   0.845   0.535   5.899
14575WAT      O43966   2.151   3.513   9.803
14575WAT     H143967   2.053   3.498   9.789
14575WAT     H243968   2.174   3.496   9.899
14576WAT      O43969   9.755   7.684   3.237
14576WAT     H143970   9.658   7.668   3.222
14576WAT     H243971   9.802   7.597   3.252
14577WAT      O43972   8.235   7.288   7.596
14577WAT     H143973   8.270   7.321   7.684
14577WAT     H243974   8.277   7.200   7.575
14578WAT      O43975   0.010   1.938   1.565
14578WAT     H143976   0.029   1.848   1.606
14578WAT     H243977   0.017   2.008   1.635
14579WAT      O43978   9.265   6.557   9.499
14579WAT     H143979   9.284   6.652   9.525
14579WAT     H243980   9.181   6.526   9.545
14580WAT      O43981   6.079   7.351   4.932
14580WAT     H143982   6.159   7.305   4.971
14580WAT     H243983   6.062   7.317   4.840
14581WAT      O43984   9.678   1.092   2.438
14581WAT     H143985   9.689   1.027   2.363
14581WAT     H243986   9.584   1.126   2.440
14582WAT      O43987   4.554   1.617   8.386
14582WAT     H143988   4.560   1.691   8.320
14582WAT     H243989   4.498   1.543   8.349
14583WAT      O43990   7.871   7.354   8.212
14583WAT     H143991   7.789   7.327   8.161
14583WAT     H243992   7.946   7.291   8.190
14584WAT      O43993   2.400   0.513   2.279
14584WAT     H143994   2.473   0.445   2.269
14584WAT     H243995   2.354   0.500   2.367
14585WAT      O43996   6.197   6.762   7.468
14585WAT     H143997   6.160   6.823   7.538
14585WAT     H243998   6.203   6.669   7.505
14586WAT      O43999   6.441   2.290   6.107
14586WAT     H144000   6.437   2.341   6.192
14586WAT     H244001   6.523   2.232   6.107
14587WAT      O44002   2.349   8.166   7.866
14587WAT     H144003   2.393   8.085   7.904
14587WAT     H244004   2.359   8.166   7.766
14588WAT      O44005   9.514   9.208   3.956
14588WAT     H144006   9.516   9.308   3.956
14588WAT     H244007   9.604   9.174   3.985
14589WAT      O44008   0.715   1.694   3.368
14589WAT     H144009   0.793   1.691   3.304
14589WAT     H244010   0.728   1.625   3.439
14590WAT      O44011   4.589   8.857   5.499
14590WAT     H144012   4.547   8.927   5.442
14590WAT     H244013   4.610   8.776   5.444
14591WAT      O44014   8.642   7.696   8.185
14591WAT     H144015   8.677   7.716   8.093
14591WAT     H244016   8.566   7.757   8.205
14592WAT      O44017   3.115   8.609   8.277
14592WAT     H144018   3.175   8.629   8.354
14592WAT     H244019   3.021   8.595   8.311
14593WAT      O44020   9.710   4.568   3.609
14593WAT     H144021   9.616   4.600   3.601
14593WAT     H244022   9.732   4.508   3.532
14594WAT      O44023   8.633   8.490   2.795
14594WAT     H144024   8.648   8.440   2.880
14594WAT     H244025   8.644   8.428   2.717
14595WAT      O44026   0.062   0.555   2.074
14595WAT     H144027   0.104   0.587   1.989
14595WAT     H244028  -0.037   0.556   2.065
14596WAT      O44029   4.016   2.686   5.643
14596WAT     H144030   4.090   2.739   5.601
14596WAT     H244031   3.930   2.736   5.634
14597WAT      O44032   5.850   5.781   0.763
14597WAT     H144033   5.889   5.714   0.827
14597WAT     H244034   5.919   5.806   0.695
14598WAT      O44035   4.945   8.006   8.359
14598WAT     H144036   5.027   8.049   8.320
14598WAT     H244037   4.968   7.967   8.448
14599WAT      O44038   4.054   8.058   4.949
14599WAT     H144039   4.062   7.973   4.897
14599WAT     H244040   4.136   8.113   4.935
14600WAT      O44041   3.785   6.504   2.504
14600WAT     H144042   3.862   6.553   2.463
14600WAT     H244043   3.810   6.475   2.597
14601WAT      O44044   0.313   4.739   4.015
14601WAT     H144045   0.240   4.684   4.055
14601WAT     H244046   0.354   4.689   3.938
14602WAT      O44047   2.688   4.043   8.912
14602WAT     H144048   2.714   4.127   8.959
14602WAT     H244049   2.769   3.992   8.884
14603WAT      O44050   2.524   0.535   3.954
14603WAT     H144051   2.450   0.570   3.897
14603WAT     H244052   2.607   0.525   3.900
14604WAT      O44053   5.969   7.991   1.081
14604WAT     H144054   6.063   8.014   1.054
14604WAT     H244055   5.963   7.892   1.097
14605WAT      O44056   6.736   4.499   5.751
14605WAT     H144057   6.748   4.430   5.680
14605WAT     H244058   6.640   4.500   5.780
14606WAT      O44059   2.321   8.777   3.935
14606WAT     H144060   2.324   8.782   3.835
14606WAT     H244061   2.378   8.702   3.967
14607WAT      O44062   7.654   6.437   1.511
14607WAT     H144063   7.679   6.505   1.441
14607WAT     H244064   7.620   6.354   1.465
14608WAT      O44065   4.517   7.601   1.168
14608WAT     H144066   4.474   7.536   1.105
14608WAT     H244067   4.617   7.592   1.162
14609WAT      O44068   6.743   4.301   3.270
14609WAT     H144069   6.737   4.205   3.298
14609WAT     H244070   6.652   4.338   3.257
14610WAT      O44071   6.748   1.145   9.127
14610WAT     H144072   6.734   1.077   9.199
14610WAT     H244073   6.835   1.191   9.141
14611WAT      O44074   2.859   5.648   7.561
14611WAT     H144075   2.830   5.587   7.634
14611WAT     H244076   2.848   5.602   7.473
14612WAT      O44077   6.088   8.802   3.880
14612WAT     H144078   6.129   8.714   3.859
14612WAT     H244079   6.127   8.839   3.964
14613WAT      O44080   4.677   2.812   5.190
14613WAT     H144081   4.704   2.779   5.099
14613WAT     H244082   4.717   2.753   5.260
14614WAT      O44083   1.640   7.644   2.100
14614WAT     H144084   1.677   7.653   2.008
14614WAT     H244085   1.698   7.693   2.164
14615WAT      O44086   4.830   3.948   9.362
14615WAT     H144087   4.854   3.851   9.372
14615WAT     H244088   4.746   3.967   9.414
14616WAT      O44089   9.136   1.873   9.131
14616WAT     H144090   9.124   1.877   9.032
14616WAT     H244091   9.128   1.965   9.170
14617WAT      O44092   9.017   2.034   3.947
14617WAT     H144093   9.046   2.061   4.040
14617WAT     H244094   8.932   1.983   3.953
14618WAT      O44095   7.799   3.985   9.773
14618WAT     H144096   7.836   4.043   9.701
14618WAT     H244097   7.859   3.906   9.787
14619WAT      O44098   4.412   8.490   3.917
14619WAT     H144099   4.327   8.539   3.937
14619WAT     H244100   4.428   8.489   3.818
14620WAT      O44101   1.093   5.494   0.050
14620WAT     H144102   1.126   5.485   0.144
14620WAT     H244103   0.995   5.471   0.047
14621WAT      O44104   7.970   0.059   8.588
14621WAT     H144105   8.001   0.115   8.665
14621WAT     H244106   7.997   0.103   8.503
14622WAT      O44107   3.034   8.831   2.306
14622WAT     H144108   3.023   8.853   2.403
14622WAT     H244109   3.060   8.735   2.297
14623WAT      O44110   8.520   5.136   0.208
14623WAT     H144111   8.559   5.193   0.280
14623WAT     H244112   8.571   5.148   0.123
14624WAT      O44113   6.703   7.069   5.367
14624WAT     H144114   6.646   7.044   5.445
14624WAT     H244115   6.771   7.136   5.395
14625WAT      O44116   4.515   3.197   2.562
14625WAT     H144117   4.532   3.180   2.659
14625WAT     H244118   4.457   3.278   2.552
14626WAT      O44119   0.479   2.741   0.381
14626WAT     H144120   0.566   2.723   0.336
14626WAT     H244121   0.416   2.665   0.361
14627WAT      O44122   4.171   2.553   5.994
14627WAT     H144123   4.167   2.489   6.070
14627WAT     H244124   4.135   2.642   6.023
14628WAT      O44125   5.257   0.233   5.430
14628WAT     H144126   5.161   0.219   5.409
14628WAT     H244127   5.299   0.146   5.454
14629WAT      O44128   9.622   5.413   4.559
14629WAT     H144129   9.586   5.422   4.467
14629WAT     H244130   9.703   5.470   4.569
14630WAT      O44131   6.774   7.617   1.302
14630WAT     H144132   6.841   7.597   1.231
14630WAT     H244133   6.761   7.716   1.308
14631WAT      O44134   1.928   5.620   3.105
14631WAT     H144135   1.840   5.631   3.153
14631WAT     H244136   2.003   5.641   3.168
14632WAT      O44137   8.245   5.830   9.745
14632WAT     H144138   8.168   5.782   9.703
14632WAT     H244139   8.268   5.911   9.690
14633WAT      O44140   0.382   9.188   4.057
14633WAT     H144141   0.392   9.206   3.959
14633WAT     H244142   0.378   9.275   4.106
14634WAT      O44143   2.735   3.640   2.934
14634WAT     H144144   2.769   3.627   2.840
14634WAT     H244145   2.765   3.729   2.967
14635WAT      O44146   2.077   6.438   6.220
14635WAT     H144147   2.119   6.407   6.305
14635WAT     H244148   2.148   6.467   6.156
14636WAT      O44149   0.925   9.559   7.000
14636WAT     H144150   0.899   9.462   7.009
14636WAT     H244151   1.023   9.569   7.019
14637WAT      O44152   1.859   2.345   0.916
14637WAT     H144153   1.903   2.273   0.862
14637WAT     H244154   1.923   2.378   0.985
14638WAT      O44155   1.325   3.210   2.647
14638WAT     H144156   1.421   3.186   2.637
14638WAT     H244157   1.289   3.244   2.559
14639WAT      O44158   3.104   6.867   1.299
14639WAT     H144159   3.072   6.906   1.213
14639WAT     H244160   3.077   6.770   1.304
14640WAT      O44161   1.247   1.069   5.838
14640WAT     H144162   1.230   0.988   5.893
14640WAT     H244163   1.182   1.141   5.862
14641WAT      O44164   4.300   2.336   7.692
14641WAT     H144165   4.273   2.241   7.675
14641WAT     H244166   4.225   2.397   7.664
14642WAT      O44167   2.855   9.293   6.599
14642WAT     H144168   2.831   9.371   6.543
14642WAT     H244169   2.838   9.208   6.548
14643WAT      O44170   0.434   0.937   9.578
14643WAT     H144171   0.438   0.942   9.478
14643WAT     H244172   0.401   1.024   9.615
14644WAT      O44173   8.434   8.650   5.448
14644WAT     H144174   8.502   8.674   5.378
14644WAT     H244175   8.351   8.703   5.433
14645WAT      O44176   0.835   0.161   5.027
14645WAT     H144177   0.789   0.083   5.069
14645WAT     H244178   0.933   0.153   5.040
14646WAT      O44179   0.556   5.595   5.143
14646WAT     H144180   0.653   5.606   5.166
14646WAT     H244181   0.523   5.508   5.179
14647WAT      O44182   4.899   7.525   4.067
14647WAT     H144183   4.804   7.513   4.039
14647WAT     H244184   4.909   7.614   4.113
14648WAT      O44185   0.502   8.610   0.394
14648WAT     H144186   0.561   8.530   0.385
14648WAT     H244187   0.530   8.664   0.474
14649WAT      O44188   9.014   3.061   7.452
14649WAT     H144189   9.071   3.098   7.526
14649WAT     H244190   9.057   2.978   7.416
14650WAT      O44191   2.242   6.627   8.864
14650WAT     H144192   2.218   6.661   8.955
14650WAT     H244193   2.328   6.670   8.835
14651WAT      O44194   4.199   1.526   8.668
14651WAT     H144195   4.193   1.466   8.588
14651WAT     H244196   4.285   1.509   8.715
14652WAT      O44197   2.680   1.437   3.089
14652WAT     H144198   2.585   1.414   3.066
14652WAT     H244199   2.682   1.489   3.174
14653WAT      O44200   2.383   8.217   6.612
14653WAT     H144201   2.329   8.299   6.592
14653WAT     H244202   2.475   8.228   6.575
14654WAT      O44203   7.926   1.988   4.900
14654WAT     H144204   7.956   1.933   4.822
14654WAT     H244205   8.007   2.023   4.948
14655WAT      O44206   4.658   8.608   7.733
14655WAT     H144207   4.577   8.618   7.790
14655WAT     H244208   4.641   8.540   7.662
14656WAT      O44209   1.448   8.501   9.472
14656WAT     H144210   1.462   8.518   9.374
14656WAT     H244211   1.424   8.404   9.486
14657WAT      O44212   9.098   0.715   0.280
14657WAT     H144213   9.167   0.683   0.215
14657WAT     H244214   9.027   0.765   0.231
14658WAT      O44215   0.433   3.816   9.285
14658WAT     H144216   0.408   3.866   9.368
14658WAT     H244217   0.350   3.793   9.234
14659WAT      O44218   5.993   7.721   6.907
14659WAT     H144219   5.922   7.674   6.960
14659WAT     H244220   6.036   7.657   6.844
14660WAT      O44221   5.179   4.828   8.521
14660WAT     H144222   5.104   4.867   8.575
14660WAT     H244223   5.210   4.895   8.453
14661WAT      O44224   9.825   7.389   2.158
14661WAT     H144225   9.868   7.350   2.077
14661WAT     H244226   9.727   7.369   2.156
14662WAT      O44227   8.540   8.812   4.385
14662WAT     H144228   8.616   8.877   4.378
14662WAT     H244229   8.459   8.851   4.341
14663WAT      O44230   0.710   7.728   5.120
14663WAT     H144231   0.766   7.753   5.200
14663WAT     H244232   0.648   7.804   5.098
14664WAT      O44233   1.946   5.888   1.094
14664WAT     H144234   1.909   5.981   1.101
14664WAT     H244235   1.977   5.857   1.183
14665WAT      O44236   2.008   1.080   2.354
14665WAT     H144237   1.950   1.086   2.436
14665WAT     H244238   1.983   0.998   2.303
14666WAT      O44239   7.111   6.027   3.601
14666WAT     H144240   7.173   5.955   3.634
14666WAT     H244241   7.116   6.105   3.663
14667WAT      O44242   1.255   3.719   0.076
14667WAT     H144243   1.239   3.634   0.026
14667WAT     H244244   1.299   3.786   0.016
14668WAT      O44245   2.494   6.465   5.764
14668WAT     H144246   2.572   6.518   5.732
14668WAT     H244247   2.430   6.450   5.689
14669WAT      O44248   0.339   5.160   9.419
14669WAT     H144249   0.394   5.230   9.374
14669WAT     H244250   0.280   5.204   9.488
14670WAT      O44251   2.907   3.576   8.230
14670WAT     H144252   2.829   3.514   8.238
14670WAT     H244253   2.890   3.659   8.283
14671WAT      O44254   8.813   6.163   3.044
14671WAT     H144255   8.861   6.183   3.130
14671WAT     H244256   8.795   6.248   2.995
14672WAT      O44257   2.265   0.459   1.555
14672WAT     H144258   2.335   0.520   1.593
14672WAT     H244259   2.184   0.462   1.613
14673WAT      O44260   2.572   2.294   4.925
14673WAT     H144261   2.505   2.333   4.988
14673WAT     H244262   2.585   2.197   4.945
14674WAT      O44263   3.245   3.537   0.141
14674WAT     H144264   3.313   3.569   0.076
14674WAT     H244265   3.280   3.457   0.190
14675WAT      O44266   6.415   2.371   0.568
14675WAT     H144267   6.414   2.409   0.661
14675WAT     H244268   6.468   2.286   0.568
14676WAT      O44269   9.115   8.990   8.327
14676WAT     H144270   9.186   8.937   8.372
14676WAT     H244271   9.113   8.968   8.229
14677WAT      O44272   5.589   8.281   2.789
14677WAT     H144273   5.507   8.338   2.780
14677WAT     H244274   5.656   8.308   2.720
14678WAT      O44275   3.114   7.424   5.159
14678WAT     H144276   3.137   7.437   5.255
14678WAT     H244277   3.190   7.380   5.111
14679WAT      O44278   7.023   2.326   9.884
14679WAT     H144279   7.004   2.320   9.982
14679WAT     H244280   6.938   2.338   9.834
14680WAT      O44281   4.231   8.618   9.762
14680WAT     H144282   4.138   8.639   9.790
14680WAT     H244283   4.230   8.544   9.694
14681WAT      O44284   2.977   4.117   6.562
14681WAT     H144285   2.890   4.161   6.544
14681WAT     H244286   3.051   4.167   6.517
14682WAT      O44287   6.924   3.116   1.241
14682WAT     H144288   6.984   3.188   1.276
14682WAT     H244289   6.847   3.158   1.192
14683WAT      O44290   4.033   2.943   7.922
14683WAT     H144291   3.936   2.948   7.946
14683WAT     H244292   4.079   3.027   7.949
14684WAT      O44293   0.145   0.598   4.553
14684WAT     H144294   0.112   0.596   4.647
14684WAT     H244295   0.207   0.521   4.538
14685WAT      O44296   7.763   0.930   3.617
14685WAT     H144297   7.785   0.913   3.521
14685WAT     H244298   7.848   0.937   3.669
14686WAT      O44299   3.097   9.550   4.108
14686WAT     H144300   3.137   9.478   4.164
14686WAT     H244301   3.144   9.554   4.020
14687WAT      O44302   9.037   6.070   5.721
14687WAT     H144303   9.131   6.093   5.746
14687WAT     H244304   9.008   5.988   5.770
14688WAT      O44305   4.066   0.293   7.730
14688WAT     H144306   4.002   0.290   7.807
14688WAT     H244307   4.044   0.372   7.672
14689WAT      O44308   1.745   0.098   9.173
14689WAT     H144309   1.663   0.154   9.175
14689WAT     H244310   1.784   0.099   9.080
14690WAT      O44311   2.577   9.567   8.117
14690WAT     H144312   2.674   9.592   8.115
14690WAT     H244313   2.549   9.532   8.028
14691WAT      O44314   2.257   0.128   0.518
14691WAT     H144315   2.215   0.079   0.441
14691WAT     H244316   2.194   0.130   0.595
14692WAT      O44317   6.746   1.992   6.806
14692WAT     H144318   6.720   1.987   6.902
14692WAT     H244319   6.667   2.020   6.752
14693WAT      O44320   2.652   6.936   2.572
14693WAT     H144321   2.727   6.888   2.618
14693WAT     H244322   2.568   6.882   2.581
14694WAT      O44323   3.841   0.569   8.920
14694WAT     H144324   3.814   0.478   8.951
14694WAT     H244325   3.919   0.600   8.974
14695WAT      O44326   5.605   4.306   6.413
14695WAT     H144327   5.672   4.304   6.339
14695WAT     H244328   5.594   4.399   6.447
14696WAT      O44329   4.577   6.446   6.439
14696WAT     H144330   4.629   6.505   6.501
14696WAT     H244331   4.572   6.353   6.477
14697WAT      O44332   0.330   6.177   3.447
14697WAT     H144333   0.234   6.184   3.473
14697WAT     H244334   0.366   6.088   3.475
14698WAT      O44335   3.441   8.979   6.456
14698WAT     H144336   3.356   8.976   6.509
14698WAT     H244337   3.436   8.914   6.380
14699WAT      O44338   6.846   1.708   8.562
14699WAT     H144339   6.886   1.629   8.609
14699WAT     H244340   6.763   1.736   8.609
14700WAT      O44341   1.399   6.093   5.512
14700WAT     H144342   1.471   6.107   5.443
14700WAT     H244343   1.328   6.035   5.474
14701WAT      O44344   3.600   0.608   7.146
14701WAT     H144345   3.637   0.616   7.053
14701WAT     H244346   3.590   0.699   7.186
14702WAT      O44347   4.496   6.582   4.095
14702WAT     H144348   4.592   6.601   4.074
14702WAT     H244349   4.490   6.503   4.156
14703WAT      O44350   6.916   5.522   2.406
14703WAT     H144351   6.870   5.570   2.481
14703WAT     H244352   6.851   5.459   2.363
14704WAT      O44353   9.008   7.964   5.974
14704WAT     H144354   8.990   8.062   5.964
14704WAT     H244355   8.950   7.912   5.912
14705WAT      O44356   0.955   1.083   6.387
14705WAT     H144357   0.897   1.153   6.429
14705WAT     H244358   1.010   1.123   6.314
14706WAT      O44359   0.996   0.949   0.243
14706WAT     H144360   0.938   0.908   0.312
14706WAT     H244361   0.939   0.992   0.172
14707WAT      O44362   8.215   0.055   5.040
14707WAT     H144363   8.234  -0.024   4.982
14707WAT     H244364   8.261   0.044   5.128
14708WAT      O44365   3.208   6.913   4.181
14708WAT     H144366   3.259   6.992   4.147
14708WAT     H244367   3.111   6.938   4.191
14709WAT      O44368   8.350   4.526   6.360
14709WAT     H144369   8.386   4.434   6.375
14709WAT     H244370   8.278   4.523   6.292
14710WAT      O44371   0.505   4.149   8.728
14710WAT     H144372   0.504   4.223   8.660
14710WAT     H244373   0.412   4.116   8.742
14711WAT      O44374   4.537   1.180   9.620
14711WAT     H144375   4.512   1.215   9.710
14711WAT     H244376   4.455   1.170   9.564
14712WAT      O44377   2.114   0.790   3.386
14712WAT     H144378   2.035   0.739   3.352
14712WAT     H244379   2.178   0.806   3.311
14713WAT      O44380   1.080   8.365   8.589
14713WAT     H144381   1.039   8.424   8.659
14713WAT     H244382   1.149   8.417   8.538
14714WAT      O44383   4.432   3.832   8.788
14714WAT     H144384   4.440   3.746   8.738
14714WAT     H244385   4.363   3.822   8.860
14715WAT      O44386   4.805   1.905   2.313
14715WAT     H144387   4.779   1.973   2.382
14715WAT     H244388   4.727   1.847   2.291
14716WAT      O44389   5.145   8.676   8.643
14716WAT     H144390   5.239   8.696   8.614
14716WAT     H244391   5.135   8.697   8.740
14717WAT      O44392   7.229   4.628   3.940
14717WAT     H144393   7.205   4.610   4.035
14717WAT     H244394   7.222   4.726   3.922
14718WAT      O44395   7.252   3.847   9.649
14718WAT     H144396   7.305   3.802   9.577
14718WAT     H244397   7.311   3.868   9.726
14719WAT      O44398   0.158   2.199   4.066
14719WAT     H144399   0.120   2.291   4.061
14719WAT     H244400   0.232   2.190   4.000
14720WAT      O44401   5.698   2.076   3.154
14720WAT     H144402   5.718   2.145   3.223
14720WAT     H244403   5.617   2.104   3.102
14721WAT      O44404   8.183   3.366   1.543
14721WAT     H144405   8.248   3.428   1.586
14721WAT     H244406   8.194   3.274   1.582
14722WAT      O44407   5.313   2.288   0.974
14722WAT     H144408   5.398   2.282   1.026
14722WAT     H244409   5.295   2.200   0.929
14723WAT      O44410   1.944   4.044   0.786
14723WAT     H144411   1.918   3.956   0.825
14723WAT     H244412   2.014   4.087   0.843
14724WAT      O44413   1.621   4.908   5.550
14724WAT     H144414   1.597   4.816   5.582
14724WAT     H244415   1.549   4.942   5.490
14725WAT      O44416   2.606   7.731   7.658
14725WAT     H144417   2.562   7.702   7.573
14725WAT     H244418   2.638   7.651   7.708
14726WAT      O44419   0.676   0.165   6.640
14726WAT     H144420   0.629   0.226   6.704
14726WAT     H244421   0.612   0.095   6.608
14727WAT      O44422   8.683   7.418   2.723
14727WAT     H144423   8.639   7.378   2.803
14727WAT     H244424   8.782   7.399   2.727
14728WAT      O44425   8.146   4.157   1.568
14728WAT     H144426   8.053   4.187   1.590
14728WAT     H244427   8.190   4.224   1.509
14729WAT      O44428   7.356   5.313   7.230
14729WAT     H144429   7.422   5.384   7.253
14729WAT     H244430   7.301   5.341   7.151
14730WAT      O44431   0.642   8.055   6.887
14730WAT     H144432   0.627   8.149   6.855
14730WAT     H244433   0.555   8.006   6.888
14731WAT      O44434   1.482   8.922   5.817
14731WAT     H144435   1.443   8.958   5.732
14731WAT     H244436   1.488   8.823   5.812
14732WAT      O44437   9.147   1.686   7.005
14732WAT     H144438   9.206   1.752   6.959
14732WAT     H244439   9.153   1.598   6.958
14733WAT      O44440   2.470   3.589   2.944
14733WAT     H144441   2.433   3.678   2.917
14733WAT     H244442   2.570   3.594   2.944
14734WAT      O44443   4.418   4.943   9.769
14734WAT     H144444   4.410   4.916   9.866
14734WAT     H244445   4.395   4.865   9.711
14735WAT      O44446   9.003   1.065   7.435
14735WAT     H144447   8.965   1.004   7.366
14735WAT     H244448   8.975   1.035   7.526
14736WAT      O44449   2.462   9.268   5.224
14736WAT     H144450   2.413   9.355   5.232
14736WAT     H244451   2.454   9.233   5.131
14737WAT      O44452   0.352   8.287   6.100
14737WAT     H144453   0.395   8.217   6.157
14737WAT     H244454   0.328   8.366   6.156
14738WAT      O44455   0.809   8.935   5.153
14738WAT     H144456   0.871   8.931   5.231
14738WAT     H244457   0.716   8.917   5.185
14739WAT      O44458   7.466   8.076   0.211
14739WAT     H144459   7.371   8.094   0.187
14739WAT     H244460   7.525   8.135   0.157
14740WAT      O44461   9.046   2.497   1.077
14740WAT     H144462   9.015   2.426   1.014
14740WAT     H244463   9.002   2.584   1.053
14741WAT      O44464   2.130   2.163   6.423
14741WAT     H144465   2.163   2.171   6.518
14741WAT     H244466   2.115   2.254   6.385
14742WAT      O44467   6.986   3.124   2.081
14742WAT     H144468   7.058   3.063   2.049
14742WAT     H244469   6.973   3.113   2.179
14743WAT      O44470   6.258   2.713   9.671
14743WAT     H144471   6.237   2.758   9.584
14743WAT     H244472   6.338   2.653   9.659
14744WAT      O44473   1.631   3.526   8.094
14744WAT     H144474   1.635   3.562   8.187
14744WAT     H244475   1.536   3.528   8.062
14745WAT      O44476   7.868   2.737   4.899
14745WAT     H144477   7.908   2.767   4.812
14745WAT     H244478   7.867   2.814   4.963
14746WAT      O44479   0.509   3.205   2.019
14746WAT     H144480   0.469   3.125   2.062
14746WAT     H244481   0.543   3.180   1.928
14747WAT      O44482   2.918   2.287   7.654
14747WAT     H144483   2.962   2.298   7.565
14747WAT     H244484   2.842   2.222   7.645
14748WAT      O44485   3.425   1.241   0.956
14748WAT     H144486   3.505   1.300   0.946
14748WAT     H244487   3.443   1.153   0.911
14749WAT      O44488   4.765   0.977   1.094
14749WAT     H144489   4.814   0.968   1.007
14749WAT     H244490   4.738   1.073   1.107
14750WAT      O44491   0.989   6.109   8.752
14750WAT     H144492   1.024   6.183   8.810
14750WAT     H244493   1.025   6.119   8.659
14751WAT      O44494   2.689   4.718   4.716
14751WAT     H144495   2.652   4.653   4.783
14751WAT     H244496   2.735   4.792   4.764
14752WAT      O44497   1.555   6.724   3.732
14752WAT     H144498   1.478   6.692   3.677
14752WAT     H244499   1.621   6.649   3.743
14753WAT      O44500   6.385   8.745   0.800
14753WAT     H144501   6.442   8.821   0.767
14753WAT     H244502   6.443   8.667   0.820
14754WAT      O44503   6.671   5.043   2.105
14754WAT     H144504   6.739   5.019   2.175
14754WAT     H244505   6.605   4.969   2.095
14755WAT      O44506   5.343   4.552   1.125
14755WAT     H144507   5.263   4.599   1.088
14755WAT     H244508   5.313   4.484   1.193
14756WAT      O44509   2.424   1.149   9.160
14756WAT     H144510   2.339   1.114   9.120
14756WAT     H244511   2.403   1.196   9.246
14757WAT      O44512   0.235   2.173   7.921
14757WAT     H144513   0.306   2.199   7.987
14757WAT     H244514   0.170   2.249   7.911
14758WAT      O44515   3.589   5.699   7.057
14758WAT     H144516   3.576   5.652   7.144
14758WAT     H244517   3.669   5.661   7.010
14759WAT      O44518   6.801   9.580   6.248
14759WAT     H144519   6.865   9.589   6.173
14759WAT     H244520   6.766   9.486   6.252
14760WAT      O44521   4.294   9.231   2.894
14760WAT     H144522   4.386   9.208   2.928
14760WAT     H244523   4.302   9.293   2.816
14761WAT      O44524   8.264   6.879   5.253
14761WAT     H144525   8.248   6.942   5.328
14761WAT     H244526   8.362   6.865   5.240
14762WAT      O44527   1.145   4.304   5.151
14762WAT     H144528   1.227   4.361   5.156
14762WAT     H244529   1.147   4.250   5.067
14763WAT      O44530   9.213   0.648   3.613
14763WAT     H144531   9.304   0.650   3.653
14763WAT     H244532   9.167   0.735   3.630
14764WAT      O44533   7.415   3.179   3.408
14764WAT     H144534   7.494   3.169   3.347
14764WAT     H244535   7.353   3.247   3.370
14765WAT      O44536   8.559   7.289   8.006
14765WAT     H144537   8.554   7.346   7.924
14765WAT     H244538   8.549   7.193   7.981
14766WAT      O44539   6.834   5.513   8.178
14766WAT     H144540   6.906   5.582   8.170
14766WAT     H244541   6.824   5.466   8.090
14767WAT      O44542   0.011   1.217   2.972
14767WAT     H144543  -0.002   1.180   2.880
14767WAT     H244544  -0.068   1.195   3.029
14768WAT      O44545   7.684   8.550   7.616
14768WAT     H144546   7.605   8.608   7.597
14768WAT     H244547   7.768   8.603   7.605
14769WAT      O44548   6.559   4.718   7.751
14769WAT     H144549   6.655   4.728   7.724
14769WAT     H244550   6.545   4.625   7.784
14770WAT      O44551   1.072   7.230   7.886
14770WAT     H144552   1.109   7.202   7.974
14770WAT     H244553   1.048   7.149   7.832
14771WAT      O44554   9.797   5.549   1.949
14771WAT     H144555   9.741   5.559   2.031
14771WAT     H244556   9.777   5.624   1.885
14772WAT      O44557   4.558   5.677   6.854
14772WAT     H144558   4.521   5.720   6.936
14772WAT     H244559   4.572   5.746   6.783
14773WAT      O44560   1.437   2.115   1.423
14773WAT     H144561   1.432   2.093   1.520
14773WAT     H244562   1.522   2.164   1.405
14774WAT      O44563   3.553   3.128   1.324
14774WAT     H144564   3.650   3.115   1.345
14774WAT     H244565   3.499   3.059   1.372
14775WAT      O44566   6.541   1.802   1.128
14775WAT     H144567   6.518   1.721   1.073
14775WAT     H244568   6.523   1.885   1.074
14776WAT      O44569   8.693   0.180   3.127
14776WAT     H144570   8.749   0.160   3.046
14776WAT     H244571   8.719   0.269   3.165
14777WAT      O44572   0.020   6.956   5.067
14777WAT     H144573   0.059   6.870   5.098
14777WAT     H244574   0.089   7.028   5.072
14778WAT      O44575   8.649   3.332   2.161
14778WAT     H144576   8.700   3.413   2.132
14778WAT     H244577   8.662   3.259   2.094
14779WAT      O44578   1.458   5.120   5.700
14779WAT     H144579   1.464   5.093   5.604
14779WAT     H244580   1.372   5.088   5.738
14780WAT      O44581   8.957   8.266   6.998
14780WAT     H144582   8.940   8.322   7.079
14780WAT     H244583   9.039   8.211   7.012
14781WAT      O44584   7.267   6.449   3.412
14781WAT     H144585   7.252   6.533   3.464
14781WAT     H244586   7.364   6.441   3.389
14782WAT      O44587   4.623   6.152   3.465
14782WAT     H144588   4.618   6.156   3.365
14782WAT     H244589   4.531   6.156   3.503
14783WAT      O44590   3.199   6.864   3.014
14783WAT     H144591   3.243   6.947   2.979
14783WAT     H244592   3.267   6.792   3.023
14784WAT      O44593   0.801   6.657   4.611
14784WAT     H144594   0.821   6.649   4.709
14784WAT     H244595   0.813   6.568   4.567
14785WAT      O44596   3.280   8.451   7.242
14785WAT     H144597   3.267   8.372   7.301
14785WAT     H244598   3.230   8.437   7.156
14786WAT      O44599   0.391   4.986   1.622
14786WAT     H144600   0.351   5.069   1.583
14786WAT     H244601   0.354   4.906   1.575
14787WAT      O44602   9.714   0.268   2.565
14787WAT     H144603   9.775   0.241   2.490
14787WAT     H244604   9.765   0.323   2.631
14788WAT      O44605   3.395   8.595   1.469
14788WAT     H144606   3.374   8.682   1.423
14788WAT     H244607   3.494   8.589   1.484
14789WAT      O44608   6.775   6.539   0.561
14789WAT     H144609   6.865   6.575   0.584
14789WAT     H244610   6.766   6.446   0.598
14790WAT      O44611   5.063   7.881   4.542
14790WAT     H144612   4.984   7.827   4.571
14790WAT     H244613   5.088   7.945   4.615
14791WAT      O44614   8.731   1.045   8.239
14791WAT     H144615   8.664   1.088   8.300
14791WAT     H244616   8.818   1.037   8.287
14792WAT      O44617   8.569   6.182   5.633
14792WAT     H144618   8.582   6.192   5.732
14792WAT     H244619   8.649   6.136   5.594
14793WAT      O44620   3.547   1.229   8.303
14793WAT     H144621   3.472   1.290   8.327
14793WAT     H244622   3.633   1.265   8.340
14794WAT      O44623   1.410   0.201   4.131
14794WAT     H144624   1.506   0.186   4.154
14794WAT     H244625   1.379   0.129   4.068
14795WAT      O44626   2.144   7.468   2.606
14795WAT     H144627   2.220   7.444   2.545
14795WAT     H244628   2.180   7.515   2.687
14796WAT      O44629   6.298   7.033   0.508
14796WAT     H144630   6.276   7.060   0.414
14796WAT     H244631   6.258   7.099   0.572
14797WAT      O44632   6.181   9.569   5.068
14797WAT     H144633   6.105   9.505   5.055
14797WAT     H244634   6.255   9.524   5.117
14798WAT      O44635   0.751   0.904   4.043
14798WAT     H144636   0.788   0.899   4.136
14798WAT     H244637   0.721   0.813   4.014
14799WAT      O44638   4.392   7.961   2.162
14799WAT     H144639   4.293   7.962   2.179
14799WAT     H244640   4.414   7.887   2.098
14800WAT      O44641   5.661   4.120   7.738
14800WAT     H144642   5.742   4.104   7.794
14800WAT     H244643   5.589   4.057   7.765
14801WAT      O44644   0.563   1.946   2.459
14801WAT     H144645   0.613   1.882   2.400
14801WAT     H244646   0.594   1.934   2.554
14802WAT      O44647   8.546   1.698   4.966
14802WAT     H144648   8.638   1.696   4.928
14802WAT     H244649   8.479   1.701   4.892
14803WAT      O44650   6.916   4.491   8.400
14803WAT     H144651   6.906   4.572   8.458
14803WAT     H244652   6.827   4.466   8.363
14804WAT      O44653   4.809   1.547   6.565
14804WAT     H144654   4.814   1.487   6.485
14804WAT     H244655   4.716   1.549   6.600
14805WAT      O44656   4.887   7.178   1.351
14805WAT     H144657   4.831   7.222   1.280
14805WAT     H244658   4.840   7.184   1.439
14806WAT      O44659   8.113   8.745   6.481
14806WAT     H144660   8.109   8.700   6.392
14806WAT     H244661   8.126   8.676   6.553
14807WAT      O44662   6.680   9.704   3.223
14807WAT     H144663   6.720   9.631   3.279
14807WAT     H244664   6.719   9.702   3.132
14808WAT      O44665   8.710   9.116   0.160
14808WAT     H144666   8.762   9.031   0.152
14808WAT     H244667   8.769   9.194   0.139
14809WAT      O44668   6.714   1.741   2.223
14809WAT     H144669   6.654   1.727   2.302
14809WAT     H244670   6.802   1.777   2.254
14810WAT      O44671   2.141   6.223   6.776
14810WAT     H144672   2.102   6.274   6.852
14810WAT     H244673   2.236   6.251   6.761
14811WAT      O44674   3.929   6.776   5.044
14811WAT     H144675   3.970   6.685   5.040
14811WAT     H244676   3.851   6.775   5.106
14812WAT      O44677   8.585   5.542   1.173
14812WAT     H144678   8.593   5.635   1.211
14812WAT     H244679   8.556   5.548   1.078
14813WAT      O44680   4.104   8.864   8.927
14813WAT     H144681   4.121   8.934   8.859
14813WAT     H244682   4.103   8.905   9.018
14814WAT      O44683   5.091   3.659   3.093
14814WAT     H144684   5.168   3.636   3.153
14814WAT     H244685   5.042   3.575   3.069
14815WAT      O44686   8.245   9.056   5.369
14815WAT     H144687   8.209   8.967   5.398
14815WAT     H244688   8.344   9.051   5.362
14816WAT      O44689   1.203   4.264   3.990
14816WAT     H144690   1.236   4.171   3.974
14816WAT     H244691   1.279   4.321   4.022
14817WAT      O44692   6.661   7.797   2.588
14817WAT     H144693   6.636   7.779   2.683
14817WAT     H244694   6.648   7.714   2.534
14818WAT      O44695   0.250   6.117   9.804
14818WAT     H144696   0.197   6.074   9.877
14818WAT     H244697   0.342   6.137   9.836
14819WAT      O44698   3.507   5.765   8.682
14819WAT     H144699   3.575   5.692   8.680
14819WAT     H244700   3.507   5.814   8.595
14820WAT      O44701   9.554   7.285   3.563
14820WAT     H144702   9.648   7.315   3.546
14820WAT     H244703   9.529   7.215   3.496
14821WAT      O44704   5.582   2.448   7.753
14821WAT     H144705   5.609   2.449   7.657
14821WAT     H244706   5.612   2.362   7.795
14822WAT      O44707   4.186   1.302   4.870
14822WAT     H144708   4.229   1.388   4.897
14822WAT     H244709   4.161   1.305   4.773
14823WAT      O44710   2.011   1.315   8.002
14823WAT     H144711   1.921   1.346   7.972
14823WAT     H244712   2.038   1.366   8.084
14824WAT      O44713   4.753   4.632   9.255
14824WAT     H144714   4.807   4.712   9.227
14824WAT     H244715   4.660   4.661   9.277
14825WAT      O44716   8.548   4.502   0.276
14825WAT     H144717   8.493   4.418   0.275
14825WAT     H244718   8.510   4.567   0.210
14826WAT      O44719   1.948   0.178   7.277
14826WAT     H144720   1.918   0.230   7.357
14826WAT     H244721   1.990   0.092   7.306
14827WAT      O44722   5.973   6.074   4.724
14827WAT     H144723   5.961   6.073   4.624
14827WAT     H244724   5.957   5.982   4.760
14828WAT      O44725   3.155   9.337   4.264
14828WAT     H144726   3.201   9.299   4.344
14828WAT     H244727   3.171   9.277   4.185
14829WAT      O44728   9.753   9.542   8.082
14829WAT     H144729   9.832   9.502   8.128
14829WAT     H244730   9.693   9.469   8.050
14830WAT      O44731   4.874   1.514   4.123
14830WAT     H144732   4.925   1.434   4.154
14830WAT     H244733   4.871   1.515   4.023
14831WAT      O44734   0.505   7.108   9.441
14831WAT     H144735   0.512   7.053   9.358
14831WAT     H244736   0.557   7.192   9.430
14832WAT      O44737   6.737   6.752   0.133
14832WAT     H144738   6.659   6.815   0.142
14832WAT     H244739   6.821   6.800   0.158
14833WAT      O44740   0.604   4.143   4.151
14833WAT     H144741   0.582   4.212   4.219
14833WAT     H244742   0.572   4.172   4.061
14834WAT      O44743   6.850   2.782   1.812
14834WAT     H144744   6.893   2.797   1.901
14834WAT     H244745   6.780   2.711   1.819
14835WAT      O44746   4.322   1.143   6.085
14835WAT     H144747   4.357   1.084   6.157
14835WAT     H244748   4.311   1.091   6.001
14836WAT      O44749   6.698   0.230   6.502
14836WAT     H144750   6.621   0.184   6.544
14836WAT     H244751   6.666   0.309   6.449
14837WAT      O44752   3.247   3.328   4.982
14837WAT     H144753   3.168   3.326   5.044
14837WAT     H244754   3.314   3.394   5.017
14838WAT      O44755   9.418   0.493   8.205
14838WAT     H144756   9.363   0.440   8.141
14838WAT     H244757   9.420   0.447   8.294
14839WAT      O44758   1.224   1.417   7.109
14839WAT     H144759   1.236   1.336   7.051
14839WAT     H244760   1.171   1.392   7.190
14840WAT      O44761   5.750   1.130   0.822
14840WAT     H144762   5.838   1.083   0.832
14840WAT     H244763   5.760   1.225   0.852
14841WAT      O44764   6.398   4.712   3.516
14841WAT     H144765   6.457   4.746   3.589
14841WAT     H244766   6.330   4.782   3.493
14842WAT      O44767   5.874   0.540   5.745
14842WAT     H144768   5.801   0.478   5.716
14842WAT     H244769   5.960   0.513   5.701
14843WAT      O44770   8.722   4.332   1.906
14843WAT     H144771   8.678   4.412   1.867
14843WAT     H244772   8.658   4.282   1.964
14844WAT      O44773   2.512   4.507   1.459
14844WAT     H144774   2.443   4.478   1.393
14844WAT     H244775   2.477   4.494   1.552
14845WAT      O44776   3.161   3.462   8.241
14845WAT     H144777   3.185   3.443   8.146
14845WAT     H244778   3.065   3.489   8.246
14846WAT      O44779   6.206   3.212   0.219
14846WAT     H144780   6.270   3.140   0.192
14846WAT     H244781   6.120   3.171   0.247
14847WAT      O44782   5.232   3.764   4.168
14847WAT     H144783   5.288   3.846   4.178
14847WAT     H244784   5.191   3.742   4.257
14848WAT      O44785   3.280   4.685   3.164
14848WAT     H144786   3.369   4.719   3.133
14848WAT     H244787   3.214   4.759   3.162
14849WAT      O44788   5.257   3.799   5.519
14849WAT     H144789   5.318   3.849   5.457
14849WAT     H244790   5.253   3.846   5.607
14850WAT      O44791   8.317   0.737   0.319
14850WAT     H144792   8.225   0.715   0.287
14850WAT     H244793   8.312   0.779   0.409
14851WAT      O44794   3.848   6.166   4.277
14851WAT     H144795   3.815   6.174   4.371
14851WAT     H244796   3.842   6.256   4.233
14852WAT      O44797   9.561   0.446   0.054
14852WAT     H144798   9.590   0.457   0.149
14852WAT     H244799   9.462   0.431   0.051
14853WAT      O44800   8.300   8.616   3.974
14853WAT     H144801   8.251   8.546   3.922
14853WAT     H244802   8.336   8.685   3.911
14854WAT      O44803   3.994   2.474   6.194
14854WAT     H144804   4.028   2.475   6.288
14854WAT     H244805   3.966   2.567   6.168
14855WAT      O44806   0.392   1.930   4.565
14855WAT     H144807   0.460   1.866   4.601
14855WAT     H244808   0.382   2.007   4.628
14856WAT      O44809   2.482   3.475   0.375
14856WAT     H144810   2.569   3.522   0.381
14856WAT     H244811   2.407   3.540   0.387
14857WAT      O44812   7.414   9.685   0.543
14857WAT     H144813   7.450   9.663   0.453
14857WAT     H244814   7.341   9.620   0.567
14858WAT      O44815   5.185   2.259   4.896
14858WAT     H144816   5.202   2.239   4.992
14858WAT     H244817   5.199   2.356   4.878
14859WAT      O44818   8.140   4.460   4.717
14859WAT     H144819   8.186   4.455   4.629
14859WAT     H244820   8.044   4.484   4.703
14860WAT      O44821   8.239   9.234   1.011
14860WAT     H144822   8.140   9.219   0.999
14860WAT     H244823   8.283   9.149   1.038
14861WAT      O44824   2.686   3.389   5.103
14861WAT     H144825   2.765   3.445   5.127
14861WAT     H244826   2.637   3.362   5.186
14862WAT      O44827   8.956   3.889   0.195
14862WAT     H144828   9.025   3.936   0.250
14862WAT     H244829   8.965   3.790   0.207
14863WAT      O44830   0.510   2.230   2.799
14863WAT     H144831   0.515   2.317   2.848
14863WAT     H244832   0.602   2.199   2.774
14864WAT      O44833   9.547   7.204   2.434
14864WAT     H144834   9.494   7.251   2.505
14864WAT     H244835   9.498   7.123   2.403
14865WAT      O44836   6.151   8.619   2.341
14865WAT     H144837   6.117   8.546   2.400
14865WAT     H244838   6.169   8.701   2.395
14866WAT      O44839   7.788   5.701   1.482
14866WAT     H144840   7.696   5.711   1.444
14866WAT     H244841   7.849   5.662   1.412
14867WAT      O44842   6.047   9.729   3.688
14867WAT     H144843   5.984   9.702   3.615
14867WAT     H244844   6.136   9.687   3.672
14868WAT      O44845   3.623   1.955   4.111
14868WAT     H144846   3.709   1.908   4.093
14868WAT     H244847   3.637   2.054   4.101
14869WAT      O44848   8.284   1.459   8.192
14869WAT     H144849   8.220   1.382   8.196
14869WAT     H244850   8.248   1.535   8.245
14870WAT      O44851   9.651   0.940   5.779
14870WAT     H144852   9.637   1.024   5.727
14870WAT     H244853   9.623   0.954   5.874
14871WAT      O44854   3.353   0.753   4.045
14871WAT     H144855   3.442   0.789   4.071
14871WAT     H244856   3.312   0.705   4.123
14872WAT      O44857   7.588   9.410   6.774
14872WAT     H144858   7.605   9.357   6.691
14872WAT     H244859   7.589   9.508   6.753
14873WAT      O44860   1.364   6.596   8.685
14873WAT     H144861   1.351   6.686   8.642
14873WAT     H244862   1.435   6.602   8.755
14874WAT      O44863   0.984   5.275   1.087
14874WAT     H144864   0.959   5.264   0.991
14874WAT     H244865   1.047   5.353   1.096
14875WAT      O44866   5.960   3.899   8.914
14875WAT     H144867   5.965   3.874   9.010
14875WAT     H244868   5.995   3.825   8.857
14876WAT      O44869   8.921   0.270   7.987
14876WAT     H144870   8.960   0.275   8.079
14876WAT     H244871   8.923   0.175   7.955
14877WAT      O44872   1.329   5.803   3.116
14877WAT     H144873   1.407   5.862   3.136
14877WAT     H244874   1.350   5.709   3.143
14878WAT      O44875   9.190   5.166   6.713
14878WAT     H144876   9.236   5.240   6.762
14878WAT     H244877   9.243   5.082   6.721
14879WAT      O44878   9.819   3.130   7.697
14879WAT     H144879   9.729   3.085   7.701
14879WAT     H244880   9.810   3.219   7.652
14880WAT      O44881   7.624   8.964   6.598
14880WAT     H144882   7.641   8.885   6.540
14880WAT     H244883   7.667   8.950   6.687
14881WAT      O44884   6.209   4.242   4.472
14881WAT     H144885   6.203   4.182   4.552
14881WAT     H244886   6.183   4.190   4.390
14882WAT      O44887   8.443   7.276   1.005
14882WAT     H144888   8.415   7.363   0.964
14882WAT     H244889   8.442   7.284   1.105
14883WAT      O44890   7.249   3.429   9.410
14883WAT     H144891   7.179   3.493   9.377
14883WAT     H244892   7.340   3.463   9.386
14884WAT      O44893   1.382   8.577   7.343
14884WAT     H144894   1.326   8.495   7.356
14884WAT     H244895   1.328   8.649   7.301
14885WAT      O44896   4.142   1.492   4.466
14885WAT     H144897   4.158   1.590   4.456
14885WAT     H244898   4.187   1.443   4.392
14886WAT      O44899   9.252   6.464   2.280
14886WAT     H144900   9.231   6.562   2.280
14886WAT     H244901   9.232   6.426   2.190
14887WAT      O44902   8.421   0.575   3.315
14887WAT     H144903   8.391   0.484   3.287
14887WAT     H244904   8.373   0.644   3.261
14888WAT      O44905   4.468   8.589   8.637
14888WAT     H144906   4.384   8.616   8.683
14888WAT     H244907   4.457   8.601   8.538
14889WAT      O44908   8.566   9.080   8.179
14889WAT     H144909   8.542   8.991   8.217
14889WAT     H244910   8.486   9.139   8.178
14890WAT      O44911   9.414   5.286   5.873
14890WAT     H144912   9.398   5.200   5.825
14890WAT     H244913   9.390   5.276   5.969
14891WAT      O44914   8.859   7.699   2.132
14891WAT     H144915   8.819   7.627   2.188
14891WAT     H244916   8.938   7.662   2.081
14892WAT      O44917   1.260   6.964   7.884
14892WAT     H144918   1.359   6.977   7.879
14892WAT     H244919   1.219   6.987   7.796
14893WAT      O44920   9.575   8.404   7.331
14893WAT     H144921   9.500   8.344   7.360
14893WAT     H244922   9.538   8.477   7.273
14894WAT      O44923   6.593   9.468   0.470
14894WAT     H144924   6.665   9.429   0.414
14894WAT     H244925   6.584   9.415   0.555
14895WAT      O44926   0.810   9.259   6.937
14895WAT     H144927   0.764   9.276   6.850
14895WAT     H244928   0.867   9.177   6.930
14896WAT      O44929   0.536   1.468   6.789
14896WAT     H144930   0.513   1.566   6.784
14896WAT     H244931   0.627   1.458   6.829
14897WAT      O44932   2.663   1.538   1.070
14897WAT     H144933   2.617   1.499   1.149
14897WAT     H244934   2.750   1.491   1.055
14898WAT      O44935   0.746   4.886   3.157
14898WAT     H144936   0.799   4.959   3.114
14898WAT     H244937   0.697   4.923   3.236
14899WAT      O44938   0.267   2.532   5.220
14899WAT     H144939   0.335   2.498   5.155
14899WAT     H244940   0.255   2.630   5.207
14900WAT      O44941   6.149   3.168   3.685
14900WAT     H144942   6.237   3.124   3.704
14900WAT     H244943   6.075   3.110   3.718
14901WAT      O44944   4.154   4.574   3.444
14901WAT     H144945   4.054   4.579   3.448
14901WAT     H244946   4.185   4.488   3.484
14902WAT      O44947   6.330   0.638   8.191
14902WAT     H144948   6.357   0.569   8.258
14902WAT     H244949   6.362   0.610   8.100
14903WAT      O44950   5.858   7.032   2.257
14903WAT     H144951   5.854   7.130   2.279
14903WAT     H244952   5.907   7.020   2.170
14904WAT      O44953   3.900   6.917   2.623
14904WAT     H144954   3.854   6.845   2.676
14904WAT     H244955   3.831   6.977   2.583
14905WAT      O44956   5.653   0.875   7.640
14905WAT     H144957   5.658   0.971   7.612
14905WAT     H244958   5.643   0.870   7.739
14906WAT      O44959   5.455   2.166   2.713
14906WAT     H144960   5.479   2.253   2.670
14906WAT     H244961   5.374   2.127   2.669
14907WAT      O44962   7.475   1.886   4.042
14907WAT     H144963   7.477   1.979   4.006
14907WAT     H244964   7.527   1.826   3.982
14908WAT      O44965   5.886   8.674   8.399
14908WAT     H144966   5.893   8.583   8.357
14908WAT     H244967   5.916   8.743   8.333
14909WAT      O44968   3.804   0.402   9.524
14909WAT     H144969   3.720   0.403   9.577
14909WAT     H244970   3.882   0.421   9.584
14910WAT      O44971   1.399   4.348   5.739
14910WAT     H144972   1.442   4.429   5.779
14910WAT     H244973   1.376   4.366   5.643
14911WAT      O44974   1.606   5.654   7.151
14911WAT     H144975   1.618   5.665   7.249
14911WAT     H244976   1.639   5.564   7.123
14912WAT      O44977   0.310   1.318   6.074
14912WAT     H144978   0.249   1.388   6.039
14912WAT     H244979   0.306   1.315   6.173
14913WAT      O44980   2.844   7.319   2.640
14913WAT     H144981   2.756   7.350   2.674
14913WAT     H244982   2.890   7.393   2.592
14914WAT      O44983   0.797   4.843   2.798
14914WAT     H144984   0.697   4.842   2.798
14914WAT     H244985   0.830   4.900   2.874
14915WAT      O44986   8.644   5.822   6.482
14915WAT     H144987   8.719   5.793   6.541
14915WAT     H244988   8.638   5.762   6.403
14916WAT      O44989   1.138   8.142   5.340
14916WAT     H144990   1.185   8.167   5.255
14916WAT     H244991   1.193   8.171   5.418
14917WAT      O44992   2.391   0.532   4.593
14917WAT     H144993   2.396   0.487   4.683
14917WAT     H244994   2.366   0.465   4.524
14918WAT      O44995   5.579   5.268   1.149
14918WAT     H144996   5.647   5.197   1.167
14918WAT     H244997   5.612   5.329   1.078
14919WAT      O44998   6.484   7.230   2.018
14919WAT     H144999   6.394   7.257   1.983
14919WAT     H245000   6.553   7.249   1.948
14920WAT      O45001   6.896   0.467   0.409
14920WAT     H145002   6.944   0.393   0.457
14920WAT     H245003   6.963   0.534   0.377
14921WAT      O45004   0.350   1.036   5.951
14921WAT     H145005   0.327   1.110   6.015
14921WAT     H245006   0.285   1.036   5.875
14922WAT      O45007   3.406   5.936   7.088
14922WAT     H145008   3.467   5.858   7.075
14922WAT     H245009   3.441   5.993   7.163
14923WAT      O45010   7.260   6.381   5.057
14923WAT     H145011   7.330   6.339   5.000
14923WAT     H245012   7.176   6.326   5.052
14924WAT      O45013   0.767   4.580   9.329
14924WAT     H145014   0.751   4.652   9.396
14924WAT     H245015   0.743   4.613   9.237
14925WAT      O45016   2.216   9.842   0.280
14925WAT     H145017   2.284   9.773   0.255
14925WAT     H245018   2.220   9.917   0.214
14926WAT      O45019   5.197   2.726   4.131
14926WAT     H145020   5.193   2.626   4.134
14926WAT     H245021   5.175   2.757   4.038
14927WAT      O45022   3.502   8.799   8.722
14927WAT     H145023   3.409   8.834   8.723
14927WAT     H245024   3.530   8.781   8.627
14928WAT      O45025   7.675   8.677   1.176
14928WAT     H145026   7.695   8.755   1.117
14928WAT     H245027   7.760   8.626   1.193
14929WAT      O45028   4.963   6.525   1.739
14929WAT     H145029   5.024   6.488   1.669
14929WAT     H245030   4.897   6.587   1.695
14930WAT      O45031   6.528   8.228   0.293
14930WAT     H145032   6.449   8.283   0.323
14930WAT     H245033   6.605   8.246   0.354
14931WAT      O45034   8.278   2.502   3.745
14931WAT     H145035   8.279   2.440   3.824
14931WAT     H245036   8.187   2.500   3.703
14932WAT      O45037   1.779   2.658   5.999
14932WAT     H145038   1.736   2.568   5.993
14932WAT     H245039   1.810   2.675   6.093
14933WAT      O45040   3.511   9.060   4.438
14933WAT     H145041   3.495   9.094   4.345
14933WAT     H245042   3.426   9.070   4.491
14934WAT      O45043   6.303   3.500   2.832
14934WAT     H145044   6.342   3.590   2.851
14934WAT     H245045   6.261   3.463   2.915
14935WAT      O45046   2.113   1.133   0.315
14935WAT     H145047   2.143   1.058   0.375
14935WAT     H245048   2.155   1.122   0.225
14936WAT      O45049   1.145   8.854   4.325
14936WAT     H145050   1.100   8.814   4.405
14936WAT     H245051   1.100   8.821   4.242
14937WAT      O45052   3.026   3.202   0.570
14937WAT     H145053   3.102   3.177   0.510
14937WAT     H245054   2.996   3.295   0.549
14938WAT      O45055   1.566   2.864   5.718
14938WAT     H145056   1.519   2.846   5.805
14938WAT     H245057   1.665   2.861   5.732
14939WAT      O45058   5.065   1.656   2.611
14939WAT     H145059   4.982   1.697   2.648
14939WAT     H245060   5.098   1.584   2.672
14940WAT      O45061   5.120   8.861   5.409
14940WAT     H145062   5.103   8.886   5.504
14940WAT     H245063   5.038   8.819   5.370
14941WAT      O45064   7.802   6.737   1.050
14941WAT     H145065   7.794   6.720   0.952
14941WAT     H245066   7.846   6.659   1.094
14942WAT      O45067   0.994   6.529   3.353
14942WAT     H145068   1.093   6.528   3.368
14942WAT     H245069   0.971   6.597   3.284
14943WAT      O45070   2.235   3.505   7.511
14943WAT     H145071   2.138   3.525   7.495
14943WAT     H245072   2.290   3.570   7.459
14944WAT      O45073   7.732   2.377   5.427
14944WAT     H145074   7.639   2.345   5.413
14944WAT     H245075   7.774   2.397   5.339
14945WAT      O45076   2.723   9.711   5.701
14945WAT     H145077   2.663   9.790   5.709
14945WAT     H245078   2.696   9.656   5.622
14946WAT      O45079   1.394   5.954   4.220
14946WAT     H145080   1.477   5.980   4.172
14946WAT     H245081   1.361   6.031   4.274
14947WAT      O45082   2.979   9.735   7.334
14947WAT     H145083   2.970   9.786   7.248
14947WAT     H245084   2.895   9.745   7.387
14948WAT      O45085   4.672   7.976   8.634
14948WAT     H145086   4.646   7.884   8.663
14948WAT     H245087   4.770   7.989   8.651
14949WAT      O45088   3.862   7.293   3.790
14949WAT     H145089   3.799   7.232   3.838
14949WAT     H245090   3.884   7.255   3.700
14950WAT      O45091   0.428   1.457   5.542
14950WAT     H145092   0.446   1.414   5.630
14950WAT     H245093   0.445   1.556   5.550
14951WAT      O45094   3.145   9.005   1.461
14951WAT     H145095   3.090   9.071   1.410
14951WAT     H245096   3.228   9.050   1.495
14952WAT      O45097   0.836   8.565   8.335
14952WAT     H145098   0.865   8.545   8.241
14952WAT     H245099   0.914   8.553   8.396
14953WAT      O45100   0.745   3.375   5.564
14953WAT     H145101   0.650   3.357   5.540
14953WAT     H245102   0.804   3.351   5.488
14954WAT      O45103   2.764   1.650   5.948
14954WAT     H145104   2.750   1.552   5.965
14954WAT     H245105   2.679   1.691   5.916
14955WAT      O45106   8.706   3.751   0.859
14955WAT     H145107   8.654   3.680   0.906
14955WAT     H245108   8.687   3.747   0.761
14956WAT      O45109   5.425   5.134   4.325
14956WAT     H145110   5.420   5.131   4.425
14956WAT     H245111   5.337   5.167   4.289
14957WAT      O45112   7.306   3.432   9.673
14957WAT     H145113   7.312   3.333   9.677
14957WAT     H245114   7.258   3.459   9.589
14958WAT      O45115   7.528   6.944   9.625
14958WAT     H145116   7.474   6.863   9.601
14958WAT     H245117   7.475   7.027   9.608
14959WAT      O45118   8.480   4.291   6.369
14959WAT     H145119   8.400   4.234   6.351
14959WAT     H245120   8.510   4.278   6.463
14960WAT      O45121   3.604   8.286   9.244
14960WAT     H145122   3.533   8.254   9.182
14960WAT     H245123   3.640   8.374   9.212
14961WAT      O45124   0.407   7.881   6.937
14961WAT     H145125   0.389   7.785   6.916
14961WAT     H245126   0.331   7.937   6.906
14962WAT      O45127   0.753   6.928   8.674
14962WAT     H145128   0.816   6.855   8.647
14962WAT     H245129   0.790   7.016   8.645
14963WAT      O45130   6.406   7.586   2.112
14963WAT     H145131   6.459   7.552   2.190
14963WAT     H245132   6.462   7.648   2.058
14964WAT      O45133   4.963   8.915   8.370
14964WAT     H145134   4.888   8.857   8.337
14964WAT     H245135   5.004   8.874   8.451
14965WAT      O45136   1.550   7.184   9.697
14965WAT     H145137   1.606   7.141   9.768
14965WAT     H245138   1.470   7.225   9.740
14966WAT      O45139   1.843   5.005   3.833
14966WAT     H145140   1.795   5.086   3.869
14966WAT     H245141   1.830   5.000   3.734
14967WAT      O45142   5.102   4.936   3.781
14967WAT     H145143   5.096   4.872   3.705
14967WAT     H245144   5.094   4.886   3.867
14968WAT      O45145   0.206   1.256   2.633
14968WAT     H145146   0.233   1.248   2.537
14968WAT     H245147   0.124   1.202   2.649
14969WAT      O45148   9.397   8.844   5.720
14969WAT     H145149   9.371   8.762   5.771
14969WAT     H245150   9.428   8.818   5.629
14970WAT      O45151   0.597   7.443   8.373
14970WAT     H145152   0.645   7.401   8.296
14970WAT     H245153   0.550   7.372   8.425
14971WAT      O45154   3.793   0.656   1.329
14971WAT     H145155   3.708   0.608   1.305
14971WAT     H245156   3.789   0.683   1.425
14972WAT      O45157   6.944   1.485   8.660
14972WAT     H145158   6.941   1.485   8.760
14972WAT     H245159   6.937   1.392   8.626
14973WAT      O45160   4.836   9.367   2.620
14973WAT     H145161   4.837   9.269   2.640
14973WAT     H245162   4.776   9.384   2.542
14974WAT      O45163   4.473   4.261   8.616
14974WAT     H145164   4.401   4.329   8.600
14974WAT     H245165   4.544   4.271   8.547
14975WAT      O45166   8.843   3.910   3.713
14975WAT     H145167   8.926   3.874   3.755
14975WAT     H245168   8.860   3.931   3.617
14976WAT      O45169   1.388   3.261   1.412
14976WAT     H145170   1.333   3.230   1.335
14976WAT     H245171   1.375   3.359   1.426
14977WAT      O45172   8.806   9.596   6.683
14977WAT     H145173   8.736   9.529   6.662
14977WAT     H245174   8.893   9.550   6.700
14978WAT      O45175   0.322   3.895   3.502
14978WAT     H145176   0.304   3.801   3.473
14978WAT     H245177   0.295   3.906   3.598
14979WAT      O45178   4.684   8.495   2.390
14979WAT     H145179   4.644   8.420   2.444
14979WAT     H245180   4.629   8.510   2.308
14980WAT      O45181   2.162   8.711   0.334
14980WAT     H145182   2.157   8.731   0.236
14980WAT     H245183   2.094   8.641   0.357
14981WAT      O45184   5.650   9.403   5.474
14981WAT     H145185   5.652   9.414   5.574
14981WAT     H245186   5.723   9.341   5.446
14982WAT      O45187   1.605   8.411   4.204
14982WAT     H145188   1.628   8.426   4.108
14982WAT     H245189   1.643   8.324   4.235
14983WAT      O45190   4.952   1.722   7.945
14983WAT     H145191   4.912   1.756   8.030
14983WAT     H245192   4.880   1.686   7.886
14984WAT      O45193   9.250   0.978   5.869
14984WAT     H145194   9.347   0.975   5.894
14984WAT     H245195   9.196   1.004   5.948
14985WAT      O45196   8.824   8.366   9.679
14985WAT     H145197   8.753   8.295   9.670
14985WAT     H245198   8.914   8.323   9.678
14986WAT      O45199   9.070   5.774   5.676
14986WAT     H145200   9.096   5.685   5.640
14986WAT     H245201   9.127   5.796   5.756
14987WAT      O45202   8.363   8.112   8.530
14987WAT     H145203   8.270   8.107   8.566
14987WAT     H245204   8.410   8.025   8.546
14988WAT      O45205   1.971   7.793   0.859
14988WAT     H145206   1.930   7.766   0.946
14988WAT     H245207   2.030   7.719   0.825
14989WAT      O45208   1.385   3.104   2.190
14989WAT     H145209   1.405   3.190   2.142
14989WAT     H245210   1.297   3.113   2.237
14990WAT      O45211   2.498   7.644   6.417
14990WAT     H145212   2.581   7.628   6.470
14990WAT     H245213   2.518   7.705   6.340
14991WAT      O45214   7.004   8.958   3.780
14991WAT     H145215   6.912   8.922   3.793
14991WAT     H245216   7.005   9.056   3.801
14992WAT      O45217   0.955   1.214   3.585
14992WAT     H145218   1.031   1.268   3.622
14992WAT     H245219   0.982   1.175   3.497
14993WAT      O45220   8.151   4.178   6.848
14993WAT     H145221   8.148   4.259   6.788
14993WAT     H245222   8.116   4.202   6.938
14994WAT      O45223   2.559   9.002   8.379
14994WAT     H145224   2.510   8.940   8.318
14994WAT     H245225   2.586   9.084   8.329
14995WAT      O45226   1.140   4.768   6.663
14995WAT     H145227   1.096   4.814   6.585
14995WAT     H245228   1.084   4.692   6.693
14996WAT      O45229   3.243   2.652   4.178
14996WAT     H145230   3.339   2.679   4.191
14996WAT     H245231   3.213   2.677   4.086
14997WAT      O45232   1.216   2.227   7.816
14997WAT     H145233   1.206   2.310   7.761
14997WAT     H245234   1.295   2.238   7.877
14998WAT      O45235   4.879   3.255   8.070
14998WAT     H145236   4.963   3.295   8.108
14998WAT     H245237   4.862   3.166   8.113
14999WAT      O45238   0.726   0.918   1.977
14999WAT     H145239   0.825   0.905   1.976
14999WAT     H245240   0.704   1.015   1.988
15000WAT      O45241   9.394   8.635   4.136
15000WAT     H145242   9.402   8.545   4.179
15000WAT     H245243   9.349   8.626   4.047
15001WAT      O45244   8.941   3.608   0.964
15001WAT     H145245   9.007   3.643   1.031
15001WAT     H245246   8.874   3.679   0.944
15002WAT      O45247   7.273   6.559   0.421
15002WAT     H145248   7.356   6.542   0.474
15002WAT     H245249   7.297   6.572   0.325
15003WAT      O45250   4.471   4.270   2.146
15003WAT     H145251   4.454   4.360   2.106
15003WAT     H245252   4.569   4.256   2.155
15004WAT      O45253   1.542   6.351   3.850
15004WAT     H145254   1.569   6.348   3.754
15004WAT     H245255   1.495   6.266   3.874
15005WAT      O45256   4.781   4.035   3.816
15005WAT     H145257   4.733   4.101   3.875
15005WAT     H245258   4.726   3.951   3.809
15006WAT      O45259   6.631   3.245   5.128
15006WAT     H145260   6.549   3.246   5.185
15006WAT     H245261   6.703   3.300   5.172
15007WAT      O45262   5.726   8.752   4.287
15007WAT     H145263   5.818   8.790   4.275
15007WAT     H245264   5.694   8.712   4.201
15008WAT      O45265   8.744   1.680   3.344
15008WAT     H145266   8.684   1.675   3.264
15008WAT     H245267   8.689   1.695   3.426
15009WAT      O45268   7.853   8.603   7.174
15009WAT     H145269   7.763   8.564   7.154
15009WAT     H245270   7.843   8.681   7.235
15010WAT      O45271   5.301   8.894   7.035
15010WAT     H145272   5.229   8.953   7.072
15010WAT     H245273   5.364   8.870   7.108
15011WAT      O45274   0.718   8.020   0.079
15011WAT     H145275   0.675   7.994  -0.008
15011WAT     H245276   0.773   7.943   0.112
15012WAT      O45277   0.323   5.231   6.311
15012WAT     H145278   0.315   5.192   6.403
15012WAT     H245279   0.419   5.237   6.285
15013WAT      O45280   1.460   9.323   0.044
15013WAT     H145281   1.376   9.378   0.044
15013WAT     H245282   1.483   9.297   0.137
15014WAT      O45283   4.081   4.894   3.691
15014WAT     H145284   4.140   4.816   3.710
15014WAT     H245285   4.123   4.952   3.622
15015WAT      O45286   8.317   0.459   5.899
15015WAT     H145287   8.311   0.547   5.947
15015WAT     H245288   8.226   0.431   5.869
15016WAT      O45289   8.718   1.583   5.713
15016WAT     H145290   8.641   1.624   5.763
15016WAT     H245291   8.722   1.485   5.733
15017WAT      O45292   5.833   4.105   3.569
15017WAT     H145293   5.789   4.067   3.650
15017WAT     H245294   5.790   4.067   3.487
15018WAT      O45295   0.184   7.386   6.413
15018WAT     H145296   0.099   7.426   6.379
15018WAT     H245297   0.163   7.316   6.481
15019WAT      O45298   9.318   8.378   9.263
15019WAT     H145299   9.301   8.361   9.166
15019WAT     H245300   9.279   8.304   9.318
15020WAT      O45301   7.202   3.670   9.183
15020WAT     H145302   7.106   3.644   9.171
15020WAT     H245303   7.207   3.766   9.210
15021WAT      O45304   3.448   4.055   1.456
15021WAT     H145305   3.409   4.134   1.410
15021WAT     H245306   3.498   3.999   1.390
15022WAT      O45307   6.238   1.948   4.627
15022WAT     H145308   6.168   1.908   4.687
15022WAT     H245309   6.317   1.888   4.623
15023WAT      O45310   4.004   1.127   8.644
15023WAT     H145311   4.070   1.101   8.574
15023WAT     H245312   3.998   1.226   8.651
15024WAT      O45313   1.968   8.360   7.077
15024WAT     H145314   1.919   8.289   7.128
15024WAT     H245315   2.067   8.350   7.092
15025WAT      O45316   6.510   6.459   6.004
15025WAT     H145317   6.498   6.550   5.963
15025WAT     H245318   6.447   6.395   5.962
15026WAT      O45319   2.933   3.827   2.698
15026WAT     H145320   2.847   3.878   2.703
15026WAT     H245321   2.996   3.874   2.636
15027WAT      O45322   7.443   6.515   3.862
15027WAT     H145323   7.420   6.433   3.914
15027WAT     H245324   7.381   6.524   3.785
15028WAT      O45325   5.875   8.819   7.048
15028WAT     H145326   5.866   8.737   6.991
15028WAT     H245327   5.937   8.800   7.124
15029WAT      O45328   3.058   5.261   7.778
15029WAT     H145329   3.001   5.276   7.858
15029WAT     H245330   3.149   5.299   7.794
15030WAT      O45331   4.585   4.535   3.564
15030WAT     H145332   4.611   4.447   3.603
15030WAT     H245333   4.588   4.605   3.636
15031WAT      O45334   0.632   0.060   3.567
15031WAT     H145335   0.577   0.023   3.492
15031WAT     H245336   0.630   0.160   3.563
15032WAT      O45337   3.111   3.809   2.910
15032WAT     H145338   3.039   3.812   2.841
15032WAT     H245339   3.079   3.854   2.994
15033WAT      O45340   2.324   3.728   6.137
15033WAT     H145341   2.327   3.694   6.043
15033WAT     H245342   2.380   3.810   6.145
15034WAT      O45343   3.308   6.937   9.036
15034WAT     H145344   3.235   6.908   9.099
15034WAT     H245345   3.280   6.915   8.943
15035WAT      O45346   7.490   4.892   7.792
15035WAT     H145347   7.566   4.951   7.767
15035WAT     H245348   7.479   4.820   7.723
15036WAT      O45349   4.230   0.911   7.249
15036WAT     H145350   4.230   0.972   7.328
15036WAT     H245351   4.255   0.819   7.278
15037WAT      O45352   3.945   1.214   5.496
15037WAT     H145353   3.981   1.307   5.497
15037WAT     H245354   3.900   1.195   5.584
15038WAT      O45355   2.518   1.474   7.134
15038WAT     H145356   2.438   1.424   7.101
15038WAT     H245357   2.492   1.570   7.150
15039WAT      O45358   0.659   3.412   6.574
15039WAT     H145359   0.604   3.330   6.585
15039WAT     H245360   0.600   3.493   6.575
15040WAT      O45361   2.021   7.803   6.912
15040WAT     H145362   2.061   7.895   6.918
15040WAT     H245363   2.043   7.763   6.823
15041WAT      O45364   4.207   2.013   1.270
15041WAT     H145365   4.222   2.072   1.191
15041WAT     H245366   4.130   2.049   1.324
15042WAT      O45367   8.687   5.172   9.873
15042WAT     H145368   8.780   5.206   9.890
15042WAT     H245369   8.652   5.212   9.789
15043WAT      O45370   8.288   4.412   5.994
15043WAT     H145371   8.294   4.318   5.960
15043WAT     H245372   8.227   4.414   6.074
15044WAT      O45373   6.770   0.364   1.471
15044WAT     H145374   6.681   0.385   1.511
15044WAT     H245375   6.842   0.388   1.536
15045WAT      O45376   8.333   3.919   7.451
15045WAT     H145377   8.429   3.941   7.435
15045WAT     H245378   8.325   3.825   7.485
15046WAT      O45379   0.208   7.295   7.336
15046WAT     H145380   0.267   7.353   7.391
15046WAT     H245381   0.262   7.221   7.295
15047WAT      O45382   1.088   4.185   4.411
15047WAT     H145383   0.997   4.209   4.445
15047WAT     H245384   1.158   4.235   4.462
15048WAT      O45385   1.549   1.616   6.397
15048WAT     H145386   1.579   1.685   6.462
15048WAT     H245387   1.452   1.630   6.376
15049WAT      O45388   3.428   9.130   5.535
15049WAT     H145389   3.352   9.128   5.470
15049WAT     H245390   3.442   9.039   5.573
15050WAT      O45391   3.673   1.454   2.077
15050WAT     H145392   3.633   1.425   2.164
15050WAT     H245393   3.753   1.398   2.056
15051WAT      O45394   9.743   3.146   0.437
15051WAT     H145395   9.820   3.091   0.405
15051WAT     H245396   9.773   3.207   0.510
15052WAT      O45397   5.069   9.033   5.658
15052WAT     H145398   4.976   8.994   5.663
15052WAT     H245399   5.065   9.131   5.676
15053WAT      O45400   7.334   9.050   8.442
15053WAT     H145401   7.376   9.043   8.533
15053WAT     H245402   7.363   8.972   8.386
15054WAT      O45403   9.722   5.939   8.693
15054WAT     H145404   9.743   6.036   8.685
15054WAT     H245405   9.803   5.890   8.727
15055WAT      O45406   1.222   0.984   0.945
15055WAT     H145407   1.235   1.047   0.869
15055WAT     H245408   1.144   0.924   0.926
15056WAT      O45409   3.634   7.145   3.922
15056WAT     H145410   3.611   7.072   3.987
15056WAT     H245411   3.550   7.180   3.880
15057WAT      O45412   1.955   0.933   7.356
15057WAT     H145413   1.993   0.997   7.423
15057WAT     H245414   2.013   0.851   7.352
15058WAT      O45415   5.117   1.014   9.196
15058WAT     H145416   5.089   0.923   9.228
15058WAT     H245417   5.177   1.056   9.263
15059WAT      O45418   8.654   7.526   0.020
15059WAT     H145419   8.737   7.500  -0.029
15059WAT     H245420   8.588   7.564  -0.044
15060WAT      O45421   1.705   1.105   6.541
15060WAT     H145422   1.802   1.091   6.525
15060WAT     H245423   1.685   1.203   6.542
15061WAT      O45424   3.247   6.065   5.817
15061WAT     H145425   3.271   6.032   5.908
15061WAT     H245426   3.222   6.162   5.822
15062WAT      O45427   9.317   8.781   7.307
15062WAT     H145428   9.224   8.752   7.281
15062WAT     H245429   9.316   8.878   7.330
15063WAT      O45430   0.427   1.886   7.040
15063WAT     H145431   0.425   1.921   7.134
15063WAT     H245432   0.344   1.915   6.992
15064WAT      O45433   7.496   4.796   6.271
15064WAT     H145434   7.482   4.723   6.203
15064WAT     H245435   7.594   4.809   6.286
15065WAT      O45436   6.264   7.367   8.592
15065WAT     H145437   6.218   7.435   8.649
15065WAT     H245438   6.254   7.276   8.633
15066WAT      O45439   9.680   2.332   8.131
15066WAT     H145440   9.673   2.237   8.101
15066WAT     H245441   9.680   2.336   8.231
15067WAT      O45442   0.950   5.535   7.135
15067WAT     H145443   1.038   5.508   7.095
15067WAT     H245444   0.884   5.551   7.061
15068WAT      O45445   9.433   4.701   0.366
15068WAT     H145446   9.343   4.678   0.403
15068WAT     H245447   9.425   4.726   0.270
15069WAT      O45448   8.670   1.840   2.501
15069WAT     H145449   8.718   1.766   2.456
15069WAT     H245450   8.735   1.903   2.543
15070WAT      O45451   8.235   3.208   7.687
15070WAT     H145452   8.159   3.231   7.625
15070WAT     H245453   8.297   3.145   7.641
15071WAT      O45454   8.167   9.219   8.642
15071WAT     H145455   8.222   9.171   8.574
15071WAT     H245456   8.091   9.161   8.670
15072WAT      O45457   0.383   8.493   8.134
15072WAT     H145458   0.385   8.405   8.086
15072WAT     H245459   0.423   8.564   8.076
15073WAT      O45460   2.679   5.543   8.677
15073WAT     H145461   2.609   5.486   8.720
15073WAT     H245462   2.635   5.609   8.616
15074WAT      O45463   1.095   9.293   1.712
15074WAT     H145464   1.154   9.224   1.671
15074WAT     H245465   1.143   9.339   1.787
15075WAT      O45466   5.713   2.452   1.402
15075WAT     H145467   5.660   2.404   1.332
15075WAT     H245468   5.653   2.517   1.450
15076WAT      O45469   8.393   6.857   3.248
15076WAT     H145470   8.360   6.814   3.164
15076WAT     H245471   8.349   6.814   3.327
15077WAT      O45472   0.589   0.338   6.823
15077WAT     H145473   0.598   0.438   6.824
15077WAT     H245474   0.625   0.301   6.909
15078WAT      O45475   3.578   3.796   7.329
15078WAT     H145476   3.655   3.780   7.268
15078WAT     H245477   3.494   3.762   7.285
15079WAT      O45478   8.630   9.216   7.524
15079WAT     H145479   8.660   9.269   7.603
15079WAT     H245480   8.532   9.200   7.530
15080WAT      O45481   1.701   7.588   3.281
15080WAT     H145482   1.606   7.561   3.292
15080WAT     H245483   1.706   7.674   3.230
15081WAT      O45484   0.608   0.987   7.508
15081WAT     H145485   0.687   1.036   7.545
15081WAT     H245486   0.529   1.048   7.505
15082WAT      O45487   0.659   6.327   8.872
15082WAT     H145488   0.630   6.259   8.805
15082WAT     H245489   0.738   6.377   8.836
15083WAT      O45490   3.363   8.282   5.041
15083WAT     H145491   3.443   8.313   5.092
15083WAT     H245492   3.312   8.361   5.008
15084WAT      O45493   7.766   0.552   3.914
15084WAT     H145494   7.752   0.617   3.989
15084WAT     H245495   7.762   0.600   3.826
15085WAT      O45496   8.958   5.416   2.894
15085WAT     H145497   8.965   5.358   2.812
15085WAT     H245498   8.949   5.512   2.866
15086WAT      O45499   1.239   3.791   5.490
15086WAT     H145500   1.332   3.823   5.507
15086WAT     H245501   1.174   3.865   5.510
15087WAT      O45502   5.217   0.505   0.693
15087WAT     H145503   5.134   0.501   0.749
15087WAT     H245504   5.297   0.508   0.753
15088WAT      O45505   4.324   9.416   3.498
15088WAT     H145506   4.390   9.485   3.527
15088WAT     H245507   4.364   9.325   3.510
15089WAT      O45508   6.645   0.471   9.740
15089WAT     H145509   6.617   0.446   9.647
15089WAT     H245510   6.632   0.392   9.800
15090WAT      O45511   5.003   5.657   2.643
15090WAT     H145512   4.945   5.589   2.597
15090WAT     H245513   4.973   5.668   2.737
15091WAT      O45514   8.742   0.248   4.172
15091WAT     H145515   8.787   0.235   4.084
15091WAT     H245516   8.662   0.306   4.161
15092WAT      O45517   0.737   8.889   2.809
15092WAT     H145518   0.672   8.815   2.793
15092WAT     H245519   0.693   8.960   2.864
15093WAT      O45520   6.506   6.327   1.429
15093WAT     H145521   6.472   6.286   1.513
15093WAT     H245522   6.504   6.259   1.355
15094WAT      O45523   4.111   9.439   5.004
15094WAT     H145524   4.020   9.397   5.011
15094WAT     H245525   4.121   9.481   4.914
15095WAT      O45526   1.432   0.076   2.227
15095WAT     H145527   1.397   0.167   2.249
15095WAT     H245528   1.503   0.052   2.294
15096WAT      O45529   0.702   2.173   8.089
15096WAT     H145530   0.775   2.125   8.139
15096WAT     H245531   0.735   2.263   8.060
15097WAT      O45532   9.009   6.725   7.742
15097WAT     H145533   9.032   6.822   7.749
15097WAT     H245534   9.056   6.675   7.815
15098WAT      O45535   3.610   8.953   2.120
15098WAT     H145536   3.531   9.010   2.099
15098WAT     H245537   3.583   8.857   2.123
15099WAT      O45538   7.644   8.899   7.081
15099WAT     H145539   7.700   8.885   6.999
15099WAT     H245540   7.566   8.957   7.058
15100WAT      O45541   6.170   2.458   9.674
15100WAT     H145542   6.188   2.544   9.721
15100WAT     H245543   6.137   2.477   9.582
15101WAT      O45544   0.935   8.777   4.154
15101WAT     H145545   0.886   8.764   4.240
15101WAT     H245546   0.899   8.715   4.085
15102WAT      O45547   1.605   3.566   7.224
15102WAT     H145548   1.536   3.578   7.152
15102WAT     H245549   1.561   3.535   7.308
15103WAT      O45550   5.959   6.477   2.570
15103WAT     H145551   6.044   6.491   2.519
15103WAT     H245552   5.968   6.396   2.627
15104WAT      O45553   2.490   9.822   0.496
15104WAT     H145554   2.395   9.855   0.493
15104WAT     H245555   2.529   9.839   0.586
15105WAT      O45556   9.427   8.418   4.299
15105WAT     H145557   9.425   8.485   4.373
15105WAT     H245558   9.494   8.347   4.319
15106WAT      O45559   4.892   8.656   8.131
15106WAT     H145560   4.919   8.661   8.227
15106WAT     H245561   4.868   8.562   8.108
15107WAT      O45562   9.785   2.198   1.983
15107WAT     H145563   9.774   2.181   1.885
15107WAT     H245564   9.703   2.241   2.020
15108WAT      O45565   4.011   6.417   8.638
15108WAT     H145566   3.931   6.477   8.634
15108WAT     H245567   4.073   6.449   8.709
15109WAT      O45568   6.547   1.705   7.430
15109WAT     H145569   6.626   1.644   7.444
15109WAT     H245570   6.515   1.737   7.519
15110WAT      O45571   3.077   5.980   3.867
15110WAT     H145572   3.075   5.889   3.823
15110WAT     H245573   3.031   5.974   3.955
15111WAT      O45574   5.931   6.012   8.985
15111WAT     H145575   5.848   5.965   9.014
15111WAT     H245576   5.930   6.023   8.885
15112WAT      O45577   6.567   8.986   5.022
15112WAT     H145578   6.622   8.976   4.940
15112WAT     H245579   6.609   8.935   5.097
15113WAT      O45580   7.335   1.120   9.435
15113WAT     H145581   7.382   1.193   9.385
15113WAT     H245582   7.402   1.061   9.478
15114WAT      O45583   8.698   0.935   2.379
15114WAT     H145584   8.687   0.846   2.334
15114WAT     H245585   8.757   0.925   2.459
15115WAT      O45586   7.989   8.068   3.144
15115WAT     H145587   7.934   7.986   3.125
15115WAT     H245588   7.984   8.129   3.065
15116WAT      O45589   7.543   6.523   0.245
15116WAT     H145590   7.548   6.456   0.171
15116WAT     H245591   7.500   6.607   0.210
15117WAT      O45592   4.242   4.175   0.259
15117WAT     H145593   4.265   4.106   0.190
15117WAT     H245594   4.240   4.265   0.216
15118WAT      O45595   4.248   7.704   8.021
15118WAT     H145596   4.240   7.776   8.090
15118WAT     H245597   4.334   7.654   8.035
15119WAT      O45598   4.157   4.561   5.994
15119WAT     H145599   4.198   4.631   6.052
15119WAT     H245600   4.060   4.582   5.980
15120WAT      O45601   7.738   4.937   3.842
15120WAT     H145602   7.731   4.916   3.744
15120WAT     H245603   7.653   4.910   3.888
15121WAT      O45604   9.296   0.270   3.545
15121WAT     H145605   9.215   0.329   3.538
15121WAT     H245606   9.304   0.216   3.462
15122WAT      O45607   2.940   2.601   7.374
15122WAT     H145608   2.942   2.701   7.374
15122WAT     H245609   2.947   2.568   7.280
15123WAT      O45610   8.679   4.899   0.827
15123WAT     H145611   8.689   4.800   0.824
15123WAT     H245612   8.737   4.941   0.758
15124WAT      O45613   1.356   5.101   4.643
15124WAT     H145614   1.312   5.191   4.648
15124WAT     H245615   1.399   5.090   4.554
15125WAT      O45616   8.465   4.769   3.455
15125WAT     H145617   8.490   4.704   3.526
15125WAT     H245618   8.365   4.774   3.448
15126WAT      O45619   6.627   2.864   7.456
15126WAT     H145620   6.689   2.833   7.528
15126WAT     H245621   6.678   2.880   7.372
15127WAT      O45622   0.565   7.328   6.159
15127WAT     H145623   0.587   7.374   6.073
15127WAT     H245624   0.603   7.380   6.235
15128WAT      O45625   6.830   5.080   2.694
15128WAT     H145626   6.815   4.998   2.750
15128WAT     H245627   6.744   5.107   2.651
15129WAT      O45628   8.045   1.847   0.240
15129WAT     H145629   7.995   1.778   0.187
15129WAT     H245630   8.052   1.817   0.335
15130WAT      O45631   8.662   6.608   4.465
15130WAT     H145632   8.725   6.621   4.389
15130WAT     H245633   8.705   6.552   4.536
15131WAT      O45634   6.408   8.455   8.673
15131WAT     H145635   6.372   8.362   8.686
15131WAT     H245636   6.470   8.478   8.748
15132WAT      O45637   4.514   2.829   3.749
15132WAT     H145638   4.530   2.851   3.652
15132WAT     H245639   4.597   2.791   3.789
15133WAT      O45640   4.677   7.443   5.241
15133WAT     H145641   4.652   7.536   5.212
15133WAT     H245642   4.753   7.448   5.305
15134WAT      O45643   2.180   9.842   8.413
15134WAT     H145644   2.121   9.839   8.333
15134WAT     H245645   2.171   9.756   8.464
15135WAT      O45646   5.778   5.307   5.361
15135WAT     H145647   5.876   5.309   5.381
15135WAT     H245648   5.757   5.230   5.301
15136WAT      O45649   5.404   8.432   5.669
15136WAT     H145650   5.368   8.471   5.754
15136WAT     H245651   5.504   8.435   5.671
15137WAT      O45652   0.441   3.159   4.052
15137WAT     H145653   0.357   3.106   4.064
15137WAT     H245654   0.492   3.160   4.138
15138WAT      O45655   8.601   6.140   7.928
15138WAT     H145656   8.524   6.104   7.876
15138WAT     H245657   8.568   6.173   8.016
15139WAT      O45658   2.867   4.576   7.942
15139WAT     H145659   2.780   4.563   7.989
15139WAT     H245660   2.869   4.519   7.859
15140WAT      O45661   1.842   0.586   6.725
15140WAT     H145662   1.917   0.653   6.729
15140WAT     H245663   1.775   0.607   6.796
15141WAT      O45664   3.032   9.279   8.443
15141WAT     H145665   2.984   9.291   8.530
15141WAT     H245666   3.016   9.187   8.408
15142WAT      O45667   3.597   6.636   5.367
15142WAT     H145668   3.684   6.611   5.324
15142WAT     H245669   3.546   6.553   5.389
15143WAT      O45670   2.660   1.379   2.161
15143WAT     H145671   2.714   1.439   2.220
15143WAT     H245672   2.694   1.285   2.169
15144WAT      O45673   4.634   2.680   9.399
15144WAT     H145674   4.534   2.672   9.395
15144WAT     H245675   4.668   2.623   9.474
15145WAT      O45676   9.076   5.301   7.226
15145WAT     H145677   9.112   5.220   7.272
15145WAT     H245678   9.067   5.282   7.128
15146WAT      O45679   2.325   8.815   1.779
15146WAT     H145680   2.377   8.894   1.810
15146WAT     H245681   2.344   8.737   1.839
15147WAT      O45682   5.939   6.641   5.619
15147WAT     H145683   5.926   6.641   5.718
15147WAT     H245684   6.030   6.606   5.597
15148WAT      O45685   6.626   7.599   3.227
15148WAT     H145686   6.677   7.517   3.199
15148WAT     H245687   6.576   7.579   3.311
15149WAT      O45688   2.999   6.189   5.125
15149WAT     H145689   2.989   6.098   5.163
15149WAT     H245690   2.943   6.254   5.177
15150WAT      O45691   4.692   8.798   0.618
15150WAT     H145692   4.661   8.871   0.680
15150WAT     H245693   4.743   8.730   0.670
15151WAT      O45694   5.557   7.618   6.350
15151WAT     H145695   5.590   7.703   6.307
15151WAT     H245696   5.480   7.582   6.298
15152WAT      O45697   1.007   3.507   8.209
15152WAT     H145698   1.068   3.548   8.141
15152WAT     H245699   0.954   3.434   8.166
15153WAT      O45700   8.718   9.201   9.741
15153WAT     H145701   8.626   9.221   9.774
15153WAT     H245702   8.782   9.201   9.818
15154WAT      O45703   0.564   5.047   3.836
15154WAT     H145704   0.536   4.955   3.810
15154WAT     H245705   0.625   5.042   3.916
15155WAT      O45706   3.320   6.082   6.128
15155WAT     H145707   3.221   6.085   6.140
15155WAT     H245708   3.356   6.175   6.123
15156WAT      O45709   4.563   5.289   9.865
15156WAT     H145710   4.590   5.341   9.945
15156WAT     H245711   4.630   5.218   9.846
15157WAT      O45712   1.412   5.140   7.617
15157WAT     H145713   1.462   5.196   7.683
15157WAT     H245714   1.432   5.172   7.524
15158WAT      O45715   1.206   8.674   8.113
15158WAT     H145716   1.302   8.652   8.129
15158WAT     H245717   1.199   8.741   8.039
15159WAT      O45718   8.558   6.345   0.642
15159WAT     H145719   8.459   6.329   0.640
15159WAT     H245720   8.603   6.282   0.578
15160WAT      O45721   9.037   7.377   2.266
15160WAT     H145722   8.960   7.441   2.276
15160WAT     H245723   9.061   7.367   2.170
15161WAT      O45724   0.908   3.529   6.624
15161WAT     H145725   0.823   3.481   6.606
15161WAT     H245726   0.897   3.626   6.600
15162WAT      O45727   5.584   9.036   6.506
15162WAT     H145728   5.534   9.111   6.463
15162WAT     H245729   5.663   9.012   6.450
15163WAT      O45730   3.076   2.257   9.518
15163WAT     H145731   2.988   2.238   9.564
15163WAT     H245732   3.063   2.256   9.419
15164WAT      O45733   3.827   8.279   4.012
15164WAT     H145734   3.909   8.224   4.030
15164WAT     H245735   3.818   8.350   4.082
15165WAT      O45736   3.924   0.942   5.801
15165WAT     H145737   3.887   1.033   5.783
15165WAT     H245738   3.879   0.875   5.741
15166WAT      O45739   0.273   7.015   1.738
15166WAT     H145740   0.299   7.109   1.759
15166WAT     H245741   0.236   6.972   1.820
15167WAT      O45742   9.321   7.495   0.455
15167WAT     H145743   9.401   7.486   0.514
15167WAT     H245744   9.283   7.405   0.435
15168WAT      O45745   7.666   4.487   9.345
15168WAT     H145746   7.667   4.561   9.278
15168WAT     H245747   7.659   4.525   9.437
15169WAT      O45748   8.462   8.842   8.450
15169WAT     H145749   8.401   8.781   8.501
15169WAT     H245750   8.489   8.799   8.364
15170WAT      O45751   5.950   0.790   5.473
15170WAT     H145752   5.896   0.852   5.417
15170WAT     H245753   6.034   0.835   5.503
15171WAT      O45754   8.224   0.928   7.287
15171WAT     H145755   8.143   0.879   7.319
15171WAT     H245756   8.274   0.870   7.222
15172WAT      O45757   3.503   6.013   4.997
15172WAT     H145758   3.407   5.990   4.983
15172WAT     H245759   3.520   6.025   5.095
15173WAT      O45760   2.781   0.358   5.518
15173WAT     H145761   2.766   0.349   5.616
15173WAT     H245762   2.697   0.335   5.469
15174WAT      O45763   0.277   2.100   2.682
15174WAT     H145764   0.363   2.129   2.723
15174WAT     H245765   0.216   2.179   2.673
15175WAT      O45766   9.751   8.428   0.239
15175WAT     H145767   9.770   8.433   0.141
15175WAT     H245768   9.838   8.430   0.289
15176WAT      O45769   9.762   8.024   1.032
15176WAT     H145770   9.685   7.994   1.089
15176WAT     H245771   9.767   8.124   1.033
15177WAT      O45772   2.803   9.622   9.466
15177WAT     H145773   2.850   9.630   9.377
15177WAT     H245774   2.715   9.668   9.461
15178WAT      O45775   1.270   2.046   7.149
15178WAT     H145776   1.199   2.059   7.218
15178WAT     H245777   1.274   1.949   7.123
15179WAT      O45778   1.896   1.952   4.275
15179WAT     H145779   1.812   2.004   4.288
15179WAT     H245780   1.947   1.948   4.361
15180WAT      O45781   5.328   0.925   8.527
15180WAT     H145782   5.318   0.869   8.445
15180WAT     H245783   5.407   0.985   8.518
15181WAT      O45784   0.327   1.474   7.240
15181WAT     H145785   0.395   1.546   7.257
15181WAT     H245786   0.333   1.444   7.145
15182WAT      O45787   9.778   2.519   5.651
15182WAT     H145788   9.733   2.480   5.570
15182WAT     H245789   9.716   2.583   5.696
15183WAT      O45790   6.126   5.226   0.942
15183WAT     H145791   6.209   5.276   0.967
15183WAT     H245792   6.082   5.270   0.864
15184WAT      O45793   4.378   9.833   2.728
15184WAT     H145794   4.287   9.864   2.700
15184WAT     H245795   4.447   9.897   2.695
15185WAT      O45796   1.502   9.385   1.570
15185WAT     H145797   1.455   9.458   1.621
15185WAT     H245798   1.477   9.390   1.474
15186WAT      O45799   5.849   1.983   8.331
15186WAT     H145800   5.862   1.922   8.253
15186WAT     H245801   5.923   1.971   8.397
15187WAT      O45802   7.005   5.958   8.985
15187WAT     H145803   7.005   5.883   9.051
15187WAT     H245804   6.955   6.036   9.022
15188WAT      O45805   4.125   6.851   7.507
15188WAT     H145806   4.178   6.928   7.543
15188WAT     H245807   4.050   6.887   7.451
15189WAT      O45808   6.179   1.531   2.785
15189WAT     H145809   6.166   1.454   2.847
15189WAT     H245810   6.121   1.519   2.704
15190WAT      O45811   2.376   7.900   6.260
15190WAT     H145812   2.308   7.854   6.317
15190WAT     H245813   2.339   7.987   6.227
15191WAT      O45814   5.534   8.538   3.463
15191WAT     H145815   5.591   8.469   3.507
15191WAT     H245816   5.544   8.625   3.513
15192WAT      O45817   8.642   6.660   1.520
15192WAT     H145818   8.577   6.593   1.556
15192WAT     H245819   8.600   6.750   1.520
15193WAT      O45820   8.759   4.202   5.012
15193WAT     H145821   8.774   4.207   5.111
15193WAT     H245822   8.719   4.288   4.980
15194WAT      O45823   6.110   1.393   9.602
15194WAT     H145824   6.132   1.392   9.504
15194WAT     H245825   6.047   1.318   9.623
15195WAT      O45826   5.086   0.404   6.041
15195WAT     H145827   5.115   0.309   6.037
15195WAT     H245828   5.034   0.426   5.958
15196WAT      O45829   8.610   0.176   5.044
15196WAT     H145830   8.534   0.225   5.001
15196WAT     H245831   8.579   0.132   5.128
15197WAT      O45832   5.812   0.350   7.613
15197WAT     H145833   5.878   0.407   7.565
15197WAT     H245834   5.769   0.404   7.686
15198WAT      O45835   1.014   5.673   0.947
15198WAT     H145836   1.096   5.730   0.953
15198WAT     H245837   1.019   5.601   1.016
15199WAT      O45838   5.779   7.889   4.822
15199WAT     H145839   5.850   7.959   4.820
15199WAT     H245840   5.742   7.881   4.915
15200WAT      O45841   7.781   4.982   8.100
15200WAT     H145842   7.701   5.036   8.075
15200WAT     H245843   7.848   5.041   8.144
15201WAT      O45844   7.410   3.404   7.160
15201WAT     H145845   7.465   3.483   7.186
15201WAT     H245846   7.442   3.323   7.210
15202WAT      O45847   0.017   0.700   8.469
15202WAT     H145848   0.086   0.673   8.535
15202WAT     H245849  -0.057   0.748   8.516
15203WAT      O45850   8.915   5.698   4.670
15203WAT     H145851   8.995   5.754   4.648
15203WAT     H245852   8.911   5.620   4.607
15204WAT      O45853   1.663   7.205   7.375
15204WAT     H145854   1.647   7.223   7.278
15204WAT     H245855   1.756   7.230   7.399
15205WAT      O45856   7.818   3.740   6.496
15205WAT     H145857   7.766   3.732   6.410
15205WAT     H245858   7.773   3.685   6.567
15206WAT      O45859   3.043   3.152   2.540
15206WAT     H145860   3.065   3.077   2.602
15206WAT     H245861   3.123   3.170   2.482
15207WAT      O45862   8.986   4.995   0.959
15207WAT     H145863   9.003   4.932   0.883
15207WAT     H245864   8.946   5.079   0.924
15208WAT      O45865   4.225   5.367   6.061
15208WAT     H145866   4.214   5.329   5.969
15208WAT     H245867   4.203   5.465   6.059
15209WAT      O45868   8.822   7.150   4.413
15209WAT     H145869   8.753   7.216   4.442
15209WAT     H245870   8.825   7.073   4.478
15210WAT      O45871   7.605   7.804   5.091
15210WAT     H145872   7.607   7.862   5.010
15210WAT     H245873   7.541   7.728   5.076
15211WAT      O45874   9.279   6.713   8.657
15211WAT     H145875   9.236   6.650   8.593
15211WAT     H245876   9.282   6.672   8.748
15212WAT      O45877   4.732   3.997   0.892
15212WAT     H145878   4.650   3.980   0.947
15212WAT     H245879   4.813   3.970   0.945
15213WAT      O45880   7.132   6.631   4.591
15213WAT     H145881   7.073   6.586   4.524
15213WAT     H245882   7.076   6.681   4.657
15214WAT      O45883   0.944   2.058   8.192
15214WAT     H145884   0.955   2.134   8.256
15214WAT     H245885   1.029   2.043   8.143
15215WAT      O45886   1.142   3.183   3.886
15215WAT     H145887   1.071   3.229   3.833
15215WAT     H245888   1.101   3.107   3.937
15216WAT      O45889   2.728   3.998   2.651
15216WAT     H145890   2.703   4.002   2.554
15216WAT     H245891   2.697   4.082   2.696
15217WAT      O45892   1.706   0.057   1.388
15217WAT     H145893   1.673  -0.020   1.334
15217WAT     H245894   1.742   0.128   1.328
15218WAT      O45895   7.706   7.942   1.960
15218WAT     H145896   7.694   7.991   1.874
15218WAT     H245897   7.702   8.006   2.036
15219WAT      O45898   8.535   7.295   2.936
15219WAT     H145899   8.634   7.302   2.951
15219WAT     H245900   8.506   7.200   2.949
15220WAT      O45901   0.294   3.798   7.876
15220WAT     H145902   0.360   3.730   7.908
15220WAT     H245903   0.336   3.889   7.879
15221WAT      O45904   1.390   7.735   9.183
15221WAT     H145905   1.405   7.831   9.209
15221WAT     H245906   1.300   7.726   9.141
15222WAT      O45907   3.696   3.753   8.112
15222WAT     H145908   3.708   3.826   8.180
15222WAT     H245909   3.736   3.781   8.025
15223WAT      O45910   6.320   8.791   6.526
15223WAT     H145911   6.348   8.741   6.444
15223WAT     H245912   6.401   8.815   6.580
15224WAT      O45913   7.198   5.579   1.389
15224WAT     H145914   7.099   5.588   1.378
15224WAT     H245915   7.231   5.505   1.331
15225WAT      O45916   7.634   0.527   0.441
15225WAT     H145917   7.712   0.479   0.481
15225WAT     H245918   7.656   0.552   0.346
15226WAT      O45919   7.785   5.144   1.616
15226WAT     H145920   7.765   5.221   1.555
15226WAT     H245921   7.719   5.071   1.599
15227WAT      O45922   6.280   7.772   5.643
15227WAT     H145923   6.258   7.842   5.711
15227WAT     H245924   6.228   7.790   5.559
15228WAT      O45925   5.244   2.880   6.449
15228WAT     H145926   5.211   2.974   6.443
15228WAT     H245927   5.182   2.819   6.399
15229WAT      O45928   1.405   3.672   6.446
15229WAT     H145929   1.452   3.622   6.374
15229WAT     H245930   1.464   3.678   6.526
15230WAT      O45931   3.968   9.270   6.923
15230WAT     H145932   4.031   9.342   6.893
15230WAT     H245933   3.880   9.310   6.945
15231WAT      O45934   5.964   6.291   6.585
15231WAT     H145935   5.892   6.350   6.550
15231WAT     H245936   6.006   6.332   6.666
15232WAT      O45937   1.818   8.392   8.684
15232WAT     H145938   1.820   8.338   8.768
15232WAT     H245939   1.746   8.359   8.624
15233WAT      O45940   1.451   0.813   5.947
15233WAT     H145941   1.379   0.869   5.988
15233WAT     H245942   1.525   0.873   5.914
15234WAT      O45943   5.242   6.494   7.038
15234WAT     H145944   5.194   6.532   6.959
15234WAT     H245945   5.306   6.562   7.074
15235WAT      O45946   3.180   5.587   8.253
15235WAT     H145947   3.247   5.660   8.238
15235WAT     H245948   3.171   5.569   8.351
15236WAT      O45949   2.362   4.065   9.183
15236WAT     H145950   2.308   4.150   9.176
15236WAT     H245951   2.450   4.085   9.224
15237WAT      O45952   3.862   0.718   8.115
15237WAT     H145953   3.778   0.705   8.168
15237WAT     H245954   3.840   0.758   8.027
15238WAT      O45955   2.564   9.415   6.560
15238WAT     H145956   2.534   9.432   6.654
15238WAT     H245957   2.531   9.490   6.502
15239WAT      O45958   7.088   7.100   9.722
15239WAT     H145959   7.014   7.163   9.744
15239WAT     H245960   7.056   7.006   9.731
15240WAT      O45961   6.512   3.069   2.173
15240WAT     H145962   6.554   3.159   2.165
15240WAT     H245963   6.482   3.054   2.268
15241WAT      O45964   4.675   6.529   2.362
15241WAT     H145965   4.575   6.536   2.355
15241WAT     H245966   4.716   6.547   2.272
15242WAT      O45967   0.727   9.370   3.917
15242WAT     H145968   0.732   9.463   3.954
15242WAT     H245969   0.717   9.305   3.992
15243WAT      O45970   0.560   4.584   5.093
15243WAT     H145971   0.483   4.522   5.081
15243WAT     H245972   0.603   4.600   5.004
15244WAT      O45973   4.723   2.308   4.791
15244WAT     H145974   4.795   2.346   4.733
15244WAT     H245975   4.641   2.292   4.735
15245WAT      O45976   2.935   6.975   4.434
15245WAT     H145977   2.961   6.896   4.489
15245WAT     H245978   2.918   6.946   4.340
15246WAT      O45979   1.937   1.588   7.789
15246WAT     H145980   1.905   1.578   7.695
15246WAT     H245981   1.864   1.562   7.852
15247WAT      O45982   3.572   8.105   1.166
15247WAT     H145983   3.595   8.140   1.075
15247WAT     H245984   3.475   8.081   1.170
15248WAT      O45985   6.711   1.806   0.506
15248WAT     H145986   6.664   1.717   0.501
15248WAT     H245987   6.728   1.839   0.413
15249WAT      O45988   1.318   9.835   3.967
15249WAT     H145989   1.285   9.801   3.879
15249WAT     H245990   1.266   9.792   4.041
15250WAT      O45991   1.208   7.963   4.083
15250WAT     H145992   1.261   8.040   4.118
15250WAT     H245993   1.152   7.993   4.006
15251WAT      O45994   6.095   9.026   6.470
15251WAT     H145995   6.011   9.025   6.524
15251WAT     H245996   6.129   8.933   6.460
15252WAT      O45997   4.394   7.985   0.090
15252WAT     H145998   4.342   7.913   0.043
15252WAT     H245999   4.408   8.061   0.027
15253WAT      O46000   4.252   2.675   1.117
15253WAT     H146001   4.158   2.645   1.128
15253WAT     H246002   4.291   2.635   1.034
15254WAT      O46003   7.539   7.238   5.416
15254WAT     H146004   7.541   7.263   5.319
15254WAT     H246005   7.625   7.194   5.441
15255WAT      O46006   2.966   2.296   2.776
15255WAT     H146007   3.046   2.333   2.823
15255WAT     H246008   2.953   2.201   2.804
15256WAT      O46009   7.301   1.794   3.208
15256WAT     H146010   7.212   1.748   3.212
15256WAT     H246011   7.374   1.726   3.204
15257WAT      O46012   4.417   6.454   0.447
15257WAT     H146013   4.470   6.373   0.422
15257WAT     H246014   4.469   6.537   0.423
15258WAT      O46015   4.289   1.291   0.701
15258WAT     H146016   4.326   1.262   0.613
15258WAT     H246017   4.250   1.212   0.749
15259WAT      O46018   6.375   2.855   4.554
15259WAT     H146019   6.357   2.764   4.518
15259WAT     H246020   6.388   2.919   4.478
15260WAT      O46021   1.493   3.899   5.528
15260WAT     H146022   1.526   3.931   5.617
15260WAT     H246023   1.497   3.973   5.462
15261WAT      O46024   6.612   8.544   7.288
15261WAT     H146025   6.637   8.603   7.365
15261WAT     H246026   6.611   8.449   7.317
15262WAT      O46027   6.847   0.288   7.741
15262WAT     H146028   6.793   0.215   7.699
15262WAT     H246029   6.944   0.275   7.717
15263WAT      O46030   7.080   3.182   6.800
15263WAT     H146031   7.088   3.237   6.717
15263WAT     H246032   7.123   3.232   6.876
15264WAT      O46033   2.273   1.086   2.716
15264WAT     H146034   2.251   1.141   2.636
15264WAT     H246035   2.209   1.108   2.790
15265WAT      O46036   6.701   3.443   7.927
15265WAT     H146037   6.781   3.382   7.927
15265WAT     H246038   6.654   3.436   7.839
15266WAT      O46039   3.614   0.841   3.070
15266WAT     H146040   3.585   0.877   3.158
15266WAT     H246041   3.713   0.825   3.071
15267WAT      O46042   4.992   3.069   6.519
15267WAT     H146043   4.969   2.983   6.566
15267WAT     H246044   5.006   3.051   6.422
15268WAT      O46045   8.509   1.105   5.451
15268WAT     H146046   8.463   1.137   5.368
15268WAT     H246047   8.445   1.106   5.527
15269WAT      O46048   1.274   8.496   8.473
15269WAT     H146049   1.346   8.553   8.512
15269WAT     H246050   1.312   8.441   8.398
15270WAT      O46051   2.675   7.149   7.121
15270WAT     H146052   2.587   7.154   7.167
15270WAT     H246053   2.686   7.060   7.078
15271WAT      O46054   0.040   8.886   5.426
15271WAT     H146055   0.030   8.844   5.517
15271WAT     H246056  -0.044   8.935   5.403
15272WAT      O46057   9.495   7.476   6.993
15272WAT     H146058   9.463   7.394   6.945
15272WAT     H246059   9.541   7.449   7.077
15273WAT      O46060   7.600   6.910   5.646
15273WAT     H146061   7.629   7.006   5.654
15273WAT     H246062   7.505   6.901   5.675
15274WAT      O46063   1.846   1.482   3.854
15274WAT     H146064   1.911   1.517   3.921
15274WAT     H246065   1.879   1.501   3.761
15275WAT      O46066   7.262   0.240   0.241
15275WAT     H146067   7.193   0.305   0.206
15275WAT     H246068   7.249   0.151   0.197
15276WAT      O46069   4.515   2.836   4.963
15276WAT     H146070   4.421   2.848   4.993
15276WAT     H246071   4.577   2.883   5.027
15277WAT      O46072   7.437   4.311   9.333
15277WAT     H146073   7.524   4.359   9.346
15277WAT     H246074   7.406   4.274   9.420
15278WAT      O46075   6.063   3.824   7.224
15278WAT     H146076   6.058   3.878   7.308
15278WAT     H246077   6.073   3.886   7.146
15279WAT      O46078   6.263   1.174   8.370
15279WAT     H146079   6.247   1.219   8.458
15279WAT     H246080   6.219   1.228   8.298
15280WAT      O46081   9.388   5.076   4.609
15280WAT     H146082   9.333   5.147   4.565
15280WAT     H246083   9.327   5.009   4.653
15281WAT      O46084   5.012   8.376   0.804
15281WAT     H146085   5.047   8.440   0.736
15281WAT     H246086   5.061   8.289   0.797
15282WAT      O46087   6.516   5.241   0.472
15282WAT     H146088   6.426   5.284   0.470
15282WAT     H246089   6.586   5.306   0.441
15283WAT      O46090   3.091   8.027   7.857
15283WAT     H146091   3.078   7.938   7.900
15283WAT     H246092   3.016   8.088   7.883
15284WAT      O46093   6.095   9.117   2.369
15284WAT     H146094   6.119   9.175   2.291
15284WAT     H246095   6.079   9.174   2.449
15285WAT      O46096   3.517   7.140   5.392
15285WAT     H146097   3.508   7.040   5.389
15285WAT     H246098   3.441   7.179   5.443
15286WAT      O46099   4.711   9.695   3.422
15286WAT     H146100   4.683   9.784   3.387
15286WAT     H246101   4.804   9.702   3.460
15287WAT      O46102   7.535   4.935   0.644
15287WAT     H146103   7.453   4.936   0.588
15287WAT     H246104   7.568   5.028   0.658
15288WAT      O46105   3.951   7.226   7.525
15288WAT     H146106   4.014   7.268   7.460
15288WAT     H246107   3.888   7.294   7.560
15289WAT      O46108   2.742   9.326   3.249
15289WAT     H146109   2.801   9.326   3.168
15289WAT     H246110   2.798   9.333   3.331
15290WAT      O46111   5.288   8.675   3.416
15290WAT     H146112   5.202   8.644   3.458
15290WAT     H246113   5.365   8.628   3.459
15291WAT      O46114   1.954   4.345   1.671
15291WAT     H146115   1.944   4.432   1.623
15291WAT     H246116   1.904   4.348   1.758
15292WAT      O46117   9.157   8.656   4.650
15292WAT     H146118   9.125   8.713   4.726
15292WAT     H246119   9.146   8.706   4.564
15293WAT      O46120   4.330   2.141   8.295
15293WAT     H146121   4.354   2.062   8.240
15293WAT     H246122   4.368   2.131   8.387
15294WAT      O46123   3.252   1.502   6.779
15294WAT     H146124   3.274   1.594   6.812
15294WAT     H246125   3.167   1.504   6.728
15295WAT      O46126   4.918   9.793   2.868
15295WAT     H146127   4.942   9.731   2.943
15295WAT     H246128   4.840   9.755   2.818
15296WAT      O46129   4.721   2.892   2.552
15296WAT     H146130   4.771   2.978   2.541
15296WAT     H246131   4.664   2.876   2.471
15297WAT      O46132   1.036   7.844   2.951
15297WAT     H146133   1.084   7.902   2.886
15297WAT     H246134   0.960   7.798   2.904
15298WAT      O46135   7.268   7.509   9.743
15298WAT     H146136   7.364   7.532   9.724
15298WAT     H246137   7.237   7.439   9.679
15299WAT      O46138   3.024   9.224   7.210
15299WAT     H146139   2.940   9.170   7.206
15299WAT     H246140   3.012   9.302   7.271
15300WAT      O46141   8.821   4.234   6.635
15300WAT     H146142   8.873   4.249   6.719
15300WAT     H246143   8.804   4.136   6.623
15301WAT      O46144   1.914   7.271   1.594
15301WAT     H146145   1.997   7.250   1.542
15301WAT     H246146   1.839   7.288   1.531
15302WAT      O46147   7.535   3.336   4.291
15302WAT     H146148   7.573   3.351   4.382
15302WAT     H246149   7.451   3.391   4.280
15303WAT      O46150   3.455   0.384   4.714
15303WAT     H146151   3.420   0.458   4.655
15303WAT     H246152   3.472   0.303   4.659
15304WAT      O46153   1.636   6.978   0.608
15304WAT     H146154   1.559   6.942   0.555
15304WAT     H246155   1.721   6.964   0.556
15305WAT      O46156   2.832   3.714   1.767
15305WAT     H146157   2.842   3.741   1.671
15305WAT     H246158   2.781   3.785   1.815
15306WAT      O46159   5.556   2.267   3.506
15306WAT     H146160   5.546   2.318   3.421
15306WAT     H246161   5.643   2.290   3.549
15307WAT      O46162   8.617   3.616   5.182
15307WAT     H146163   8.619   3.690   5.114
15307WAT     H246164   8.567   3.647   5.263
15308WAT      O46165   0.883   4.884   3.940
15308WAT     H146166   0.977   4.895   3.972
15308WAT     H246167   0.878   4.910   3.843
15309WAT      O46168   1.927   4.409   8.781
15309WAT     H146169   1.938   4.413   8.682
15309WAT     H246170   1.892   4.319   8.807
15310WAT      O46171   2.782   1.907   2.411
15310WAT     H146172   2.771   1.835   2.479
15310WAT     H246173   2.740   1.879   2.324
15311WAT      O46174   1.825   1.752   4.090
15311WAT     H146175   1.851   1.811   4.168
15311WAT     H246176   1.758   1.800   4.034
15312WAT      O46177   3.741   7.138   8.705
15312WAT     H146178   3.693   7.223   8.681
15312WAT     H246179   3.675   7.066   8.725
15313WAT      O46180   7.528   2.950   2.313
15313WAT     H146181   7.438   2.942   2.354
15313WAT     H246182   7.558   3.045   2.316
15314WAT      O46183   3.883   9.319   4.985
15314WAT     H146184   3.838   9.312   5.074
15314WAT     H246185   3.850   9.246   4.925
15315WAT      O46186   5.097   7.288   2.117
15315WAT     H146187   5.047   7.203   2.099
15315WAT     H246188   5.191   7.266   2.142
15316WAT      O46189   1.530   0.981   0.330
15316WAT     H146190   1.621   1.002   0.296
15316WAT     H246191   1.518   0.882   0.336
15317WAT      O46192   3.879   9.073   6.758
15317WAT     H146193   3.787   9.099   6.728
15317WAT     H246194   3.911   9.138   6.827
15318WAT      O46195   9.614   9.319   8.005
15318WAT     H146196   9.586   9.298   8.099
15318WAT     H246197   9.660   9.240   7.966
15319WAT      O46198   7.919   0.701   0.494
15319WAT     H146199   7.842   0.737   0.547
15319WAT     H246200   7.933   0.604   0.516
15320WAT      O46201   8.358   1.493   9.265
15320WAT     H146202   8.426   1.510   9.336
15320WAT     H246203   8.307   1.410   9.288
15321WAT      O46204   8.024   7.037   0.417
15321WAT     H146205   7.973   6.982   0.351
15321WAT     H246206   8.043   7.127   0.379
15322WAT      O46207   2.533   8.057   0.218
15322WAT     H146208   2.601   8.084   0.287
15322WAT     H246209   2.579   8.010   0.142
15323WAT      O46210   9.306   6.926   6.766
15323WAT     H146211   9.207   6.916   6.755
15323WAT     H246212   9.345   6.963   6.682
15324WAT      O46213   7.042   2.464   2.199
15324WAT     H146214   7.052   2.561   2.173
15324WAT     H246215   7.050   2.455   2.298
15325WAT      O46216   7.705   0.503   1.624
15325WAT     H146217   7.757   0.581   1.661
15325WAT     H246218   7.679   0.522   1.529
15326WAT      O46219   7.120   2.746   3.247
15326WAT     H146220   7.126   2.660   3.297
15326WAT     H246221   7.190   2.809   3.282
15327WAT      O46222   8.891   5.000   8.835
15327WAT     H146223   8.878   5.079   8.775
15327WAT     H246224   8.807   4.984   8.888
15328WAT      O46225   0.893   9.442   5.644
15328WAT     H146226   0.870   9.496   5.563
15328WAT     H246227   0.993   9.439   5.654
15329WAT      O46228   3.465   6.146   2.393
15329WAT     H146229   3.537   6.125   2.460
15329WAT     H246230   3.485   6.232   2.347
15330WAT      O46231   7.601   6.504   5.794
15330WAT     H146232   7.680   6.443   5.785
15330WAT     H246233   7.633   6.599   5.798
15331WAT      O46234   3.502   8.011   2.520
15331WAT     H146235   3.480   7.913   2.526
15331WAT     H246236   3.494   8.053   2.610
15332WAT      O46237   2.051   8.666   3.773
15332WAT     H146238   2.065   8.754   3.728
15332WAT     H246239   2.055   8.678   3.872
15333WAT      O46240   8.439   6.482   1.612
15333WAT     H146241   8.368   6.550   1.628
15333WAT     H246242   8.403   6.409   1.553
15334WAT      O46243   6.801   0.611   0.650
15334WAT     H146244   6.710   0.653   0.637
15334WAT     H246245   6.840   0.589   0.561
15335WAT      O46246   7.290   3.574   4.577
15335WAT     H146247   7.283   3.508   4.652
15335WAT     H246248   7.253   3.662   4.607
15336WAT      O46249   3.447   5.866   0.689
15336WAT     H146250   3.447   5.902   0.782
15336WAT     H246251   3.499   5.780   0.687
15337WAT      O46252   1.701   8.965   5.989
15337WAT     H146253   1.762   8.894   5.953
15337WAT     H246254   1.621   8.974   5.929
15338WAT      O46255   4.678   6.490   3.394
15338WAT     H146256   4.759   6.437   3.370
15338WAT     H246257   4.659   6.481   3.492
15339WAT      O46258   3.581   8.221   3.931
15339WAT     H146259   3.535   8.308   3.947
15339WAT     H246260   3.680   8.233   3.944
15340WAT      O46261   9.308   4.068   8.859
15340WAT     H146262   9.336   4.158   8.826
15340WAT     H246263   9.221   4.042   8.816
15341WAT      O46264   5.625   4.185   9.866
15341WAT     H146265   5.581   4.241   9.795
15341WAT     H246266   5.647   4.095   9.828
15342WAT      O46267   6.382   2.303   4.287
15342WAT     H146268   6.358   2.390   4.246
15342WAT     H246269   6.449   2.318   4.360
15343WAT      O46270   3.083   1.932   0.866
15343WAT     H146271   3.095   2.007   0.802
15343WAT     H246272   3.167   1.878   0.870
15344WAT      O46273   4.635   8.016   9.109
15344WAT     H146274   4.555   8.057   9.064
15344WAT     H246275   4.693   8.089   9.145
15345WAT      O46276   5.347   7.761   4.593
15345WAT     H146277   5.441   7.726   4.594
15345WAT     H246278   5.290   7.705   4.652
15346WAT      O46279   9.281   6.618   0.259
15346WAT     H146280   9.278   6.684   0.184
15346WAT     H246281   9.376   6.599   0.283
15347WAT      O46282   6.869   1.911   8.380
15347WAT     H146283   6.875   1.841   8.452
15347WAT     H246284   6.773   1.932   8.362
15348WAT      O46285   7.935   1.482   4.397
15348WAT     H146286   7.936   1.479   4.297
15348WAT     H246287   7.983   1.401   4.433
15349WAT      O46288   5.255   3.710   9.435
15349WAT     H146289   5.207   3.686   9.520
15349WAT     H246290   5.227   3.647   9.362
15350WAT      O46291   5.090   1.695   0.047
15350WAT     H146292   5.156   1.700   0.122
15350WAT     H246293   5.036   1.780   0.045
15351WAT      O46294   2.785   6.246   3.901
15351WAT     H146295   2.703   6.221   3.954
15351WAT     H246296   2.792   6.186   3.822
15352WAT      O46297   6.495   4.762   6.777
15352WAT     H146298   6.412   4.730   6.731
15352WAT     H246299   6.554   4.685   6.799
15353WAT      O46300   4.929   7.311   9.299
15353WAT     H146301   4.927   7.310   9.399
15353WAT     H246302   4.839   7.336   9.265
15354WAT      O46303   8.003   7.729   5.693
15354WAT     H146304   7.996   7.681   5.606
15354WAT     H246305   8.098   7.755   5.709
15355WAT      O46306   8.761   8.769   5.818
15355WAT     H146307   8.666   8.750   5.841
15355WAT     H246308   8.811   8.683   5.809
15356WAT      O46309   6.759   8.519   5.697
15356WAT     H146310   6.724   8.495   5.607
15356WAT     H246311   6.802   8.440   5.739
15357WAT      O46312   6.806   9.306   5.964
15357WAT     H146313   6.884   9.353   6.004
15357WAT     H246314   6.755   9.369   5.906
15358WAT      O46315   8.509   7.932   9.733
15358WAT     H146316   8.485   7.952   9.828
15358WAT     H246317   8.433   7.886   9.688
15359WAT      O46318   3.847   1.748   5.386
15359WAT     H146319   3.861   1.718   5.481
15359WAT     H246320   3.775   1.692   5.344
15360WAT      O46321   4.888   6.356   2.099
15360WAT     H146322   4.940   6.358   2.184
15360WAT     H246323   4.848   6.446   2.082
15361WAT      O46324   3.610   2.998   2.364
15361WAT     H146325   3.578   2.904   2.377
15361WAT     H246326   3.574   3.034   2.278
15362WAT      O46327   6.976   9.401   7.793
15362WAT     H146328   7.058   9.438   7.836
15362WAT     H246329   6.994   9.310   7.757
15363WAT      O46330   5.257   6.546   9.151
15363WAT     H146331   5.309   6.479   9.099
15363WAT     H246332   5.159   6.529   9.141
15364WAT      O46333   9.076   9.260   6.020
15364WAT     H146334   9.161   9.208   6.021
15364WAT     H246335   9.080   9.329   5.948
15365WAT      O46336   8.869   8.277   3.866
15365WAT     H146337   8.787   8.330   3.841
15365WAT     H246338   8.872   8.266   3.965
15366WAT      O46339   8.529   5.374   4.533
15366WAT     H146340   8.473   5.438   4.585
15366WAT     H246341   8.563   5.303   4.595
15367WAT      O46342   1.701   8.573   5.354
15367WAT     H146343   1.799   8.568   5.370
15367WAT     H246344   1.684   8.598   5.259
15368WAT      O46345   0.734   8.348   6.562
15368WAT     H146346   0.769   8.407   6.490
15368WAT     H246347   0.788   8.264   6.565
15369WAT      O46348   2.352   8.128   4.701
15369WAT     H146349   2.411   8.056   4.663
15369WAT     H246350   2.399   8.216   4.695
15370WAT      O46351   8.089   4.121   8.510
15370WAT     H146352   8.185   4.140   8.532
15370WAT     H246353   8.030   4.186   8.557
15371WAT      O46354   7.475   3.746   7.472
15371WAT     H146355   7.465   3.844   7.458
15371WAT     H246356   7.519   3.729   7.560
15372WAT      O46357   3.378   7.067   2.302
15372WAT     H146358   3.435   7.113   2.370
15372WAT     H246359   3.362   6.972   2.329
15373WAT      O46360   2.549   2.546   5.498
15373WAT     H146361   2.546   2.646   5.500
15373WAT     H246362   2.548   2.511   5.592
15374WAT      O46363   9.210   9.709   1.164
15374WAT     H146364   9.291   9.756   1.200
15374WAT     H246365   9.232   9.613   1.150
15375WAT      O46366   5.859   6.478   5.394
15375WAT     H146367   5.906   6.533   5.463
15375WAT     H246368   5.923   6.457   5.320
15376WAT      O46369   4.009   2.814   8.421
15376WAT     H146370   4.060   2.746   8.370
15376WAT     H246371   3.915   2.818   8.387
15377WAT      O46372   8.800   0.680   1.148
15377WAT     H146373   8.880   0.721   1.104
15377WAT     H246374   8.791   0.716   1.241
15378WAT      O46375   7.631   8.197   5.031
15378WAT     H146376   7.607   8.135   4.956
15378WAT     H246377   7.693   8.151   5.095
15379WAT      O46378   1.987   8.599   1.653
15379WAT     H146379   2.013   8.529   1.586
15379WAT     H246380   2.038   8.683   1.635
15380WAT      O46381   4.909   2.253   7.370
15380WAT     H146382   4.911   2.337   7.424
15380WAT     H246383   4.893   2.175   7.430
15381WAT      O46384   0.699   1.748   4.959
15381WAT     H146385   0.748   1.670   4.998
15381WAT     H246386   0.764   1.812   4.918
15382WAT      O46387   1.454   3.755   0.655
15382WAT     H146388   1.404   3.775   0.740
15382WAT     H246389   1.410   3.803   0.579
15383WAT      O46390   9.615   6.107   7.749
15383WAT     H146391   9.689   6.066   7.696
15383WAT     H246392   9.567   6.035   7.800
15384WAT      O46393   1.244   3.557   3.680
15384WAT     H146394   1.205   3.631   3.624
15384WAT     H246395   1.189   3.545   3.762
15385WAT      O46396   1.509   4.802   0.691
15385WAT     H146397   1.532   4.749   0.772
15385WAT     H246398   1.512   4.900   0.714
15386WAT      O46399   7.112   4.153   3.618
15386WAT     H146400   7.128   4.164   3.716
15386WAT     H246401   7.015   4.136   3.601
15387WAT      O46402   8.638   5.590   7.092
15387WAT     H146403   8.733   5.579   7.065
15387WAT     H246404   8.578   5.553   7.021
15388WAT      O46405   7.195   1.567   2.113
15388WAT     H146406   7.277   1.538   2.065
15388WAT     H246407   7.222   1.614   2.198
15389WAT      O46408   4.999   0.985   9.727
15389WAT     H146409   4.970   1.079   9.742
15389WAT     H246410   4.970   0.956   9.636
15390WAT      O46411   6.861   2.011   2.045
15390WAT     H146412   6.949   2.050   2.069
15390WAT     H246413   6.792   2.040   2.112
15391WAT      O46414   3.219   8.235   2.660
15391WAT     H146415   3.158   8.193   2.727
15391WAT     H246416   3.195   8.203   2.569
15392WAT      O46417   1.063   9.713   8.048
15392WAT     H146418   1.025   9.805   8.047
15392WAT     H246419   0.990   9.646   8.037
15393WAT      O46420   5.677   9.052   8.046
15393WAT     H146421   5.686   8.958   8.012
15393WAT     H246422   5.580   9.075   8.051
15394WAT      O46423   6.183   5.611   3.630
15394WAT     H146424   6.146   5.549   3.699
15394WAT     H246425   6.273   5.579   3.602
15395WAT      O46426   4.459   5.962   1.335
15395WAT     H146427   4.478   6.028   1.408
15395WAT     H246428   4.506   5.876   1.355
15396WAT      O46429   7.493   8.135   9.267
15396WAT     H146430   7.468   8.107   9.360
15396WAT     H246431   7.532   8.227   9.270
15397WAT      O46432   6.843   0.544   6.378
15397WAT     H146433   6.900   0.539   6.296
15397WAT     H246434   6.860   0.464   6.436
15398WAT      O46435   2.918   6.370   4.126
15398WAT     H146436   2.962   6.449   4.082
15398WAT     H246437   2.876   6.313   4.055
15399WAT      O46438   1.542   3.156   5.642
15399WAT     H146439   1.575   3.062   5.638
15399WAT     H246440   1.453   3.162   5.595
15400WAT      O46441   9.667   8.679   9.238
15400WAT     H146442   9.717   8.677   9.325
15400WAT     H246443   9.675   8.591   9.193
15401WAT      O46444   3.095   2.910   7.841
15401WAT     H146445   3.028   2.848   7.801
15401WAT     H246446   3.048   2.981   7.894
15402WAT      O46447   4.723   1.388   8.873
15402WAT     H146448   4.813   1.346   8.862
15402WAT     H246449   4.733   1.484   8.897
15403WAT      O46450   7.358   8.219   1.907
15403WAT     H146451   7.447   8.255   1.935
15403WAT     H246452   7.364   8.120   1.896
15404WAT      O46453   7.954   4.715   8.609
15404WAT     H146454   7.891   4.688   8.537
15404WAT     H246455   8.008   4.794   8.577
15405WAT      O46456   6.974   0.789   0.774
15405WAT     H146457   7.016   0.848   0.704
15405WAT     H246458   6.922   0.717   0.730
15406WAT      O46459   1.738   8.798   3.387
15406WAT     H146460   1.752   8.894   3.410
15406WAT     H246461   1.796   8.740   3.445
15407WAT      O46462   6.933   9.599   2.418
15407WAT     H146463   6.896   9.584   2.510
15407WAT     H246464   6.882   9.542   2.352
15408WAT      O46465   9.014   9.742   4.429
15408WAT     H146466   8.981   9.707   4.516
15408WAT     H246467   9.093   9.689   4.399
15409WAT      O46468   1.205   7.091   0.424
15409WAT     H146469   1.292   7.062   0.384
15409WAT     H246470   1.155   7.011   0.458
15410WAT      O46471   8.227   5.241   4.590
15410WAT     H146472   8.257   5.333   4.616
15410WAT     H246473   8.136   5.246   4.550
15411WAT      O46474   1.930   8.059   3.065
15411WAT     H146475   1.953   8.086   2.972
15411WAT     H246476   1.984   7.979   3.091
15412WAT      O46477   3.154   3.697   9.238
15412WAT     H146478   3.132   3.722   9.333
15412WAT     H246479   3.190   3.603   9.236
15413WAT      O46480   5.561   5.817   2.427
15413WAT     H146481   5.520   5.884   2.365
15413WAT     H246482   5.563   5.727   2.384
15414WAT      O46483   5.929   8.779   9.273
15414WAT     H146484   5.947   8.845   9.346
15414WAT     H246485   5.858   8.815   9.212
15415WAT      O46486   2.193   4.637   4.230
15415WAT     H146487   2.223   4.561   4.172
15415WAT     H246488   2.213   4.724   4.184
15416WAT      O46489   2.385   5.007   2.805
15416WAT     H146490   2.296   5.023   2.761
15416WAT     H246491   2.430   4.929   2.762
15417WAT      O46492   6.847   4.680   2.179
15417WAT     H146493   6.788   4.655   2.256
15417WAT     H246494   6.824   4.623   2.100
15418WAT      O46495   4.772   7.835   1.212
15418WAT     H146496   4.706   7.879   1.152
15418WAT     H246497   4.769   7.877   1.303
15419WAT      O46498   8.088   7.947   9.619
15419WAT     H146499   8.142   8.004   9.558
15419WAT     H246500   8.056   8.002   9.697
15420WAT      O46501   9.123   1.198   5.058
15420WAT     H146502   9.058   1.274   5.051
15420WAT     H246503   9.087   1.129   5.120
15421WAT      O46504   8.150   3.954   1.893
15421WAT     H146505   8.147   4.054   1.893
15421WAT     H246506   8.133   3.920   1.985
15422WAT      O46507   2.630   9.673   0.993
15422WAT     H146508   2.646   9.772   0.986
15422WAT     H246509   2.716   9.624   0.977
15423WAT      O46510   2.705   7.426   7.120
15423WAT     H146511   2.768   7.503   7.116
15423WAT     H246512   2.757   7.341   7.128
15424WAT      O46513   5.527   4.631   7.491
15424WAT     H146514   5.575   4.593   7.569
15424WAT     H246515   5.566   4.595   7.406
15425WAT      O46516   7.178   0.893   5.230
15425WAT     H146517   7.150   0.820   5.168
15425WAT     H246518   7.240   0.956   5.183
15426WAT      O46519   6.997   1.280   9.140
15426WAT     H146520   7.066   1.293   9.068
15426WAT     H246521   6.982   1.366   9.188
15427WAT      O46522   9.474   8.093   3.160
15427WAT     H146523   9.530   8.170   3.190
15427WAT     H246524   9.441   8.111   3.067
15428WAT      O46525   7.701   0.374   3.454
15428WAT     H146526   7.668   0.464   3.481
15428WAT     H246527   7.737   0.379   3.361
15429WAT      O46528   1.727   7.845   3.183
15429WAT     H146529   1.648   7.900   3.208
15429WAT     H246530   1.790   7.900   3.127
15430WAT      O46531   2.070   2.929   1.960
15430WAT     H146532   2.073   2.856   2.029
15430WAT     H246533   2.022   3.008   1.997
15431WAT      O46534   9.321   6.705   8.143
15431WAT     H146535   9.302   6.735   8.236
15431WAT     H246536   9.419   6.687   8.133
15432WAT      O46537   0.602   1.569   9.860
15432WAT     H146538   0.542   1.618   9.923
15432WAT     H246539   0.660   1.635   9.812
15433WAT      O46540   2.618   7.834   0.547
15433WAT     H146541   2.704   7.856   0.502
15433WAT     H246542   2.562   7.917   0.555
15434WAT      O46543   0.141   4.355   3.760
15434WAT     H146544   0.203   4.291   3.805
15434WAT     H246545   0.070   4.305   3.711
15435WAT      O46546   7.608   6.161   7.648
15435WAT     H146547   7.704   6.186   7.642
15435WAT     H246548   7.552   6.233   7.605
15436WAT      O46549   4.876   6.944   5.110
15436WAT     H146550   4.844   6.998   5.189
15436WAT     H246551   4.836   6.981   5.026
15437WAT      O46552   6.805   9.605   9.364
15437WAT     H146553   6.812   9.568   9.272
15437WAT     H246554   6.712   9.590   9.398
15438WAT      O46555   1.001   7.446   3.280
15438WAT     H146556   0.923   7.476   3.225
15438WAT     H246557   0.988   7.474   3.375
15439WAT      O46558   1.644   1.070   0.932
15439WAT     H146559   1.704   1.093   1.008
15439WAT     H246560   1.589   1.150   0.908
15440WAT      O46561   8.331   0.821   8.559
15440WAT     H146562   8.398   0.749   8.539
15440WAT     H246563   8.380   0.904   8.587
15441WAT      O46564   7.658   8.933   3.466
15441WAT     H146565   7.573   8.904   3.423
15441WAT     H246566   7.692   8.861   3.526
15442WAT      O46567   9.477   4.399   0.066
15442WAT     H146568   9.533   4.400   0.149
15442WAT     H246569   9.407   4.328   0.074
15443WAT      O46570   9.837   3.539   6.924
15443WAT     H146571   9.822   3.554   6.826
15443WAT     H246572   9.757   3.492   6.962
15444WAT      O46573   4.036   0.713   8.511
15444WAT     H146574   3.997   0.804   8.494
15444WAT     H246575   4.095   0.688   8.435
15445WAT      O46576   2.362   4.993   7.528
15445WAT     H146577   2.405   4.912   7.568
15445WAT     H246578   2.419   5.027   7.454
15446WAT      O46579   2.446   0.459   7.217
15446WAT     H146580   2.450   0.494   7.124
15446WAT     H246581   2.471   0.533   7.281
15447WAT      O46582   5.008   5.301   2.312
15447WAT     H146583   4.941   5.329   2.381
15447WAT     H246584   4.975   5.328   2.221
15448WAT      O46585   3.435   3.423   3.161
15448WAT     H146586   3.500   3.347   3.164
15448WAT     H246587   3.363   3.407   3.229
15449WAT      O46588   1.023   2.357   1.923
15449WAT     H146589   1.115   2.368   1.885
15449WAT     H246590   0.966   2.435   1.897
15450WAT      O46591   7.598   9.320   9.882
15450WAT     H146592   7.662   9.258   9.927
15450WAT     H246593   7.648   9.395   9.839
15451WAT      O46594   6.449   5.231   6.395
15451WAT     H146595   6.532   5.188   6.360
15451WAT     H246596   6.460   5.330   6.395
15452WAT      O46597   9.027   8.579   3.852
15452WAT     H146598   9.063   8.503   3.906
15452WAT     H246599   8.937   8.554   3.817
15453WAT      O46600   5.754   4.361   0.989
15453WAT     H146601   5.789   4.377   0.897
15453WAT     H246602   5.830   4.359   1.054
15454WAT      O46603   5.777   9.263   4.464
15454WAT     H146604   5.826   9.338   4.508
15454WAT     H246605   5.844   9.201   4.421
15455WAT      O46606   3.376   0.516   7.255
15455WAT     H146607   3.301   0.570   7.217
15455WAT     H246608   3.457   0.525   7.197
15456WAT      O46609   8.360   0.868   0.551
15456WAT     H146610   8.394   0.874   0.645
15456WAT     H246611   8.428   0.906   0.488
15457WAT      O46612   2.168   3.719   5.031
15457WAT     H146613   2.118   3.633   5.027
15457WAT     H246614   2.259   3.704   5.070
15458WAT      O46615   8.221   7.427   9.163
15458WAT     H146616   8.272   7.416   9.249
15458WAT     H246617   8.154   7.353   9.154
15459WAT      O46618   5.182   9.498   0.434
15459WAT     H146619   5.173   9.571   0.502
15459WAT     H246620   5.224   9.534   0.351
15460WAT      O46621   7.592   0.140   3.558
15460WAT     H146622   7.651   0.062   3.580
15460WAT     H246623   7.649   0.220   3.539
15461WAT      O46624   6.105   3.732   2.883
15461WAT     H146625   6.108   3.675   2.964
15461WAT     H246626   6.198   3.754   2.854
15462WAT      O46627   0.954   3.980   4.010
15462WAT     H146628   0.933   3.907   4.074
15462WAT     H246629   0.941   4.069   4.055
15463WAT      O46630   8.559   1.508   0.513
15463WAT     H146631   8.495   1.585   0.519
15463WAT     H246632   8.513   1.430   0.472
15464WAT      O46633   8.893   1.216   5.537
15464WAT     H146634   8.814   1.159   5.514
15464WAT     H246635   8.970   1.191   5.478
15465WAT      O46636   5.230   9.772   2.790
15465WAT     H146637   5.152   9.737   2.738
15465WAT     H246638   5.218   9.870   2.805
15466WAT      O46639   9.604   0.203   5.018
15466WAT     H146640   9.681   0.249   4.974
15466WAT     H246641   9.552   0.152   4.950
15467WAT      O46642   1.939   7.651   3.382
15467WAT     H146643   1.972   7.575   3.437
15467WAT     H246644   1.853   7.626   3.338
15468WAT      O46645   8.811   0.217   2.493
15468WAT     H146646   8.757   0.286   2.541
15468WAT     H246647   8.756   0.134   2.481
15469WAT      O46648   9.228   2.960   6.080
15469WAT     H146649   9.253   2.882   6.022
15469WAT     H246650   9.188   2.926   6.165
15470WAT      O46651   2.795   4.497   3.954
15470WAT     H146652   2.844   4.569   4.002
15470WAT     H246653   2.763   4.429   4.019
15471WAT      O46654   3.532   3.247   6.902
15471WAT     H146655   3.466   3.304   6.852
15471WAT     H246656   3.583   3.304   6.967
15472WAT      O46657   9.767   2.485   0.436
15472WAT     H146658   9.856   2.499   0.480
15472WAT     H246659   9.708   2.431   0.497
15473WAT      O46660   9.742   6.149   6.060
15473WAT     H146661   9.702   6.229   6.015
15473WAT     H246662   9.689   6.067   6.038
15474WAT      O46663   3.498   6.197   3.466
15474WAT     H146664   3.452   6.155   3.544
15474WAT     H246665   3.484   6.140   3.384
15475WAT      O46666   2.338   9.487   5.539
15475WAT     H146667   2.298   9.422   5.604
15475WAT     H246668   2.353   9.575   5.585
15476WAT      O46669   2.343   5.901   9.697
15476WAT     H146670   2.272   5.842   9.735
15476WAT     H246671   2.353   5.983   9.754
15477WAT      O46672   6.528   3.663   5.845
15477WAT     H146673   6.627   3.650   5.839
15477WAT     H246674   6.492   3.685   5.755
15478WAT      O46675   5.495   6.570   9.713
15478WAT     H146676   5.464   6.632   9.785
15478WAT     H246677   5.464   6.477   9.734
15479WAT      O46678   5.496   8.468   4.142
15479WAT     H146679   5.516   8.468   4.241
15479WAT     H246680   5.398   8.457   4.128
15480WAT      O46681   7.687   3.240   1.972
15480WAT     H146682   7.698   3.337   1.951
15480WAT     H246683   7.768   3.207   2.021
15481WAT      O46684   1.227   4.740   4.959
15481WAT     H146685   1.248   4.722   5.055
15481WAT     H246686   1.274   4.824   4.929
15482WAT      O46687   6.640   6.964   6.343
15482WAT     H146688   6.659   6.890   6.278
15482WAT     H246689   6.548   6.952   6.381
15483WAT      O46690   9.813   8.164   8.945
15483WAT     H146691   9.861   8.252   8.938
15483WAT     H246692   9.809   8.136   9.041
15484WAT      O46693   8.521   0.436   9.182
15484WAT     H146694   8.583   0.512   9.200
15484WAT     H246695   8.434   0.470   9.149
15485WAT      O46696   4.033   1.154   6.104
15485WAT     H146697   4.020   1.057   6.081
15485WAT     H246698   4.122   1.166   6.148
15486WAT      O46699   4.965   6.539   7.523
15486WAT     H146700   4.939   6.448   7.491
15486WAT     H246701   4.948   6.546   7.622
15487WAT      O46702   8.963   0.896   7.825
15487WAT     H146703   8.946   0.860   7.917
15487WAT     H246704   9.048   0.948   7.825
15488WAT      O46705   0.771   1.587   7.184
15488WAT     H146706   0.766   1.656   7.112
15488WAT     H246707   0.845   1.611   7.247
15489WAT      O46708   7.714   7.623   1.293
15489WAT     H146709   7.735   7.720   1.297
15489WAT     H246710   7.796   7.571   1.269
15490WAT      O46711   2.927   3.361   3.329
15490WAT     H146712   2.929   3.443   3.272
15490WAT     H246713   2.879   3.381   3.414
15491WAT      O46714   8.872   8.547   0.930
15491WAT     H146715   8.833   8.485   0.998
15491WAT     H246716   8.895   8.495   0.848
15492WAT      O46717   0.106   7.283   1.213
15492WAT     H146718   0.066   7.228   1.287
15492WAT     H246719   0.097   7.380   1.235
15493WAT      O46720   6.156   9.791   1.813
15493WAT     H146721   6.095   9.805   1.892
15493WAT     H246722   6.202   9.703   1.822
15494WAT      O46723   1.768   8.797   0.308
15494WAT     H146724   1.752   8.711   0.357
15494WAT     H246725   1.707   8.801   0.228
15495WAT      O46726   4.553   4.782   6.206
15495WAT     H146727   4.625   4.714   6.191
15495WAT     H246728   4.594   4.868   6.238
15496WAT      O46729   6.784   5.972   8.637
15496WAT     H146730   6.750   6.012   8.722
15496WAT     H246731   6.869   5.922   8.655
15497WAT      O46732   2.016   3.220   4.425
15497WAT     H146733   2.022   3.128   4.464
15497WAT     H246734   1.922   3.252   4.429
15498WAT      O46735   9.523   5.302   5.576
15498WAT     H146736   9.597   5.293   5.643
15498WAT     H246737   9.556   5.274   5.486
15499WAT      O46738   5.047   3.490   2.740
15499WAT     H146739   5.022   3.424   2.669
15499WAT     H246740   5.095   3.443   2.814
15500WAT      O46741   4.837   8.381   2.888
15500WAT     H146742   4.771   8.366   2.814
15500WAT     H246743   4.790   8.378   2.976
15501WAT      O46744   3.873   1.362   9.313
15501WAT     H146745   3.897   1.351   9.217
15501WAT     H246746   3.798   1.428   9.322
15502WAT      O46747   6.158   8.177   4.460
15502WAT     H146748   6.059   8.181   4.469
15502WAT     H246749   6.185   8.212   4.371
15503WAT      O46750   6.295   8.526   7.210
15503WAT     H146751   6.297   8.603   7.146
15503WAT     H246752   6.389   8.499   7.233
15504WAT      O46753   2.943   4.645   5.814
15504WAT     H146754   3.032   4.661   5.857
15504WAT     H246755   2.913   4.552   5.836
15505WAT      O46756   0.656   2.711   8.372
15505WAT     H146757   0.564   2.679   8.350
15505WAT     H246758   0.679   2.790   8.315
15506WAT      O46759   5.431   8.105   0.136
15506WAT     H146760   5.385   8.147   0.214
15506WAT     H246761   5.482   8.175   0.086
15507WAT      O46762   6.514   9.360   9.188
15507WAT     H146763   6.481   9.344   9.094
15507WAT     H246764   6.575   9.286   9.215
15508WAT      O46765   6.050   8.598   3.186
15508WAT     H146766   5.952   8.585   3.174
15508WAT     H246767   6.070   8.695   3.195
15509WAT      O46768   0.719   3.896   3.144
15509WAT     H146769   0.682   3.988   3.128
15509WAT     H246770   0.646   3.835   3.174
15510WAT      O46771   6.925   4.102   0.017
15510WAT     H146772   6.966   4.178  -0.033
15510WAT     H246773   6.945   4.016  -0.030
15511WAT      O46774   6.830   7.055   1.765
15511WAT     H146775   6.806   7.151   1.780
15511WAT     H246776   6.905   7.049   1.699
15512WAT      O46777   5.962   8.303   3.758
15512WAT     H146778   5.946   8.361   3.838
15512WAT     H246779   6.051   8.324   3.719
15513WAT      O46780   6.182   9.219   5.099
15513WAT     H146781   6.137   9.157   5.163
15513WAT     H246782   6.274   9.241   5.133
15514WAT      O46783   2.962   4.332   2.171
15514WAT     H146784   2.985   4.427   2.150
15514WAT     H246785   3.047   4.281   2.187
15515WAT      O46786   0.081   5.887   6.644
15515WAT     H146787   0.100   5.881   6.742
15515WAT     H246788   0.152   5.940   6.599
15516WAT      O46789   5.247   6.972   5.709
15516WAT     H146790   5.308   7.037   5.664
15516WAT     H246791   5.270   6.967   5.806
15517WAT      O46792   6.923   8.759   5.657
15517WAT     H146793   6.845   8.696   5.658
15517WAT     H246794   7.004   8.711   5.621
15518WAT      O46795   8.837   7.517   4.456
15518WAT     H146796   8.798   7.600   4.495
15518WAT     H246797   8.764   7.457   4.424
15519WAT      O46798   2.717   9.258   0.331
15519WAT     H146799   2.787   9.237   0.400
15519WAT     H246800   2.748   9.335   0.275
15520WAT      O46801   6.707   6.607   7.627
15520WAT     H146802   6.707   6.507   7.617
15520WAT     H246803   6.720   6.631   7.724
15521WAT      O46804   3.147   6.637   1.004
15521WAT     H146805   3.134   6.599   1.095
15521WAT     H246806   3.058   6.663   0.966
15522WAT      O46807   9.752   7.425   5.105
15522WAT     H146808   9.753   7.337   5.057
15522WAT     H246809   9.744   7.410   5.203
15523WAT      O46810   0.058   9.078   7.638
15523WAT     H146811  -0.004   9.151   7.608
15523WAT     H246812   0.139   9.119   7.680
15524WAT      O46813   9.709   2.045   4.954
15524WAT     H146814   9.672   2.121   5.007
15524WAT     H246815   9.773   1.993   5.012
15525WAT      O46816   4.059   0.968   0.148
15525WAT     H146817   4.047   0.997   0.053
15525WAT     H246818   4.102   0.878   0.151
15526WAT      O46819   1.110   3.153   9.751
15526WAT     H146820   1.049   3.190   9.821
15526WAT     H246821   1.097   3.203   9.665
15527WAT      O46822   0.163   3.226   0.162
15527WAT     H146823   0.064   3.212   0.172
15527WAT     H246824   0.192   3.195   0.071
15528WAT      O46825   6.091   0.444   7.952
15528WAT     H146826   6.188   0.463   7.941
15528WAT     H246827   6.044   0.461   7.865
15529WAT      O46828   2.836   0.887   2.708
15529WAT     H146829   2.800   0.844   2.791
15529WAT     H246830   2.852   0.816   2.639
15530WAT      O46831   8.856   4.645   8.629
15530WAT     H146832   8.868   4.585   8.550
15530WAT     H246833   8.939   4.699   8.642
15531WAT      O46834   3.830   5.624   6.964
15531WAT     H146835   3.845   5.526   6.947
15531WAT     H246836   3.911   5.675   6.937
15532WAT      O46837   0.602   3.580   5.969
15532WAT     H146838   0.533   3.593   6.040
15532WAT     H246839   0.596   3.654   5.902
15533WAT      O46840   1.859   1.575   3.600
15533WAT     H146841   1.891   1.570   3.505
15533WAT     H246842   1.770   1.621   3.603
15534WAT      O46843   4.686   6.615   9.687
15534WAT     H146844   4.601   6.570   9.660
15534WAT     H246845   4.713   6.679   9.616
15535WAT      O46846   2.520   2.435   2.364
15535WAT     H146847   2.538   2.370   2.438
15535WAT     H246848   2.539   2.528   2.397
15536WAT      O46849   2.304   6.839   5.233
15536WAT     H146850   2.296   6.879   5.324
15536WAT     H246851   2.295   6.739   5.240
15537WAT      O46852   1.386   0.481   3.550
15537WAT     H146853   1.471   0.491   3.498
15537WAT     H246854   1.310   0.519   3.497
15538WAT      O46855   6.284   4.500   6.479
15538WAT     H146856   6.228   4.460   6.552
15538WAT     H246857   6.225   4.552   6.417
15539WAT      O46858   0.236   0.821   3.003
15539WAT     H146859   0.216   0.894   3.069
15539WAT     H246860   0.210   0.733   3.043
15540WAT      O46861   5.685   0.065   2.793
15540WAT     H146862   5.649  -0.016   2.746
15540WAT     H246863   5.663   0.146   2.739
15541WAT      O46864   2.361   7.104   4.239
15541WAT     H146865   2.426   7.142   4.175
15541WAT     H246866   2.359   7.004   4.231
15542WAT      O46867   7.131   4.675   4.687
15542WAT     H146868   7.208   4.693   4.749
15542WAT     H246869   7.056   4.738   4.708
15543WAT      O46870   8.851   7.732   8.711
15543WAT     H146871   8.784   7.675   8.663
15543WAT     H246872   8.873   7.689   8.799
15544WAT      O46873   2.281   4.044   8.297
15544WAT     H146874   2.338   4.114   8.339
15544WAT     H246875   2.335   3.990   8.232
15545WAT      O46876   8.906   5.257   8.098
15545WAT     H146877   8.849   5.209   8.165
15545WAT     H246878   8.853   5.275   8.015
15546WAT      O46879   2.632   4.569   0.826
15546WAT     H146880   2.663   4.536   0.915
15546WAT     H246881   2.534   4.548   0.815
15547WAT      O46882   0.475   5.302   0.123
15547WAT     H146883   0.473   5.224   0.061
15547WAT     H246884   0.492   5.386   0.071
15548WAT      O46885   2.096   5.969   6.533
15548WAT     H146886   2.078   6.060   6.495
15548WAT     H246887   2.132   5.910   6.461
15549WAT      O46888   2.284   5.408   6.802
15549WAT     H146889   2.332   5.351   6.869
15549WAT     H246890   2.190   5.377   6.793
15550WAT      O46891   8.002   8.072   0.319
15550WAT     H146892   7.993   8.004   0.392
15550WAT     H246893   8.098   8.085   0.297
15551WAT      O46894   0.289   3.184   1.380
15551WAT     H146895   0.305   3.254   1.311
15551WAT     H246896   0.212   3.210   1.437
15552WAT      O46897   1.665   1.418   1.199
15552WAT     H146898   1.578   1.467   1.207
15552WAT     H246899   1.652   1.322   1.221
15553WAT      O46900   8.045   6.027   8.121
15553WAT     H146901   8.126   6.058   8.072
15553WAT     H246902   8.035   5.928   8.111
15554WAT      O46903   4.091   5.374   4.003
15554WAT     H146904   4.164   5.439   4.025
15554WAT     H246905   4.011   5.394   4.059
15555WAT      O46906   4.456   9.754   0.016
15555WAT     H146907   4.376   9.698  -0.003
15555WAT     H246908   4.436   9.850  -0.007
15556WAT      O46909   9.424   2.618   7.999
15556WAT     H146910   9.390   2.684   7.932
15556WAT     H246911   9.370   2.534   7.993
15557WAT      O46912   9.238   0.440   5.291
15557WAT     H146913   9.332   0.441   5.257
15557WAT     H246914   9.208   0.533   5.310
15558WAT      O46915   4.222   5.439   1.371
15558WAT     H146916   4.259   5.360   1.323
15558WAT     H246917   4.297   5.495   1.407
15559WAT      O46918   4.034   0.720   9.573
15559WAT     H146919   4.006   0.625   9.586
15559WAT     H246920   3.989   0.778   9.640
15560WAT      O46921   0.345   2.891   6.235
15560WAT     H146922   0.312   2.927   6.148
15560WAT     H246923   0.373   2.796   6.224
15561WAT      O46924   5.782   9.367   3.609
15561WAT     H146925   5.788   9.315   3.524
15561WAT     H246926   5.714   9.325   3.669
15562WAT      O46927   1.742   0.220   2.154
15562WAT     H146928   1.679   0.143   2.147
15562WAT     H246929   1.691   0.304   2.170
15563WAT      O46930   2.672   6.038   6.641
15563WAT     H146931   2.649   6.136   6.642
15563WAT     H246932   2.590   5.984   6.661
15564WAT      O46933   2.363   3.703   0.377
15564WAT     H146934   2.338   3.719   0.472
15564WAT     H246935   2.451   3.746   0.358
15565WAT      O46936   9.075   4.771   6.173
15565WAT     H146937   9.056   4.771   6.271
15565WAT     H246938   9.021   4.699   6.128
15566WAT      O46939   5.527   8.246   7.373
15566WAT     H146940   5.473   8.258   7.290
15566WAT     H246941   5.468   8.219   7.449
15567WAT      O46942   6.005   0.731   6.196
15567WAT     H146943   5.998   0.642   6.240
15567WAT     H246944   5.970   0.725   6.102
15568WAT      O46945   5.026   3.144   0.350
15568WAT     H146946   5.068   3.162   0.261
15568WAT     H246947   4.932   3.113   0.337
15569WAT      O46948   5.275   6.015   1.672
15569WAT     H146949   5.353   6.048   1.726
15569WAT     H246950   5.267   5.916   1.684
15570WAT      O46951   9.213   3.712   9.148
15570WAT     H146952   9.235   3.703   9.245
15570WAT     H246953   9.229   3.806   9.118
15571WAT      O46954   0.361   6.055   9.428
15571WAT     H146955   0.430   6.122   9.401
15571WAT     H246956   0.284   6.101   9.472
15572WAT      O46957   9.762   9.315   8.945
15572WAT     H146958   9.738   9.242   9.008
15572WAT     H246959   9.784   9.276   8.855
15573WAT      O46960   8.380   6.622   6.844
15573WAT     H146961   8.349   6.697   6.786
15573WAT     H246962   8.448   6.656   6.909
15574WAT      O46963   2.066   5.910   9.153
15574WAT     H146964   2.116   5.938   9.071
15574WAT     H246965   1.992   5.974   9.170
15575WAT      O46966   2.904   7.440   4.126
15575WAT     H146967   2.926   7.453   4.223
15575WAT     H246968   2.939   7.351   4.096
15576WAT      O46969   5.328   3.895   0.869
15576WAT     H146970   5.378   3.847   0.797
15576WAT     H246971   5.280   3.973   0.830
15577WAT      O46972   9.369   1.583   2.554
15577WAT     H146973   9.468   1.594   2.569
15577WAT     H246974   9.354   1.526   2.474
15578WAT      O46975   4.914   4.893   5.140
15578WAT     H146976   4.980   4.915   5.069
15578WAT     H246977   4.955   4.908   5.230
15579WAT      O46978   1.199   5.623   1.442
15579WAT     H146979   1.129   5.565   1.483
15579WAT     H246980   1.208   5.707   1.494
15580WAT      O46981   8.224   5.435   2.306
15580WAT     H146982   8.286   5.422   2.384
15580WAT     H246983   8.130   5.437   2.339
15581WAT      O46984   9.355   2.217   0.678
15581WAT     H146985   9.410   2.168   0.745
15581WAT     H246986   9.301   2.287   0.724
15582WAT      O46987   4.676   1.176   2.996
15582WAT     H146988   4.652   1.269   3.025
15582WAT     H246989   4.665   1.168   2.897
15583WAT      O46990   9.574   5.539   2.975
15583WAT     H146991   9.652   5.534   3.037
15583WAT     H246992   9.582   5.621   2.919
15584WAT      O46993   9.544   9.431   9.704
15584WAT     H146994   9.594   9.447   9.619
15584WAT     H246995   9.527   9.518   9.750
15585WAT      O46996   9.849   6.964   5.628
15585WAT     H146997   9.806   6.979   5.717
15585WAT     H246998   9.868   7.052   5.585
15586WAT      O46999   4.475   3.604   8.629
15586WAT     H147000   4.441   3.530   8.571
15586WAT     H247001   4.555   3.572   8.680
15587WAT      O47002   4.018   0.882   5.344
15587WAT     H147003   4.100   0.827   5.331
15587WAT     H247004   3.970   0.893   5.256
15588WAT      O47005   0.297   8.621   2.681
15588WAT     H147006   0.281   8.555   2.754
15588WAT     H247007   0.266   8.712   2.710
15589WAT      O47008   3.325   5.329   9.067
15589WAT     H147009   3.272   5.246   9.083
15589WAT     H247010   3.293   5.375   8.984
15590WAT      O47011   8.047   4.177   9.551
15590WAT     H147012   7.996   4.137   9.475
15590WAT     H247013   8.020   4.272   9.563
15591WAT      O47014   9.894   6.839   9.064
15591WAT     H147015   9.817   6.782   9.034
15591WAT     H247016   9.863   6.902   9.136
15592WAT      O47017   8.940   0.194   3.707
15592WAT     H147018   8.958   0.263   3.637
15592WAT     H247019   8.845   0.200   3.736
15593WAT      O47020   0.670   4.920   9.413
15593WAT     H147021   0.657   5.018   9.420
15593WAT     H247022   0.763   4.901   9.381
15594WAT      O47023   6.311   3.348   2.290
15594WAT     H147024   6.242   3.289   2.332
15594WAT     H247025   6.401   3.327   2.328
15595WAT      O47026   8.982   1.198   4.326
15595WAT     H147027   8.888   1.233   4.318
15595WAT     H247028   8.993   1.119   4.266
15596WAT      O47029   0.153   6.677   4.134
15596WAT     H147030   0.206   6.760   4.150
15596WAT     H247031   0.188   6.604   4.193
15597WAT      O47032   6.709   7.999   7.575
15597WAT     H147033   6.731   7.968   7.483
15597WAT     H247034   6.699   8.099   7.576
15598WAT      O47035   6.407   2.990   7.587
15598WAT     H147036   6.352   2.906   7.585
15598WAT     H247037   6.501   2.967   7.563
15599WAT      O47038   1.295   0.663   5.763
15599WAT     H147039   1.319   0.715   5.845
15599WAT     H247040   1.280   0.725   5.687
15600WAT      O47041   5.693   2.256   0.334
15600WAT     H147042   5.634   2.298   0.264
15600WAT     H247043   5.782   2.302   0.334
15601WAT      O47044   6.095   6.557   7.632
15601WAT     H147045   6.022   6.518   7.688
15601WAT     H247046   6.170   6.586   7.692
15602WAT      O47047   4.764   7.749   6.182
15602WAT     H147048   4.848   7.708   6.148
15602WAT     H247049   4.687   7.688   6.165
15603WAT      O47050   3.852   6.516   8.994
15603WAT     H147051   3.807   6.459   8.925
15603WAT     H247052   3.793   6.593   9.016
15604WAT      O47053   1.436   1.935   0.378
15604WAT     H147054   1.381   1.856   0.351
15604WAT     H247055   1.521   1.904   0.421
15605WAT      O47056   1.744   4.871   8.166
15605WAT     H147057   1.650   4.846   8.190
15605WAT     H247058   1.807   4.837   8.236
15606WAT      O47059   4.796   1.339   5.161
15606WAT     H147060   4.824   1.371   5.070
15606WAT     H247061   4.833   1.400   5.231
15607WAT      O47062   1.925   9.062   3.275
15607WAT     H147063   1.998   9.130   3.287
15607WAT     H247064   1.836   9.107   3.282
15608WAT      O47065   7.095   9.040   1.890
15608WAT     H147066   7.053   8.968   1.834
15608WAT     H247067   7.101   9.009   1.985
15609WAT      O47068   4.678   6.341   2.545
15609WAT     H147069   4.763   6.293   2.568
15609WAT     H247070   4.696   6.410   2.475
15610WAT      O47071   2.801   4.910   9.320
15610WAT     H147072   2.834   4.816   9.309
15610WAT     H247073   2.728   4.928   9.254
15611WAT      O47074   8.170   9.179   7.220
15611WAT     H147075   8.129   9.169   7.129
15611WAT     H247076   8.109   9.137   7.288
15612WAT      O47077   7.653   4.432   8.930
15612WAT     H147078   7.751   4.426   8.911
15612WAT     H247079   7.623   4.349   8.977
15613WAT      O47080   7.798   2.487   6.916
15613WAT     H147081   7.891   2.453   6.900
15613WAT     H247082   7.802   2.568   6.975
15614WAT      O47083   9.133   1.409   7.411
15614WAT     H147084   9.041   1.372   7.427
15614WAT     H247085   9.126   1.502   7.376
15615WAT      O47086   1.460   8.417   9.200
15615WAT     H147087   1.527   8.359   9.155
15615WAT     H247088   1.370   8.373   9.196
15616WAT      O47089   7.854   8.360   1.005
15616WAT     H147090   7.937   8.334   0.955
15616WAT     H247091   7.776   8.359   0.943
15617WAT      O47092   9.755   6.954   1.441
15617WAT     H147093   9.743   6.973   1.539
15617WAT     H247094   9.729   7.034   1.387
15618WAT      O47095   6.471   0.722   4.302
15618WAT     H147096   6.453   0.637   4.352
15618WAT     H247097   6.385   0.762   4.272
15619WAT      O47098   7.371   2.217   8.832
15619WAT     H147099   7.401   2.146   8.896
15619WAT     H247100   7.428   2.214   8.750
15620WAT      O47101   8.502   1.849   1.519
15620WAT     H147102   8.554   1.768   1.492
15620WAT     H247103   8.559   1.908   1.575
15621WAT      O47104   5.036   1.841   1.503
15621WAT     H147105   4.952   1.895   1.512
15621WAT     H247106   5.090   1.877   1.428
15622WAT      O47107   8.930   9.004   7.928
15622WAT     H147108   8.981   8.976   7.847
15622WAT     H247109   8.892   9.095   7.915
15623WAT      O47110   1.703   7.153   3.095
15623WAT     H147111   1.683   7.064   3.054
15623WAT     H247112   1.765   7.140   3.173
15624WAT      O47113   4.205   0.224   1.530
15624WAT     H147114   4.209   0.198   1.433
15624WAT     H247115   4.170   0.318   1.537
15625WAT      O47116   3.505   6.577   7.448
15625WAT     H147117   3.422   6.522   7.455
15625WAT     H247118   3.547   6.586   7.539
15626WAT      O47119   6.507   7.489   8.668
15626WAT     H147120   6.531   7.554   8.596
15626WAT     H247121   6.428   7.435   8.640
15627WAT      O47122   9.554   6.726   7.637
15627WAT     H147123   9.514   6.657   7.698
15627WAT     H247124   9.563   6.687   7.545
15628WAT      O47125   0.812   2.096   0.882
15628WAT     H147126   0.892   2.061   0.931
15628WAT     H247127   0.808   2.196   0.891
15629WAT      O47128   9.539   1.226   4.094
15629WAT     H147129   9.469   1.297   4.092
15629WAT     H247130   9.623   1.261   4.052
15630WAT      O47131   7.858   6.346   9.546
15630WAT     H147132   7.903   6.366   9.633
15630WAT     H247133   7.846   6.247   9.537
15631WAT      O47134   9.450   7.367   2.655
15631WAT     H147135   9.373   7.428   2.640
15631WAT     H247136   9.536   7.418   2.648
15632WAT      O47137   6.610   5.849   9.753
15632WAT     H147138   6.517   5.829   9.721
15632WAT     H247139   6.675   5.786   9.710
15633WAT      O47140   4.044   7.274   0.601
15633WAT     H147141   4.028   7.177   0.581
15633WAT     H247142   3.958   7.318   0.624
15634WAT      O47143   7.482   7.181   8.489
15634WAT     H147144   7.446   7.273   8.474
15634WAT     H247145   7.512   7.143   8.401
15635WAT      O47146   2.653   9.826   2.378
15635WAT     H147147   2.681   9.753   2.440
15635WAT     H247148   2.734   9.875   2.346
15636WAT      O47149   8.012   8.127   4.201
15636WAT     H147150   7.960   8.042   4.197
15636WAT     H247151   8.033   8.148   4.297
15637WAT      O47152   2.339   6.505   1.551
15637WAT     H147153   2.320   6.517   1.648
15637WAT     H247154   2.286   6.427   1.517
15638WAT      O47155   4.808   8.923   8.873
15638WAT     H147156   4.808   8.897   8.969
15638WAT     H247157   4.734   8.874   8.826
15639WAT      O47158   3.430   3.587   9.839
15639WAT     H147159   3.508   3.635   9.878
15639WAT     H247160   3.422   3.609   9.741
15640WAT      O47161   0.161   3.090   5.714
15640WAT     H147162   0.066   3.119   5.722
15640WAT     H247163   0.178   3.054   5.622
15641WAT      O47164   5.705   6.989   6.326
15641WAT     H147165   5.622   6.939   6.350
15641WAT     H247166   5.726   7.055   6.399
15642WAT      O47167   0.319   7.432   6.033
15642WAT     H147168   0.408   7.414   6.075
15642WAT     H247169   0.259   7.354   6.048
15643WAT      O47170   7.701   3.983   7.388
15643WAT     H147171   7.762   3.904   7.382
15643WAT     H247172   7.620   3.958   7.441
15644WAT      O47173   5.788   9.826   9.627
15644WAT     H147174   5.813   9.918   9.595
15644WAT     H247175   5.751   9.832   9.720
15645WAT      O47176   5.891   1.908   1.656
15645WAT     H147177   5.895   1.828   1.716
15645WAT     H247178   5.983   1.928   1.621
15646WAT      O47179   1.068   1.670   1.247
15646WAT     H147180   1.025   1.754   1.282
15646WAT     H247181   0.997   1.609   1.213
15647WAT      O47182   9.493   7.481   3.045
15647WAT     H147183   9.589   7.453   3.045
15647WAT     H247184   9.477   7.544   3.121
15648WAT      O47185   3.653   6.752   2.063
15648WAT     H147186   3.622   6.692   2.137
15648WAT     H247187   3.576   6.805   2.029
15649WAT      O47188   4.090   8.328   4.171
15649WAT     H147189   4.075   8.251   4.110
15649WAT     H247190   4.124   8.295   4.259
15650WAT      O47191   9.731   5.945   1.285
15650WAT     H147192   9.679   5.928   1.369
15650WAT     H247193   9.795   5.870   1.270
15651WAT      O47194   5.824   1.569   8.347
15651WAT     H147195   5.770   1.500   8.394
15651WAT     H247196   5.903   1.593   8.403
15652WAT      O47197   2.955   5.148   3.243
15652WAT     H147198   2.911   5.233   3.272
15652WAT     H247199   3.028   5.124   3.307
15653WAT      O47200   5.151   2.136   0.602
15653WAT     H147201   5.173   2.117   0.697
15653WAT     H247202   5.232   2.119   0.545
15654WAT      O47203   7.758   4.848   0.242
15654WAT     H147204   7.852   4.867   0.214
15654WAT     H247205   7.756   4.825   0.340
15655WAT      O47206   7.023   6.474   4.794
15655WAT     H147207   7.027   6.402   4.863
15655WAT     H247208   7.115   6.509   4.776
15656WAT      O47209   7.182   4.079   6.352
15656WAT     H147210   7.138   4.010   6.410
15656WAT     H247211   7.267   4.042   6.315
15657WAT      O47212   4.586   1.968   7.948
15657WAT     H147213   4.507   2.029   7.948
15657WAT     H247214   4.670   2.021   7.947
15658WAT      O47215   5.016   8.359   5.840
15658WAT     H147216   5.043   8.303   5.919
15658WAT     H247217   5.009   8.455   5.868
15659WAT      O47218   5.257   2.292   5.582
15659WAT     H147219   5.357   2.293   5.587
15659WAT     H247220   5.222   2.386   5.584
15660WAT      O47221   2.811   0.579   2.157
15660WAT     H147222   2.734   0.556   2.097
15660WAT     H247223   2.781   0.580   2.252
15661WAT      O47224   0.139   2.339   7.439
15661WAT     H147225   0.195   2.392   7.504
15661WAT     H247226   0.198   2.281   7.384
15662WAT      O47227   9.288   7.402   3.403
15662WAT     H147228   9.278   7.497   3.373
15662WAT     H247229   9.304   7.400   3.501
15663WAT      O47230   8.320   3.220   5.815
15663WAT     H147231   8.263   3.176   5.884
15663WAT     H247232   8.277   3.305   5.784
15664WAT      O47233   5.579   5.285   5.611
15664WAT     H147234   5.645   5.337   5.556
15664WAT     H247235   5.589   5.310   5.707
15665WAT      O47236   6.460   4.859   2.119
15665WAT     H147237   6.404   4.844   2.200
15665WAT     H247238   6.439   4.789   2.050
15666WAT      O47239   3.924   7.050   7.125
15666WAT     H147240   3.911   7.018   7.219
15666WAT     H247241   3.880   6.986   7.062
15667WAT      O47242   9.121   5.610   7.018
15667WAT     H147243   9.211   5.573   7.042
15667WAT     H247244   9.065   5.617   7.101
15668WAT      O47245   8.528   5.752   9.187
15668WAT     H147246   8.569   5.668   9.150
15668WAT     H247247   8.599   5.821   9.199
15669WAT      O47248   3.852   5.267   7.287
15669WAT     H147249   3.846   5.230   7.194
15669WAT     H247250   3.760   5.278   7.324
15670WAT      O47251   9.878   9.487   7.091
15670WAT     H147252   9.784   9.474   7.061
15670WAT     H247253   9.929   9.539   7.022
15671WAT      O47254   7.044   4.621   6.637
15671WAT     H147255   7.081   4.684   6.705
15671WAT     H247256   7.119   4.582   6.583
15672WAT      O47257   7.677   9.422   9.094
15672WAT     H147258   7.690   9.509   9.142
15672WAT     H247259   7.720   9.349   9.146
15673WAT      O47260   3.557   3.174   0.701
15673WAT     H147261   3.568   3.111   0.779
15673WAT     H247262   3.601   3.261   0.723
15674WAT      O47263   7.541   9.575   5.023
15674WAT     H147264   7.565   9.640   4.952
15674WAT     H247265   7.595   9.594   5.105
15675WAT      O47266   5.648   2.230   6.887
15675WAT     H147267   5.653   2.321   6.928
15675WAT     H247268   5.591   2.171   6.943
15676WAT      O47269   9.833   7.235   8.950
15676WAT     H147270   9.763   7.299   8.917
15676WAT     H247271   9.907   7.229   8.883
15677WAT      O47272   0.907   9.606   6.164
15677WAT     H147273   0.810   9.633   6.171
15677WAT     H247274   0.945   9.597   6.256
15678WAT      O47275   3.332   3.026   6.503
15678WAT     H147276   3.405   2.958   6.511
15678WAT     H247277   3.372   3.118   6.508
15679WAT      O47278   3.737   2.079   1.444
15679WAT     H147279   3.670   2.131   1.497
15679WAT     H247280   3.707   2.072   1.349
15680WAT      O47281   1.574   4.376   2.814
15680WAT     H147282   1.510   4.370   2.890
15680WAT     H247283   1.612   4.286   2.795
15681WAT      O47284   8.708   3.436   4.845
15681WAT     H147285   8.637   3.441   4.915
15681WAT     H247286   8.734   3.340   4.831
15682WAT      O47287   6.561   2.633   8.554
15682WAT     H147288   6.649   2.602   8.516
15682WAT     H247289   6.494   2.560   8.545
15683WAT      O47290   1.980   9.408   8.499
15683WAT     H147291   1.940   9.317   8.490
15683WAT     H247292   2.078   9.403   8.481
15684WAT      O47293   4.903   1.634   8.927
15684WAT     H147294   4.896   1.659   9.024
15684WAT     H247295   4.977   1.569   8.914
15685WAT      O47296   3.656   5.089   0.614
15685WAT     H147297   3.703   5.140   0.541
15685WAT     H247298   3.720   5.076   0.690
15686WAT      O47299   4.449   4.617   5.663
15686WAT     H147300   4.369   4.665   5.627
15686WAT     H247301   4.523   4.682   5.679
15687WAT      O47302   6.544   1.984   2.453
15687WAT     H147303   6.465   1.998   2.393
15687WAT     H247304   6.576   1.889   2.444
15688WAT      O47305   3.050   8.598   5.313
15688WAT     H147306   3.030   8.510   5.356
15688WAT     H247307   3.078   8.664   5.383
15689WAT      O47308   9.299   8.994   2.425
15689WAT     H147309   9.287   9.092   2.444
15689WAT     H247310   9.330   8.983   2.330
15690WAT      O47311   8.647   2.511   6.164
15690WAT     H147312   8.725   2.454   6.192
15690WAT     H247313   8.665   2.606   6.189
15691WAT      O47314   9.515   1.141   9.711
15691WAT     H147315   9.573   1.216   9.677
15691WAT     H247316   9.419   1.163   9.693
15692WAT      O47317   8.370   3.423   4.739
15692WAT     H147318   8.299   3.462   4.796
15692WAT     H247319   8.385   3.482   4.659
15693WAT      O47320   5.911   9.598   3.870
15693WAT     H147321   5.942   9.635   3.782
15693WAT     H247322   5.887   9.674   3.931
15694WAT      O47323   3.926   5.476   2.739
15694WAT     H147324   3.979   5.554   2.703
15694WAT     H247325   3.989   5.405   2.769
15695WAT      O47326   7.787   7.887   7.779
15695WAT     H147327   7.734   7.883   7.864
15695WAT     H247328   7.839   7.972   7.776
15696WAT      O47329   7.958   5.655   1.276
15696WAT     H147330   7.981   5.744   1.235
15696WAT     H247331   8.037   5.594   1.268
15697WAT      O47332   4.280   3.499   9.139
15697WAT     H147333   4.192   3.458   9.166
15697WAT     H247334   4.302   3.473   9.045
15698WAT      O47335   0.065   8.726   3.169
15698WAT     H147336   0.144   8.785   3.189
15698WAT     H247337   0.038   8.738   3.074
15699WAT      O47338   7.227   5.621   6.777
15699WAT     H147339   7.205   5.679   6.698
15699WAT     H247340   7.191   5.663   6.860
15700WAT      O47341   3.915   7.787   7.652
15700WAT     H147342   3.850   7.841   7.598
15700WAT     H247343   4.008   7.806   7.621
15701WAT      O47344   8.939   0.855   8.585
15701WAT     H147345   9.010   0.862   8.654
15701WAT     H247346   8.853   0.829   8.628
15702WAT      O47347   1.791   4.198   5.646
15702WAT     H147348   1.834   4.115   5.612
15702WAT     H247349   1.733   4.176   5.725
15703WAT      O47350   6.501   7.546   4.020
15703WAT     H147351   6.410   7.579   3.996
15703WAT     H247352   6.518   7.459   3.974
15704WAT      O47353   8.269   6.206   1.167
15704WAT     H147354   8.360   6.170   1.146
15704WAT     H247355   8.232   6.254   1.087
15705WAT      O47356   5.377   1.507   3.075
15705WAT     H147357   5.316   1.431   3.050
15705WAT     H247358   5.466   1.471   3.102
15706WAT      O47359   0.832   6.111   1.393
15706WAT     H147360   0.745   6.145   1.427
15706WAT     H247361   0.824   6.089   1.296
15707WAT      O47362   3.025   7.361   4.356
15707WAT     H147363   3.065   7.290   4.413
15707WAT     H247364   3.098   7.410   4.308
15708WAT      O47365   0.831   2.858   4.249
15708WAT     H147366   0.875   2.936   4.295
15708WAT     H247367   0.865   2.851   4.156
15709WAT      O47368   3.759   3.830   6.194
15709WAT     H147369   3.691   3.758   6.179
15709WAT     H247370   3.816   3.840   6.113
15710WAT      O47371   7.650   5.690   6.038
15710WAT     H147372   7.599   5.721   6.119
15710WAT     H247373   7.625   5.596   6.017
15711WAT      O47374   1.391   4.712   5.598
15711WAT     H147375   1.379   4.791   5.538
15711WAT     H247376   1.391   4.628   5.544
15712WAT      O47377   1.901   6.116   2.312
15712WAT     H147378   1.847   6.061   2.248
15712WAT     H247379   1.916   6.063   2.396
15713WAT      O47380   3.233   5.819   8.957
15713WAT     H147381   3.331   5.842   8.959
15713WAT     H247382   3.209   5.771   9.041
15714WAT      O47383   2.710   3.798   7.512
15714WAT     H147384   2.796   3.765   7.475
15714WAT     H247385   2.666   3.859   7.446
15715WAT      O47386   7.043   2.829   7.464
15715WAT     H147387   7.068   2.850   7.370
15715WAT     H247388   7.047   2.913   7.519
15716WAT      O47389   9.122   7.886   1.071
15716WAT     H147390   9.155   7.980   1.070
15716WAT     H247391   9.073   7.868   1.156
15717WAT      O47392   6.367   2.958   8.324
15717WAT     H147393   6.283   2.998   8.287
15717WAT     H247394   6.381   2.989   8.418
15718WAT      O47395   2.266   4.604   6.015
15718WAT     H147396   2.246   4.700   6.038
15718WAT     H247397   2.260   4.592   5.916
15719WAT      O47398   1.711   3.765   8.789
15719WAT     H147399   1.617   3.797   8.802
15719WAT     H247400   1.774   3.838   8.814
15720WAT      O47401   9.692   0.585   7.256
15720WAT     H147402   9.707   0.577   7.354
15720WAT     H247403   9.611   0.533   7.230
15721WAT      O47404   8.955   8.873   3.084
15721WAT     H147405   9.023   8.945   3.095
15721WAT     H247406   8.896   8.894   3.006
15722WAT      O47407   0.325   0.037   0.695
15722WAT     H147408   0.300   0.037   0.792
15722WAT     H247409   0.391  -0.036   0.677
15723WAT      O47410   8.147   2.271   1.656
15723WAT     H147411   8.239   2.274   1.696
15723WAT     H247412   8.105   2.182   1.675
15724WAT      O47413   2.762   6.879   8.633
15724WAT     H147414   2.743   6.934   8.552
15724WAT     H247415   2.698   6.902   8.706
15725WAT      O47416   8.850   5.398   1.241
15725WAT     H147417   8.759   5.433   1.265
15725WAT     H247418   8.864   5.309   1.285
15726WAT      O47419   6.925   9.233   9.308
15726WAT     H147420   6.879   9.269   9.389
15726WAT     H247421   6.914   9.134   9.306
15727WAT      O47422   1.760   8.329   0.154
15727WAT     H147423   1.828   8.299   0.087
15727WAT     H247424   1.754   8.261   0.227
15728WAT      O47425   5.273   1.650   5.453
15728WAT     H147426   5.185   1.694   5.471
15728WAT     H247427   5.347   1.715   5.472
15729WAT      O47428   8.224   1.481   1.750
15729WAT     H147429   8.248   1.491   1.846
15729WAT     H247430   8.131   1.443   1.743
15730WAT      O47431   0.519   6.411   5.737
15730WAT     H147432   0.559   6.492   5.780
15730WAT     H247433   0.419   6.421   5.735
15731WAT      O47434   0.473   5.109   4.176
15731WAT     H147435   0.494   5.204   4.153
15731WAT     H247436   0.557   5.054   4.174
15732WAT      O47437   4.844   4.329   3.084
15732WAT     H147438   4.867   4.409   3.139
15732WAT     H247439   4.776   4.274   3.133
15733WAT      O47440   2.978   4.273   1.126
15733WAT     H147441   2.963   4.294   1.030
15733WAT     H247442   3.057   4.212   1.135
15734WAT      O47443   9.158   9.005   5.765
15734WAT     H147444   9.234   8.944   5.744
15734WAT     H247445   9.108   8.969   5.844
15735WAT      O47446   6.903   6.673   5.429
15735WAT     H147447   6.988   6.629   5.401
15735WAT     H247448   6.882   6.748   5.367
15736WAT      O47449   0.729   6.507   9.133
15736WAT     H147450   0.801   6.558   9.086
15736WAT     H247451   0.751   6.410   9.132
15737WAT      O47452   7.455   6.693   9.522
15737WAT     H147453   7.527   6.624   9.520
15737WAT     H247454   7.390   6.675   9.449
15738WAT      O47455   4.197   1.385   7.191
15738WAT     H147456   4.158   1.293   7.192
15738WAT     H247457   4.227   1.407   7.098
15739WAT      O47458   6.168   1.153   2.140
15739WAT     H147459   6.189   1.095   2.219
15739WAT     H247460   6.246   1.213   2.122
15740WAT      O47461   7.755   9.068   3.228
15740WAT     H147462   7.702   9.040   3.308
15740WAT     H247463   7.836   9.010   3.219
15741WAT      O47464   2.110   4.767   7.247
15741WAT     H147465   2.068   4.697   7.304
15741WAT     H247466   2.093   4.857   7.286
15742WAT      O47467   1.400   8.584   2.450
15742WAT     H147468   1.421   8.507   2.511
15742WAT     H247469   1.484   8.620   2.410
15743WAT      O47470   0.538   5.872   0.768
15743WAT     H147471   0.511   5.827   0.682
15743WAT     H247472   0.605   5.815   0.816
15744WAT      O47473   8.314   7.357   8.171
15744WAT     H147474   8.280   7.441   8.130
15744WAT     H247475   8.385   7.317   8.113
15745WAT      O47476   1.352   9.813   7.733
15745WAT     H147477   1.398   9.724   7.724
15745WAT     H247478   1.366   9.867   7.651
15746WAT      O47479   2.061   7.897   7.908
15746WAT     H147480   2.058   7.954   7.990
15746WAT     H247481   1.990   7.826   7.915
15747WAT      O47482   1.003   0.832   0.864
15747WAT     H147483   0.923   0.821   0.923
15747WAT     H247484   0.976   0.882   0.781
15748WAT      O47485   3.354   7.163   4.533
15748WAT     H147486   3.388   7.254   4.555
15748WAT     H247487   3.260   7.153   4.565
15749WAT      O47488   0.325   2.490   9.468
15749WAT     H147489   0.312   2.561   9.398
15749WAT     H247490   0.315   2.400   9.427
15750WAT      O47491   1.103   0.539   0.146
15750WAT     H147492   1.143   0.472   0.083
15750WAT     H247493   1.006   0.520   0.157
15751WAT      O47494   9.054   9.843   5.730
15751WAT     H147495   8.997   9.761   5.726
15751WAT     H247496   9.005   9.919   5.687
15752WAT      O47497   7.281   5.445   2.374
15752WAT     H147498   7.202   5.384   2.387
15752WAT     H247499   7.288   5.469   2.277
15753WAT      O47500   2.394   6.193   6.345
15753WAT     H147501   2.407   6.106   6.393
15753WAT     H247502   2.320   6.183   6.278
15754WAT      O47503   2.423   2.517   8.382
15754WAT     H147504   2.347   2.486   8.325
15754WAT     H247505   2.509   2.498   8.335
15755WAT      O47506   6.534   6.659   3.029
15755WAT     H147507   6.588   6.634   2.949
15755WAT     H247508   6.437   6.649   3.008
15756WAT      O47509   4.744   8.586   7.120
15756WAT     H147510   4.658   8.637   7.113
15756WAT     H247511   4.793   8.592   7.033
15757WAT      O47512   4.696   6.226   5.660
15757WAT     H147513   4.726   6.211   5.566
15757WAT     H247514   4.776   6.230   5.720
15758WAT      O47515   5.303   2.499   6.116
15758WAT     H147516   5.220   2.468   6.163
15758WAT     H247517   5.283   2.512   6.019
15759WAT      O47518   9.558   6.374   2.645
15759WAT     H147519   9.534   6.451   2.704
15759WAT     H247520   9.527   6.289   2.687
15760WAT      O47521   5.055   3.987   6.673
15760WAT     H147522   5.118   4.013   6.600
15760WAT     H247523   4.961   3.992   6.640
15761WAT      O47524   6.128   0.801   7.446
15761WAT     H147525   6.175   0.818   7.532
15761WAT     H247526   6.074   0.882   7.422
15762WAT      O47527   9.167   1.221   3.859
15762WAT     H147528   9.200   1.128   3.875
15762WAT     H247529   9.152   1.234   3.761
15763WAT      O47530   7.979   2.857   4.661
15763WAT     H147531   8.016   2.935   4.712
15763WAT     H247532   8.042   2.834   4.587
15764WAT      O47533   2.759   0.462   8.724
15764WAT     H147534   2.710   0.538   8.766
15764WAT     H247535   2.845   0.446   8.773
15765WAT      O47536   1.643   0.678   6.897
15765WAT     H147537   1.545   0.665   6.912
15765WAT     H247538   1.658   0.752   6.831
15766WAT      O47539   1.719   8.477   1.783
15766WAT     H147540   1.749   8.420   1.859
15766WAT     H247541   1.788   8.546   1.762
15767WAT      O47542   8.068   4.813   4.033
15767WAT     H147543   8.161   4.843   4.008
15767WAT     H247544   8.041   4.737   3.975
15768WAT      O47545   0.374   1.546   0.882
15768WAT     H147546   0.293   1.533   0.940
15768WAT     H247547   0.451   1.497   0.922
15769WAT      O47548   5.099   0.181   4.574
15769WAT     H147549   5.029   0.186   4.502
15769WAT     H247550   5.106   0.270   4.619
15770WAT      O47551   8.768   7.767   4.551
15770WAT     H147552   8.711   7.739   4.629
15770WAT     H247553   8.754   7.865   4.534
15771WAT      O47554   2.279   4.101   6.835
15771WAT     H147555   2.334   4.020   6.855
15771WAT     H247556   2.329   4.183   6.863
15772WAT      O47557   9.162   6.157   9.826
15772WAT     H147558   9.202   6.243   9.858
15772WAT     H247559   9.156   6.093   9.903
15773WAT      O47560   6.624   9.787   8.066
15773WAT     H147561   6.662   9.879   8.082
15773WAT     H247562   6.652   9.727   8.141
15774WAT      O47563   0.162   5.575   7.764
15774WAT     H147564   0.127   5.658   7.808
15774WAT     H247565   0.250   5.551   7.804
15775WAT      O47566   9.387   4.989   7.977
15775WAT     H147567   9.358   4.907   8.027
15775WAT     H247568   9.318   5.061   7.989
15776WAT      O47569   3.100   1.165   0.481
15776WAT     H147570   3.167   1.228   0.519
15776WAT     H247571   3.146   1.095   0.426
15777WAT      O47572   7.259   9.751   2.749
15777WAT     H147573   7.354   9.737   2.774
15777WAT     H247574   7.242   9.848   2.731
15778WAT      O47575   8.610   6.037   4.130
15778WAT     H147576   8.649   6.090   4.206
15778WAT     H247577   8.681   6.020   4.062
15779WAT      O47578   3.780   0.681   1.594
15779WAT     H147579   3.851   0.684   1.665
15779WAT     H247580   3.702   0.736   1.623
15780WAT      O47581   0.326   3.254   5.847
15780WAT     H147582   0.259   3.219   5.781
15780WAT     H247583   0.283   3.260   5.938
15781WAT      O47584   9.703   1.401   6.409
15781WAT     H147585   9.683   1.344   6.488
15781WAT     H247586   9.778   1.361   6.357
15782WAT      O47587   2.993   4.945   0.680
15782WAT     H147588   2.964   4.929   0.775
15782WAT     H247589   2.998   4.858   0.631
15783WAT      O47590   2.710   3.397   7.699
15783WAT     H147591   2.768   3.412   7.619
15783WAT     H247592   2.619   3.437   7.682
15784WAT      O47593   3.579   5.577   1.818
15784WAT     H147594   3.499   5.632   1.842
15784WAT     H247595   3.605   5.520   1.896
15785WAT      O47596   5.788   6.046   2.741
15785WAT     H147597   5.710   6.041   2.803
15785WAT     H247598   5.858   5.979   2.769
15786WAT      O47599   7.474   4.958   4.840
15786WAT     H147600   7.483   5.011   4.925
15786WAT     H247601   7.434   5.015   4.769
15787WAT      O47602   3.221   5.082   8.018
15787WAT     H147603   3.241   5.036   8.104
15787WAT     H247604   3.230   5.181   8.030
15788WAT      O47605   0.104   6.232   0.764
15788WAT     H147606   0.031   6.283   0.809
15788WAT     H247607   0.103   6.137   0.796
15789WAT      O47608   8.670   1.660   1.442
15789WAT     H147609   8.731   1.735   1.417
15789WAT     H247610   8.666   1.594   1.366
15790WAT      O47611   4.358   7.661   7.594
15790WAT     H147612   4.391   7.673   7.500
15790WAT     H247613   4.434   7.629   7.652
15791WAT      O47614   0.620   1.754   1.985
15791WAT     H147615   0.580   1.813   2.055
15791WAT     H247616   0.579   1.663   1.990
15792WAT      O47617   6.416   5.652   6.815
15792WAT     H147618   6.371   5.662   6.726
15792WAT     H247619   6.355   5.685   6.887
15793WAT      O47620   8.772   6.340   6.925
15793WAT     H147621   8.774   6.429   6.881
15793WAT     H247622   8.704   6.282   6.879
15794WAT      O47623   5.854   3.693   9.255
15794WAT     H147624   5.755   3.694   9.251
15794WAT     H247625   5.884   3.622   9.319
15795WAT      O47626   5.888   5.433   4.264
15795WAT     H147627   5.892   5.528   4.297
15795WAT     H247628   5.866   5.432   4.167
15796WAT      O47629   1.704   0.652   3.493
15796WAT     H147630   1.782   0.654   3.431
15796WAT     H247631   1.720   0.583   3.564
15797WAT      O47632   8.469   4.436   6.841
15797WAT     H147633   8.415   4.413   6.921
15797WAT     H247634   8.417   4.499   6.783
15798WAT      O47635   2.810   4.588   9.554
15798WAT     H147636   2.867   4.616   9.477
15798WAT     H247637   2.866   4.541   9.621
15799WAT      O47638   6.322   5.358   7.436
15799WAT     H147639   6.315   5.441   7.380
15799WAT     H247640   6.403   5.363   7.494
15800WAT      O47641   4.185   2.466   0.038
15800WAT     H147642   4.138   2.379   0.052
15800WAT     H247643   4.225   2.469  -0.054
15801WAT      O47644   3.039   5.478   6.806
15801WAT     H147645   2.986   5.519   6.879
15801WAT     H247646   3.064   5.548   6.739
15802WAT      O47647   9.732   6.214   6.772
15802WAT     H147648   9.686   6.293   6.812
15802WAT     H247649   9.780   6.242   6.689
15803WAT      O47650   2.381   3.347   3.000
15803WAT     H147651   2.391   3.446   2.991
15803WAT     H247652   2.409   3.320   3.092
15804WAT      O47653   8.039   7.480   6.462
15804WAT     H147654   8.057   7.555   6.526
15804WAT     H247655   7.973   7.417   6.503
15805WAT      O47656   6.006   8.068   0.148
15805WAT     H147657   5.980   8.133   0.076
15805WAT     H247658   5.994   8.111   0.237
15806WAT      O47659   9.758   2.521   6.175
15806WAT     H147660   9.789   2.563   6.260
15806WAT     H247661   9.731   2.426   6.192
15807WAT      O47662   2.216   9.578   2.233
15807WAT     H147663   2.137   9.551   2.177
15807WAT     H247664   2.245   9.502   2.289
15808WAT      O47665   7.618   5.085   9.452
15808WAT     H147666   7.644   5.004   9.398
15808WAT     H247667   7.671   5.088   9.536
15809WAT      O47668   7.113   9.221   8.495
15809WAT     H147669   7.174   9.144   8.476
15809WAT     H247670   7.136   9.262   8.583
15810WAT      O47671   1.483   5.451   0.833
15810WAT     H147672   1.482   5.451   0.733
15810WAT     H247673   1.560   5.396   0.866
15811WAT      O47674   7.632   9.138   8.171
15811WAT     H147675   7.589   9.186   8.095
15811WAT     H247676   7.716   9.184   8.197
15812WAT      O47677   0.690   7.242   8.152
15812WAT     H147678   0.597   7.232   8.116
15812WAT     H247679   0.749   7.282   8.081
15813WAT      O47680   9.159   5.179   1.500
15813WAT     H147681   9.147   5.272   1.535
15813WAT     H247682   9.162   5.181   1.400
15814WAT      O47683   4.711   5.946   1.144
15814WAT     H147684   4.683   5.950   1.048
15814WAT     H247685   4.644   5.892   1.196
15815WAT      O47686   9.047   8.921   8.804
15815WAT     H147687   9.140   8.939   8.836
15815WAT     H247688   9.030   8.974   8.721
15816WAT      O47689   6.473   9.816   9.310
15816WAT     H147690   6.516   9.880   9.374
15816WAT     H247691   6.496   9.722   9.337
15817WAT      O47692   5.663   9.523   5.730
15817WAT     H147693   5.735   9.572   5.682
15817WAT     H247694   5.682   9.522   5.828
15818WAT      O47695   9.294   3.571   5.748
15818WAT     H147696   9.314   3.520   5.832
15818WAT     H247697   9.197   3.563   5.727
15819WAT      O47698   5.821   5.616   5.375
15819WAT     H147699   5.727   5.638   5.350
15819WAT     H247700   5.843   5.523   5.346
15820WAT      O47701   3.428   1.937   4.311
15820WAT     H147702   3.505   1.931   4.247
15820WAT     H247703   3.401   2.032   4.321
15821WAT      O47704   8.595   7.912   4.290
15821WAT     H147705   8.674   7.871   4.246
15821WAT     H247706   8.623   7.991   4.344
15822WAT      O47707   1.473   7.946   0.136
15822WAT     H147708   1.391   7.996   0.107
15822WAT     H247709   1.446   7.870   0.196
15823WAT      O47710   6.598   1.699   9.444
15823WAT     H147711   6.601   1.656   9.353
15823WAT     H247712   6.577   1.629   9.512
15824WAT      O47713   0.221   2.337   3.387
15824WAT     H147714   0.321   2.335   3.384
15824WAT     H247715   0.189   2.431   3.383
15825WAT      O47716   8.092   1.538   6.186
15825WAT     H147717   8.042   1.587   6.257
15825WAT     H247718   8.140   1.603   6.128
15826WAT      O47719   8.902   5.692   8.013
15826WAT     H147720   8.821   5.653   7.968
15826WAT     H247721   8.945   5.758   7.952
15827WAT      O47722   2.882   8.732   0.538
15827WAT     H147723   2.958   8.675   0.507
15827WAT     H247724   2.889   8.748   0.636
15828WAT      O47725   4.034   4.597   5.262
15828WAT     H147726   4.043   4.672   5.328
15828WAT     H247727   4.080   4.515   5.298
15829WAT      O47728   0.105   4.488   4.618
15829WAT     H147729   0.124   4.555   4.545
15829WAT     H247730   0.006   4.473   4.624
15830WAT      O47731   2.148   2.106   6.709
15830WAT     H147732   2.087   2.065   6.777
15830WAT     H247733   2.204   2.036   6.667
15831WAT      O47734   6.725   2.691   2.315
15831WAT     H147735   6.669   2.734   2.385
15831WAT     H247736   6.691   2.599   2.296
15832WAT      O47737   7.299   6.257   8.901
15832WAT     H147738   7.235   6.233   8.829
15832WAT     H247739   7.268   6.220   8.988
15833WAT      O47740   9.389   0.871   4.779
15833WAT     H147741   9.315   0.804   4.769
15833WAT     H247742   9.477   0.826   4.766
15834WAT      O47743   6.629   9.830   4.259
15834WAT     H147744   6.680   9.783   4.186
15834WAT     H247745   6.535   9.843   4.230
15835WAT      O47746   1.639   8.827   1.078
15835WAT     H147747   1.545   8.799   1.098
15835WAT     H247748   1.648   8.926   1.089
15836WAT      O47749   0.528   4.883   6.605
15836WAT     H147750   0.598   4.954   6.597
15836WAT     H247751   0.530   4.845   6.697
15837WAT      O47752   0.771   5.281   3.980
15837WAT     H147753   0.679   5.319   3.982
15837WAT     H247754   0.837   5.353   4.004
15838WAT      O47755   3.814   8.518   8.292
15838WAT     H147756   3.796   8.473   8.380
15838WAT     H247757   3.825   8.449   8.221
15839WAT      O47758   2.007   1.861   7.709
15839WAT     H147759   1.972   1.786   7.765
15839WAT     H247760   1.973   1.948   7.745
15840WAT      O47761   4.099   6.540   3.183
15840WAT     H147762   4.045   6.510   3.262
15840WAT     H247763   4.037   6.578   3.113
15841WAT      O47764   5.671   6.548   1.700
15841WAT     H147765   5.590   6.492   1.710
15841WAT     H247766   5.659   6.610   1.622
15842WAT      O47767   6.288   0.746   4.552
15842WAT     H147768   6.299   0.673   4.485
15842WAT     H247769   6.328   0.717   4.640
15843WAT      O47770   5.994   2.212   3.731
15843WAT     H147771   5.917   2.243   3.676
15843WAT     H247772   5.977   2.119   3.764
15844WAT      O47773   5.497   0.167   1.670
15844WAT     H147774   5.408   0.129   1.645
15844WAT     H247775   5.564   0.141   1.601
15845WAT      O47776   8.317   0.072   5.684
15845WAT     H147777   8.309   0.030   5.775
15845WAT     H247778   8.252   0.028   5.622
15846WAT      O47779   8.352   7.414   4.058
15846WAT     H147780   8.323   7.485   3.993
15846WAT     H247781   8.322   7.325   4.025
15847WAT      O47782   0.307   8.376   5.591
15847WAT     H147783   0.274   8.447   5.653
15847WAT     H247784   0.267   8.389   5.500
15848WAT      O47785   1.732   3.181   9.297
15848WAT     H147786   1.640   3.156   9.325
15848WAT     H247787   1.797   3.158   9.370
15849WAT      O47788   4.916   9.823   5.191
15849WAT     H147789   4.954   9.766   5.263
15849WAT     H247790   4.851   9.770   5.137
15850WAT      O47791   5.418   8.463   8.913
15850WAT     H147792   5.461   8.398   8.850
15850WAT     H247793   5.380   8.539   8.860
15851WAT      O47794   2.592   3.983   9.663
15851WAT     H147795   2.588   4.054   9.733
15851WAT     H247796   2.669   4.000   9.602
15852WAT      O47797   4.406   8.686   1.837
15852WAT     H147798   4.408   8.589   1.814
15852WAT     H247799   4.490   8.730   1.805
15853WAT      O47800   0.275   1.647   3.894
15853WAT     H147801   0.191   1.700   3.910
15853WAT     H247802   0.251   1.553   3.869
15854WAT      O47803   8.901   0.275   1.116
15854WAT     H147804   8.862   0.348   1.060
15854WAT     H247805   8.836   0.199   1.121
15855WAT      O47806   2.012   1.720   1.042
15855WAT     H147807   1.945   1.680   0.980
15855WAT     H247808   2.047   1.805   1.003
15856WAT      O47809   1.947   0.004   4.902
15856WAT     H147810   1.942   0.102   4.881
15856WAT     H247811   2.038  -0.030   4.879
15857WAT      O47812   6.136   5.488   9.818
15857WAT     H147813   6.233   5.495   9.797
15857WAT     H247814   6.100   5.577   9.844
15858WAT      O47815   7.080   2.915   7.849
15858WAT     H147816   7.059   2.984   7.780
15858WAT     H247817   7.015   2.924   7.925
15859WAT      O47818   7.622   9.726   1.283
15859WAT     H147819   7.627   9.725   1.183
15859WAT     H247820   7.692   9.788   1.319
15860WAT      O47821   0.132   7.998   1.009
15860WAT     H147822   0.164   8.085   0.973
15860WAT     H247823   0.032   7.999   1.015
15861WAT      O47824   2.678   7.648   9.452
15861WAT     H147825   2.728   7.588   9.514
15861WAT     H247826   2.703   7.627   9.358
15862WAT      O47827   0.397   8.899   2.872
15862WAT     H147828   0.298   8.889   2.861
15862WAT     H247829   0.429   8.972   2.811
15863WAT      O47830   2.457   6.449   2.386
15863WAT     H147831   2.447   6.449   2.486
15863WAT     H247832   2.439   6.540   2.350
15864WAT      O47833   5.087   6.627   6.856
15864WAT     H147834   5.021   6.684   6.906
15864WAT     H247835   5.081   6.648   6.758
15865WAT      O47836   9.130   0.545   9.498
15865WAT     H147837   9.090   0.636   9.509
15865WAT     H247838   9.203   0.532   9.566
15866WAT      O47839   2.152   2.685   3.831
15866WAT     H147840   2.097   2.732   3.899
15866WAT     H247841   2.092   2.644   3.762
15867WAT      O47842   0.238   6.672   7.023
15867WAT     H147843   0.251   6.588   7.077
15867WAT     H247844   0.291   6.746   7.064
15868WAT      O47845   6.932   5.685   9.105
15868WAT     H147846   6.886   5.603   9.140
15868WAT     H247847   6.944   5.751   9.179
15869WAT      O47848   3.187   8.706   7.313
15869WAT     H147849   3.250   8.628   7.308
15869WAT     H247850   3.114   8.685   7.378
15870WAT      O47851   1.920   9.240   4.069
15870WAT     H147852   2.020   9.242   4.076
15870WAT     H247853   1.887   9.147   4.082
15871WAT      O47854   0.544   7.633   5.752
15871WAT     H147855   0.478   7.699   5.716
15871WAT     H247856   0.607   7.606   5.680
15872WAT      O47857   0.670   2.481   1.668
15872WAT     H147858   0.607   2.552   1.637
15872WAT     H247859   0.730   2.519   1.739
15873WAT      O47860   0.093   8.037   3.709
15873WAT     H147861   0.013   7.984   3.738
15873WAT     H247862   0.145   7.985   3.641
15874WAT      O47863   1.458   2.673   8.098
15874WAT     H147864   1.412   2.598   8.144
15874WAT     H247865   1.516   2.636   8.024
15875WAT      O47866   2.094   9.331   1.284
15875WAT     H147867   2.136   9.281   1.209
15875WAT     H247868   2.165   9.364   1.347
15876WAT      O47869   4.426   0.539   1.161
15876WAT     H147870   4.382   0.574   1.244
15876WAT     H247871   4.486   0.609   1.123
15877WAT      O47872   5.054   8.622   9.748
15877WAT     H147873   5.054   8.624   9.648
15877WAT     H247874   4.980   8.681   9.782
15878WAT      O47875   1.688   7.828   2.671
15878WAT     H147876   1.692   7.905   2.734
15878WAT     H247877   1.607   7.773   2.690
15879WAT      O47878   2.275   9.341   2.340
15879WAT     H147879   2.234   9.257   2.305
15879WAT     H247880   2.344   9.319   2.409
15880WAT      O47881   5.461   0.817   5.899
15880WAT     H147882   5.374   0.863   5.883
15880WAT     H247883   5.509   0.862   5.975
15881WAT      O47884   6.335   0.858   7.087
15881WAT     H147885   6.418   0.860   7.144
15881WAT     H247886   6.282   0.776   7.109
15882WAT      O47887   9.345   4.393   7.619
15882WAT     H147888   9.294   4.351   7.694
15882WAT     H247889   9.319   4.489   7.610
15883WAT      O47890   3.133   3.861   8.396
15883WAT     H147891   3.181   3.775   8.411
15883WAT     H247892   3.108   3.870   8.300
15884WAT      O47893   6.037   0.964   9.787
15884WAT     H147894   6.052   0.890   9.721
15884WAT     H247895   6.078   0.939   9.875
15885WAT      O47896   8.435   5.104   6.213
15885WAT     H147897   8.483   5.022   6.180
15885WAT     H247898   8.479   5.186   6.175
15886WAT      O47899   5.515   0.245   7.162
15886WAT     H147900   5.556   0.286   7.244
15886WAT     H247901   5.567   0.164   7.136
15887WAT      O47902   0.506   8.611   5.502
15887WAT     H147903   0.455   8.595   5.417
15887WAT     H247904   0.490   8.705   5.533
15888WAT      O47905   1.850   9.274   4.701
15888WAT     H147906   1.760   9.293   4.661
15888WAT     H247907   1.868   9.338   4.775
15889WAT      O47908   9.506   3.420   9.233
15889WAT     H147909   9.453   3.348   9.188
15889WAT     H247910   9.534   3.488   9.165
15890WAT      O47911   8.062   3.901   1.626
15890WAT     H147912   8.085   3.883   1.722
15890WAT     H247913   8.081   3.996   1.604
15891WAT      O47914   0.853   7.925   7.350
15891WAT     H147915   0.768   7.880   7.322
15891WAT     H247916   0.845   8.023   7.336
15892WAT      O47917   8.656   2.695   4.486
15892WAT     H147918   8.730   2.675   4.550
15892WAT     H247919   8.581   2.632   4.501
15893WAT      O47920   2.949   5.548   0.842
15893WAT     H147921   2.991   5.491   0.771
15893WAT     H247922   3.010   5.550   0.922
15894WAT      O47923   9.268   7.319   0.017
15894WAT     H147924   9.322   7.347  -0.062
15894WAT     H247925   9.290   7.225   0.041
15895WAT      O47926   9.633   0.503   7.580
15895WAT     H147927   9.692   0.423   7.566
15895WAT     H247928   9.622   0.518   7.679
15896WAT      O47929   5.183   2.901   4.352
15896WAT     H147930   5.191   2.821   4.292
15896WAT     H247931   5.273   2.941   4.366
15897WAT      O47932   5.681   9.078   4.703
15897WAT     H147933   5.654   9.082   4.607
15897WAT     H247934   5.662   8.986   4.739
15898WAT      O47935   5.996   3.230   6.773
15898WAT     H147936   5.932   3.160   6.743
15898WAT     H247937   6.027   3.282   6.693
15899WAT      O47938   0.823   7.261   2.714
15899WAT     H147939   0.800   7.165   2.698
15899WAT     H247940   0.897   7.267   2.782
15900WAT      O47941   1.779   8.651   9.879
15900WAT     H147942   1.738   8.594   9.807
15900WAT     H247943   1.713   8.719   9.910
15901WAT      O47944   6.981   8.288   6.310
15901WAT     H147945   6.881   8.292   6.314
15901WAT     H247946   7.019   8.377   6.336
15902WAT      O47947   1.362   9.479   2.486
15902WAT     H147948   1.352   9.425   2.570
15902WAT     H247949   1.365   9.576   2.508
15903WAT      O47950   8.862   4.621   6.395
15903WAT     H147951   8.929   4.567   6.445
15903WAT     H247952   8.776   4.623   6.446
15904WAT      O47953   5.418   3.194   0.079
15904WAT     H147954   5.332   3.193   0.130
15904WAT     H247955   5.404   3.150  -0.010
15905WAT      O47956   5.182   2.044   7.965
15905WAT     H147957   5.233   1.971   7.920
15905WAT     H247958   5.245   2.107   8.009
15906WAT      O47959   1.459   4.478   8.799
15906WAT     H147960   1.379   4.479   8.738
15906WAT     H247961   1.516   4.399   8.778
15907WAT      O47962   8.500   7.111   4.360
15907WAT     H147963   8.529   7.164   4.439
15907WAT     H247964   8.415   7.062   4.381
15908WAT      O47965   3.934   5.087   8.161
15908WAT     H147966   3.991   5.032   8.099
15908WAT     H247967   3.928   5.180   8.126
15909WAT      O47968   4.859   2.605   6.073
15909WAT     H147969   4.838   2.524   6.127
15909WAT     H247970   4.899   2.578   5.986
15910WAT      O47971   1.641   3.386   3.147
15910WAT     H147972   1.625   3.467   3.203
15910WAT     H247973   1.728   3.397   3.099
15911WAT      O47974   3.347   2.945   1.965
15911WAT     H147975   3.376   2.850   1.975
15911WAT     H247976   3.264   2.948   1.909
15912WAT      O47977   9.558   8.782   1.002
15912WAT     H147978   9.487   8.717   0.974
15912WAT     H247979   9.632   8.733   1.049
15913WAT      O47980   3.984   4.352   0.171
15913WAT     H147981   3.885   4.364   0.161
15913WAT     H247982   4.020   4.423   0.232
15914WAT      O47983   6.876   4.541   0.857
15914WAT     H147984   6.848   4.633   0.883
15914WAT     H247985   6.828   4.474   0.914
15915WAT      O47986   5.823   3.265   9.425
15915WAT     H147987   5.831   3.264   9.325
15915WAT     H247988   5.732   3.235   9.452
15916WAT      O47989   6.211   0.831   4.256
15916WAT     H147990   6.202   0.927   4.283
15916WAT     H247991   6.130   0.803   4.204
15917WAT      O47992   6.071   4.123   2.888
15917WAT     H147993   6.162   4.103   2.852
15917WAT     H247994   6.066   4.093   2.983
15918WAT      O47995   7.502   1.597   2.240
15918WAT     H147996   7.440   1.672   2.263
15918WAT     H247997   7.481   1.562   2.150
15919WAT      O47998   6.594   0.213   8.437
15919WAT     H147999   6.642   0.194   8.522
15919WAT     H248000   6.517   0.149   8.427
15920WAT      O48001   2.265   5.917   0.479
15920WAT     H148002   2.328   5.891   0.405
15920WAT     H248003   2.310   5.903   0.567
15921WAT      O48004   8.580   4.964   3.789
15921WAT     H148005   8.645   4.913   3.733
15921WAT     H248006   8.623   5.048   3.821
15922WAT      O48007   9.725   9.565   5.215
15922WAT     H148008   9.745   9.527   5.125
15922WAT     H248009   9.811   9.583   5.264
15923WAT      O48010   5.497   7.844   0.025
15923WAT     H148011   5.548   7.863  -0.058
15923WAT     H248012   5.483   7.929   0.076
15924WAT      O48013   6.024   0.178   6.623
15924WAT     H148014   6.008   0.233   6.705
15924WAT     H248015   5.937   0.165   6.575
15925WAT      O48016   9.087   4.924   3.642
15925WAT     H148017   9.151   4.953   3.572
15925WAT     H248018   9.130   4.855   3.700
15926WAT      O48019   3.800   3.378   3.277
15926WAT     H148020   3.827   3.412   3.187
15926WAT     H248021   3.847   3.291   3.295
15927WAT      O48022   1.087   8.678   3.849
15927WAT     H148023   1.030   8.617   3.905
15927WAT     H248024   1.133   8.744   3.908
15928WAT      O48025   3.314   0.561   7.944
15928WAT     H148026   3.252   0.633   7.913
15928WAT     H248027   3.263   0.493   7.997
15929WAT      O48028   2.609   5.824   3.922
15929WAT     H148029   2.652   5.743   3.882
15929WAT     H248030   2.510   5.819   3.907
15930WAT      O48031   6.860   3.726   4.162
15930WAT     H148032   6.803   3.704   4.082
15930WAT     H248033   6.879   3.642   4.213
15931WAT      O48034   8.914   8.005   3.888
15931WAT     H148035   8.903   8.102   3.865
15931WAT     H248036   8.877   7.988   3.979
15932WAT      O48037   2.752   4.859   5.901
15932WAT     H148038   2.713   4.767   5.911
15932WAT     H248039   2.678   4.924   5.884
15933WAT      O48040   5.951   1.080   7.962
15933WAT     H148041   5.871   1.068   8.021
15933WAT     H248042   5.998   0.993   7.952
15934WAT      O48043   1.852   7.793   6.466
15934WAT     H148044   1.893   7.831   6.383
15934WAT     H248045   1.910   7.814   6.545
15935WAT      O48046   9.272   6.654   1.838
15935WAT     H148047   9.270   6.742   1.790
15935WAT     H248048   9.233   6.583   1.780
15936WAT      O48049   3.778   7.764   0.811
15936WAT     H148050   3.798   7.679   0.860
15936WAT     H248051   3.829   7.765   0.725
15937WAT      O48052   9.424   6.272   9.689
15937WAT     H148053   9.380   6.325   9.762
15937WAT     H248054   9.491   6.209   9.729
15938WAT      O48055   3.614   5.320   5.965
15938WAT     H148056   3.706   5.299   5.932
15938WAT     H248057   3.556   5.346   5.888
15939WAT      O48058   8.111   4.473   6.215
15939WAT     H148059   8.077   4.387   6.175
15939WAT     H248060   8.042   4.544   6.204
15940WAT      O48061   6.263   0.929   3.045
15940WAT     H148062   6.302   0.987   2.973
15940WAT     H248063   6.273   0.975   3.133
15941WAT      O48064   6.071   4.158   4.249
15941WAT     H148065   6.065   4.244   4.199
15941WAT     H248066   6.034   4.084   4.192
15942WAT      O48067   9.253   0.423   5.582
15942WAT     H148068   9.241   0.429   5.482
15942WAT     H248069   9.330   0.481   5.610
15943WAT      O48070   2.842   3.624   7.186
15943WAT     H148071   2.916   3.676   7.144
15943WAT     H248072   2.857   3.526   7.170
15944WAT      O48073   9.770   8.406   0.599
15944WAT     H148074   9.755   8.315   0.639
15944WAT     H248075   9.829   8.398   0.519
15945WAT      O48076   9.662   3.561   7.815
15945WAT     H148077   9.684   3.640   7.873
15945WAT     H248078   9.648   3.592   7.721
15946WAT      O48079   4.949   3.204   7.770
15946WAT     H148080   4.881   3.143   7.730
15946WAT     H248081   4.917   3.236   7.859
15947WAT      O48082   0.094   5.482   4.733
15947WAT     H148083   0.044   5.524   4.808
15947WAT     H248084   0.124   5.390   4.760
15948WAT      O48085   7.280   0.023   8.554
15948WAT     H148086   7.375  -0.008   8.560
15948WAT     H248087   7.225  -0.026   8.623
15949WAT      O48088   8.074   5.133   7.096
15949WAT     H148089   8.075   5.132   6.996
15949WAT     H248090   8.104   5.044   7.131
15950WAT      O48091   7.162   5.386   7.433
15950WAT     H148092   7.081   5.368   7.378
15950WAT     H248093   7.243   5.350   7.386
15951WAT      O48094   3.214   0.413   6.888
15951WAT     H148095   3.274   0.345   6.930
15951WAT     H248096   3.139   0.366   6.841
15952WAT      O48097   0.995   8.617   5.902
15952WAT     H148098   1.028   8.710   5.918
15952WAT     H248099   1.053   8.573   5.833
15953WAT      O48100   4.309   1.399   4.199
15953WAT     H148101   4.394   1.388   4.250
15953WAT     H248102   4.274   1.309   4.173
15954WAT      O48103   1.582   2.903   0.561
15954WAT     H148104   1.649   2.972   0.534
15954WAT     H248105   1.495   2.947   0.582
15955WAT      O48106   0.445   3.956   0.370
15955WAT     H148107   0.424   3.899   0.449
15955WAT     H248108   0.389   3.927   0.292
15956WAT      O48109   4.597   1.804   4.810
15956WAT     H148110   4.548   1.841   4.890
15956WAT     H248111   4.581   1.864   4.732
15957WAT      O48112   8.277   2.644   1.576
15957WAT     H148113   8.219   2.635   1.658
15957WAT     H248114   8.369   2.671   1.603
15958WAT      O48115   1.079   0.475   9.554
15958WAT     H148116   1.026   0.419   9.489
15958WAT     H248117   1.029   0.483   9.640
15959WAT      O48118   1.715   1.934   4.650
15959WAT     H148119   1.676   1.847   4.681
15959WAT     H248120   1.642   2.001   4.637
15960WAT      O48121   7.719   7.163   5.684
15960WAT     H148122   7.805   7.112   5.675
15960WAT     H248123   7.740   7.261   5.688
15961WAT      O48124   2.407   1.506   0.998
15961WAT     H148125   2.501   1.539   1.002
15961WAT     H248126   2.405   1.416   0.953
15962WAT      O48127   0.886   6.711   2.600
15962WAT     H148128   0.931   6.787   2.647
15962WAT     H248129   0.835   6.746   2.522
15963WAT      O48130   5.506   8.015   4.209
15963WAT     H148131   5.594   8.063   4.205
15963WAT     H248132   5.445   8.053   4.139
15964WAT      O48133   3.714   8.340   4.420
15964WAT     H148134   3.763   8.286   4.489
15964WAT     H248135   3.650   8.281   4.372
15965WAT      O48136   2.497   7.865   8.695
15965WAT     H148137   2.446   7.780   8.681
15965WAT     H248138   2.475   7.902   8.786
15966WAT      O48139   8.129   8.257   0.950
15966WAT     H148140   8.113   8.202   0.868
15966WAT     H248141   8.135   8.196   1.030
15967WAT      O48142   1.593   4.535   6.591
15967WAT     H148143   1.537   4.508   6.669
15967WAT     H248144   1.604   4.457   6.529
15968WAT      O48145   8.308   0.734   1.876
15968WAT     H148146   8.345   0.643   1.895
15968WAT     H248147   8.300   0.786   1.961
15969WAT      O48148   8.757   3.923   4.129
15969WAT     H148149   8.801   3.907   4.217
15969WAT     H248150   8.741   3.835   4.084
15970WAT      O48151   0.917   6.652   5.260
15970WAT     H148152   0.986   6.661   5.331
15970WAT     H248153   0.879   6.559   5.262
15971WAT      O48154   7.122   9.406   4.418
15971WAT     H148155   7.117   9.503   4.441
15971WAT     H248156   7.137   9.353   4.502
15972WAT      O48157   2.917   4.474   7.684
15972WAT     H148158   2.970   4.475   7.600
15972WAT     H248159   2.821   4.496   7.663
15973WAT      O48160   4.801   5.414   5.893
15973WAT     H148161   4.889   5.426   5.938
15973WAT     H248162   4.745   5.350   5.946
15974WAT      O48163   0.572   2.318   0.979
15974WAT     H148164   0.669   2.329   0.958
15974WAT     H248165   0.518   2.351   0.901
15975WAT      O48166   7.477   0.988   3.289
15975WAT     H148167   7.384   1.020   3.272
15975WAT     H248168   7.482   0.944   3.378
15976WAT      O48169   3.871   3.650   4.549
15976WAT     H148170   3.870   3.735   4.496
15976WAT     H248171   3.777   3.617   4.559
15977WAT      O48172   5.113   4.374   2.334
15977WAT     H148173   5.211   4.390   2.321
15977WAT     H248174   5.063   4.459   2.317
15978WAT      O48175   0.284   9.640   6.409
15978WAT     H148176   0.321   9.560   6.362
15978WAT     H248177   0.208   9.612   6.468
15979WAT      O48178   0.082   6.119   1.507
15979WAT     H148179   0.132   6.088   1.588
15979WAT     H248180   0.032   6.203   1.530
15980WAT      O48181   4.804   9.464   5.388
15980WAT     H148182   4.880   9.405   5.413
15980WAT     H248183   4.749   9.419   5.317
15981WAT      O48184   6.053   0.073   9.862
15981WAT     H148185   6.067   0.078   9.763
15981WAT     H248186   6.039  -0.023   9.888
15982WAT      O48187   2.674   2.413   3.259
15982WAT     H148188   2.774   2.411   3.266
15982WAT     H248189   2.640   2.500   3.294
15983WAT      O48190   5.652   6.358   8.165
15983WAT     H148191   5.620   6.448   8.135
15983WAT     H248192   5.580   6.290   8.149
15984WAT      O48193   9.323   4.099   4.324
15984WAT     H148194   9.346   4.045   4.243
15984WAT     H248195   9.226   4.086   4.345
15985WAT      O48196   1.100   6.260   2.341
15985WAT     H148197   1.163   6.303   2.405
15985WAT     H248198   1.128   6.282   2.247
15986WAT      O48199   9.347   9.502   7.510
15986WAT     H148200   9.427   9.557   7.533
15986WAT     H248201   9.265   9.559   7.511
15987WAT      O48202   7.316   5.107   0.322
15987WAT     H148203   7.230   5.057   0.308
15987WAT     H248204   7.393   5.043   0.314
15988WAT      O48205   8.073   8.540   5.535
15988WAT     H148206   8.006   8.493   5.478
15988WAT     H248207   8.084   8.491   5.621
15989WAT      O48208   7.722   9.137   0.914
15989WAT     H148209   7.624   9.146   0.896
15989WAT     H248210   7.768   9.223   0.894
15990WAT      O48211   2.076   8.880   7.492
15990WAT     H148212   1.985   8.840   7.494
15990WAT     H248213   2.136   8.830   7.555
15991WAT      O48214   5.247   2.859   9.880
15991WAT     H148215   5.297   2.935   9.838
15991WAT     H248216   5.294   2.773   9.859
15992WAT      O48217   4.018   2.088   1.457
15992WAT     H148218   4.056   2.134   1.538
15992WAT     H248219   3.928   2.050   1.480
15993WAT      O48220   7.843   3.433   1.232
15993WAT     H148221   7.825   3.404   1.138
15993WAT     H248222   7.941   3.446   1.244
15994WAT      O48223   8.187   1.399   3.112
15994WAT     H148224   8.215   1.391   3.017
15994WAT     H248225   8.230   1.327   3.166
15995WAT      O48226   7.809   9.401   2.357
15995WAT     H148227   7.864   9.326   2.321
15995WAT     H248228   7.851   9.436   2.441
15996WAT      O48229   2.125   8.200   8.493
15996WAT     H148230   2.214   8.216   8.452
15996WAT     H248231   2.136   8.143   8.575
15997WAT      O48232   2.963   3.751   6.506
15997WAT     H148233   2.921   3.795   6.585
15997WAT     H248234   2.892   3.709   6.449
15998WAT      O48235   1.399   0.927   5.387
15998WAT     H148236   1.492   0.908   5.356
15998WAT     H248237   1.387   1.026   5.396
15999WAT      O48238   8.466   3.083   8.978
15999WAT     H148239   8.472   3.057   9.075
15999WAT     H248240   8.556   3.112   8.946
16000WAT      O48241   2.912   9.605   3.093
16000WAT     H148242   2.945   9.695   3.066
16000WAT     H248243   2.890   9.551   3.012
16001WAT      O48244   3.160   0.969   9.298
16001WAT     H148245   3.110   1.043   9.343
16001WAT     H248246   3.211   0.917   9.367
16002WAT      O48247   5.255   2.804   0.258
16002WAT     H148248   5.247   2.793   0.159
16002WAT     H248249   5.170   2.843   0.294
16003WAT      O48250   7.180   3.685   2.188
16003WAT     H148251   7.242   3.616   2.151
16003WAT     H248252   7.114   3.641   2.249
16004WAT      O48253   3.222   2.593   5.301
16004WAT     H148254   3.137   2.548   5.273
16004WAT     H248255   3.280   2.528   5.350
16005WAT      O48256   4.378   5.475   9.088
16005WAT     H148257   4.435   5.400   9.119
16005WAT     H248258   4.295   5.479   9.144
16006WAT      O48259   9.855   0.487   0.397
16006WAT     H148260   9.899   0.543   0.326
16006WAT     H248261   9.911   0.489   0.479
16007WAT      O48262   0.341   4.226   2.698
16007WAT     H148263   0.348   4.136   2.740
16007WAT     H248264   0.387   4.225   2.609
16008WAT      O48265   8.225   5.407   0.501
16008WAT     H148266   8.215   5.341   0.427
16008WAT     H248267   8.144   5.466   0.505
16009WAT      O48268   5.190   1.413   2.358
16009WAT     H148269   5.241   1.387   2.276
16009WAT     H248270   5.171   1.511   2.356
16010WAT      O48271   2.530   0.532   2.675
16010WAT     H148272   2.612   0.476   2.679
16010WAT     H248273   2.507   0.564   2.767
16011WAT      O48274   6.591   4.612   3.906
16011WAT     H148275   6.688   4.612   3.883
16011WAT     H248276   6.573   4.546   3.979
16012WAT      O48277   5.025   5.564   2.167
16012WAT     H148278   4.964   5.490   2.197
16012WAT     H248279   4.982   5.652   2.185
16013WAT      O48280   3.147   1.381   4.125
16013WAT     H148281   3.049   1.372   4.109
16013WAT     H248282   3.180   1.468   4.088
16014WAT      O48283   1.094   5.171   5.446
16014WAT     H148284   1.038   5.091   5.425
16014WAT     H248285   1.191   5.146   5.440
16015WAT      O48286   1.925   6.956   9.421
16015WAT     H148287   1.962   6.864   9.431
16015WAT     H248288   1.904   6.974   9.325
16016WAT      O48289   9.758   6.318   8.438
16016WAT     H148290   9.816   6.400   8.431
16016WAT     H248291   9.804   6.250   8.495
16017WAT      O48292   1.074   0.215   5.716
16017WAT     H148293   1.127   0.218   5.630
16017WAT     H248294   0.987   0.168   5.700
16018WAT      O48295   3.149   6.584   6.023
16018WAT     H148296   3.068   6.537   5.987
16018WAT     H248297   3.161   6.670   5.973
16019WAT      O48298   9.458   7.203   0.316
16019WAT     H148299   9.404   7.234   0.238
16019WAT     H248300   9.549   7.176   0.285
16020WAT      O48301   8.106   7.275   6.210
16020WAT     H148302   8.110   7.329   6.294
16020WAT     H248303   8.022   7.295   6.161
16021WAT      O48304   5.200   3.912   0.254
16021WAT     H148305   5.262   3.845   0.214
16021WAT     H248306   5.196   3.993   0.195
16022WAT      O48307   2.923   7.772   7.855
16022WAT     H148308   2.948   7.721   7.773
16022WAT     H248309   2.866   7.850   7.830
16023WAT      O48310   4.815   9.555   8.217
16023WAT     H148311   4.734   9.604   8.186
16023WAT     H248312   4.897   9.601   8.182
16024WAT      O48313   7.545   6.799   1.109
16024WAT     H148314   7.638   6.783   1.077
16024WAT     H248315   7.484   6.814   1.030
16025WAT      O48316   6.632   4.184   5.937
16025WAT     H148317   6.581   4.114   5.888
16025WAT     H248318   6.727   4.182   5.909
16026WAT      O48319   6.252   1.556   6.317
16026WAT     H148320   6.307   1.492   6.263
16026WAT     H248321   6.176   1.589   6.262
16027WAT      O48322   4.921   7.488   1.394
16027WAT     H148323   4.891   7.513   1.486
16027WAT     H248324   4.964   7.566   1.350
16028WAT      O48325   1.520   2.387   4.649
16028WAT     H148326   1.511   2.453   4.575
16028WAT     H248327   1.612   2.393   4.689
16029WAT      O48328   9.226   4.866   4.721
16029WAT     H148329   9.155   4.935   4.737
16029WAT     H248330   9.206   4.784   4.774
16030WAT      O48331   6.907   9.659   6.530
16030WAT     H148332   7.000   9.626   6.544
16030WAT     H248333   6.873   9.629   6.441
16031WAT      O48334   0.258   3.636   3.401
16031WAT     H148335   0.185   3.626   3.334
16031WAT     H248336   0.298   3.547   3.421
16032WAT      O48337   6.695   2.767   8.750
16032WAT     H148338   6.640   2.749   8.831
16032WAT     H248339   6.672   2.701   8.678
16033WAT      O48340   0.026   0.872   4.858
16033WAT     H148341   0.081   0.928   4.796
16033WAT     H248342   0.017   0.918   4.946
16034WAT      O48343   7.140   9.614   3.913
16034WAT     H148344   7.164   9.538   3.974
16034WAT     H248345   7.096   9.578   3.831
16035WAT      O48346   9.215   1.590   1.670
16035WAT     H148347   9.186   1.684   1.659
16035WAT     H248348   9.312   1.587   1.696
16036WAT      O48349   4.375   0.392   8.119
16036WAT     H148350   4.445   0.429   8.058
16036WAT     H248351   4.289   0.441   8.105
16037WAT      O48352   0.303   2.214   7.258
16037WAT     H148353   0.380   2.275   7.240
16037WAT     H248354   0.338   2.124   7.286
16038WAT      O48355   6.705   0.549   4.320
16038WAT     H148356   6.679   0.464   4.274
16038WAT     H248357   6.626   0.609   4.327
16039WAT      O48358   0.865   6.390   8.519
16039WAT     H148359   0.868   6.449   8.599
16039WAT     H248360   0.783   6.332   8.523
16040WAT      O48361   3.405   9.511   7.881
16040WAT     H148362   3.457   9.482   7.801
16040WAT     H248363   3.332   9.573   7.853
16041WAT      O48364   4.098   0.439   6.822
16041WAT     H148365   4.183   0.492   6.823
16041WAT     H248366   4.119   0.343   6.803
16042WAT      O48367   6.407   1.013   4.554
16042WAT     H148368   6.450   1.026   4.644
16042WAT     H248369   6.374   0.920   4.547
16043WAT      O48370   0.829   5.067   4.376
16043WAT     H148371   0.784   5.066   4.287
16043WAT     H248372   0.818   4.978   4.420
16044WAT      O48373   6.727   8.565   7.780
16044WAT     H148374   6.819   8.551   7.744
16044WAT     H248375   6.721   8.656   7.821
16045WAT      O48376   6.110   2.197   4.922
16045WAT     H148377   6.057   2.280   4.940
16045WAT     H248378   6.159   2.207   4.835
16046WAT      O48379   4.274   8.589   5.682
16046WAT     H148380   4.251   8.686   5.689
16046WAT     H248381   4.330   8.574   5.600
16047WAT      O48382   1.588   1.422   3.839
16047WAT     H148383   1.687   1.437   3.841
16047WAT     H248384   1.542   1.494   3.891
16048WAT      O48385   2.374   4.812   0.624
16048WAT     H148386   2.288   4.857   0.645
16048WAT     H248387   2.434   4.817   0.704
16049WAT      O48388   6.458   4.199   2.319
16049WAT     H148389   6.364   4.177   2.342
16049WAT     H248390   6.482   4.156   2.232
16050WAT      O48391   0.748   2.310   5.476
16050WAT     H148392   0.671   2.352   5.428
16050WAT     H248393   0.826   2.372   5.474
16051WAT      O48394   8.420   6.657   6.405
16051WAT     H148395   8.407   6.624   6.312
16051WAT     H248396   8.336   6.703   6.436
16052WAT      O48397   7.362   2.598   2.216
16052WAT     H148398   7.359   2.516   2.272
16052WAT     H248399   7.457   2.627   2.203
16053WAT      O48400   4.931   7.708   0.463
16053WAT     H148401   4.942   7.792   0.410
16053WAT     H248402   4.841   7.669   0.446
16054WAT      O48403   7.949   5.700   8.476
16054WAT     H148404   7.928   5.653   8.390
16054WAT     H248405   7.900   5.787   8.479
16055WAT      O48406   2.987   1.847   6.774
16055WAT     H148407   3.016   1.760   6.735
16055WAT     H248408   3.037   1.922   6.731
16056WAT      O48409   1.465   8.149   0.388
16056WAT     H148410   1.443   8.092   0.309
16056WAT     H248411   1.427   8.241   0.375
16057WAT      O48412   6.104   5.742   4.194
16057WAT     H148413   6.125   5.827   4.146
16057WAT     H248414   6.124   5.753   4.292
16058WAT      O48415   5.306   9.047   4.747
16058WAT     H148416   5.338   9.127   4.797
16058WAT     H248417   5.260   9.077   4.663
16059WAT      O48418   1.862   5.105   7.010
16059WAT     H148419   1.915   5.027   6.976
16059WAT     H248420   1.780   5.116   6.954
16060WAT      O48421   0.870   8.530   1.103
16060WAT     H148422   0.783   8.580   1.108
16060WAT     H248423   0.933   8.577   1.042
16061WAT      O48424   8.038   2.208   9.633
16061WAT     H148425   7.994   2.172   9.551
16061WAT     H248426   7.970   2.216   9.706
16062WAT      O48427   6.551   0.283   1.166
16062WAT     H148428   6.539   0.284   1.067
16062WAT     H248429   6.601   0.364   1.195
16063WAT      O48430   1.217   0.660   4.775
16063WAT     H148431   1.163   0.732   4.818
16063WAT     H248432   1.263   0.696   4.694
16064WAT      O48433   5.476   2.336   9.764
16064WAT     H148434   5.410   2.263   9.747
16064WAT     H248435   5.446   2.419   9.718
16065WAT      O48436   9.213   1.856   0.402
16065WAT     H148437   9.217   1.772   0.347
16065WAT     H248438   9.183   1.834   0.495
16066WAT      O48439   6.034   8.581   8.900
16066WAT     H148440   6.037   8.542   8.808
16066WAT     H248441   5.972   8.527   8.957
16067WAT      O48442   1.710   0.428   5.710
16067WAT     H148443   1.617   0.439   5.677
16067WAT     H248444   1.709   0.382   5.799
16068WAT      O48445   6.791   1.066   8.535
16068WAT     H148446   6.792   1.164   8.516
16068WAT     H248447   6.837   1.048   8.622
16069WAT      O48448   6.734   2.013   4.330
16069WAT     H148449   6.732   1.923   4.373
16069WAT     H248450   6.750   2.083   4.400
16070WAT      O48451   9.537   1.579   7.241
16070WAT     H148452   9.514   1.674   7.221
16070WAT     H248453   9.620   1.553   7.191
16071WAT      O48454   3.787   6.853   6.081
16071WAT     H148455   3.866   6.792   6.070
16071WAT     H248456   3.811   6.944   6.048
16072WAT      O48457   1.588   8.601   9.047
16072WAT     H148458   1.527   8.545   9.103
16072WAT     H248459   1.682   8.571   9.059
16073WAT      O48460   2.807   1.842   1.456
16073WAT     H148461   2.839   1.897   1.534
16073WAT     H248462   2.868   1.856   1.378
16074WAT      O48463   5.810   9.276   4.839
16074WAT     H148464   5.782   9.191   4.794
16074WAT     H248465   5.802   9.352   4.775
16075WAT      O48466   2.183   6.559   4.942
16075WAT     H148467   2.247   6.554   5.018
16075WAT     H248468   2.117   6.483   4.949
16076WAT      O48469   0.050   6.696   7.325
16076WAT     H148470   0.139   6.650   7.316
16076WAT     H248471   0.065   6.792   7.349
16077WAT      O48472   5.994   6.335   1.983
16077WAT     H148473   5.969   6.344   1.887
16077WAT     H248474   6.065   6.265   1.993
16078WAT      O48475   6.431   1.005   9.721
16078WAT     H148476   6.390   0.917   9.698
16078WAT     H248477   6.439   1.061   9.638
16079WAT      O48478   7.480   5.945   8.699
16079WAT     H148479   7.526   5.905   8.620
16079WAT     H248480   7.547   5.960   8.772
16080WAT      O48481   5.098   2.678   0.846
16080WAT     H148482   5.030   2.606   0.851
16080WAT     H248483   5.189   2.639   0.857
16081WAT      O48484   6.721   4.154   6.599
16081WAT     H148485   6.679   4.123   6.683
16081WAT     H248486   6.755   4.248   6.611
16082WAT      O48487   5.456   7.207   7.232
16082WAT     H148488   5.474   7.269   7.309
16082WAT     H248489   5.516   7.232   7.155
16083WAT      O48490   9.483   3.306   3.601
16083WAT     H148491   9.438   3.394   3.587
16083WAT     H248492   9.490   3.288   3.699
16084WAT      O48493   7.681   8.141   8.107
16084WAT     H148494   7.673   8.218   8.043
16084WAT     H248495   7.714   8.175   8.195
16085WAT      O48496   2.014   5.369   6.113
16085WAT     H148497   1.914   5.368   6.117
16085WAT     H248498   2.043   5.446   6.056
16086WAT      O48499   7.956   0.747   5.848
16086WAT     H148500   7.885   0.817   5.850
16086WAT     H248501   7.932   0.673   5.910
16087WAT      O48502   4.724   6.124   0.005
16087WAT     H148503   4.667   6.155  -0.070
16087WAT     H248504   4.674   6.133   0.091
16088WAT      O48505   7.460   1.348   9.324
16088WAT     H148506   7.410   1.378   9.242
16088WAT     H248507   7.471   1.425   9.386
16089WAT      O48508   1.770   8.234   3.770
16089WAT     H148509   1.713   8.167   3.816
16089WAT     H248510   1.865   8.203   3.771
16090WAT      O48511   1.030   8.863   5.673
16090WAT     H148512   0.948   8.919   5.685
16090WAT     H248513   1.109   8.912   5.710
16091WAT      O48514   6.844   3.647   8.041
16091WAT     H148515   6.928   3.662   7.989
16091WAT     H248516   6.791   3.574   7.997
16092WAT      O48517   7.910   1.386   7.299
16092WAT     H148518   7.938   1.461   7.361
16092WAT     H248519   7.977   1.378   7.225
16093WAT      O48520   9.815   4.983   0.754
16093WAT     H148521   9.811   4.930   0.669
16093WAT     H248522   9.902   4.966   0.800
16094WAT      O48523   4.678   8.816   1.555
16094WAT     H148524   4.582   8.811   1.526
16094WAT     H248525   4.734   8.850   1.479
16095WAT      O48526   9.588   0.598   0.817
16095WAT     H148527   9.501   0.643   0.834
16095WAT     H248528   9.653   0.664   0.779
16096WAT      O48529   9.670   6.556   5.738
16096WAT     H148530   9.613   6.637   5.750
16096WAT     H248531   9.718   6.561   5.651
16097WAT      O48532   0.515   2.357   6.901
16097WAT     H148533   0.524   2.427   6.829
16097WAT     H248534   0.429   2.372   6.951
16098WAT      O48535   6.374   8.438   2.098
16098WAT     H148536   6.317   8.398   2.027
16098WAT     H248537   6.346   8.533   2.114
16099WAT      O48538   5.319   7.639   3.818
16099WAT     H148539   5.409   7.622   3.778
16099WAT     H248540   5.287   7.730   3.792
16100WAT      O48541   0.903   2.084   1.188
16100WAT     H148542   0.905   2.005   1.248
16100WAT     H248543   0.852   2.158   1.232
16101WAT      O48544   5.894   8.821   9.608
16101WAT     H148545   5.844   8.743   9.646
16101WAT     H248546   5.830   8.884   9.565
16102WAT      O48547   9.124   1.188   1.693
16102WAT     H148548   9.109   1.090   1.682
16102WAT     H248549   9.077   1.220   1.776
16103WAT      O48550   4.624   0.047   1.317
16103WAT     H148551   4.652   0.141   1.337
16103WAT     H248552   4.599   0.001   1.402
16104WAT      O48553   1.159   1.593   5.625
16104WAT     H148554   1.228   1.581   5.697
16104WAT     H248555   1.137   1.504   5.585
16105WAT      O48556   5.365   3.653   6.022
16105WAT     H148557   5.436   3.696   5.965
16105WAT     H248558   5.409   3.604   6.098
16106WAT      O48559   7.059   1.640   2.528
16106WAT     H148560   7.064   1.582   2.446
16106WAT     H248561   7.146   1.635   2.577
16107WAT      O48562   4.680   7.501   3.128
16107WAT     H148563   4.704   7.476   3.034
16107WAT     H248564   4.762   7.531   3.176
16108WAT      O48565   0.340   3.591   8.977
16108WAT     H148566   0.378   3.639   8.898
16108WAT     H248567   0.328   3.494   8.956
16109WAT      O48568   1.370   3.289   3.990
16109WAT     H148569   1.454   3.276   3.937
16109WAT     H248570   1.291   3.263   3.934
16110WAT      O48571   8.785   4.480   1.249
16110WAT     H148572   8.789   4.539   1.330
16110WAT     H248573   8.767   4.386   1.277
16111WAT      O48574   2.512   9.550   6.787
16111WAT     H148575   2.524   9.595   6.875
16111WAT     H248576   2.415   9.531   6.772
16112WAT      O48577   5.077   2.802   3.577
16112WAT     H148578   5.104   2.726   3.519
16112WAT     H248579   4.982   2.827   3.558
16113WAT      O48580   0.396   6.708   9.659
16113WAT     H148581   0.443   6.710   9.571
16113WAT     H248582   0.316   6.767   9.657
16114WAT      O48583   3.337   1.567   5.761
16114WAT     H148584   3.301   1.657   5.783
16114WAT     H248585   3.359   1.563   5.663
16115WAT      O48586   4.768   0.553   1.210
16115WAT     H148587   4.688   0.612   1.214
16115WAT     H248588   4.784   0.525   1.116
16116WAT      O48589   2.984   0.462   2.850
16116WAT     H148590   3.002   0.553   2.888
16116WAT     H248591   2.970   0.397   2.925
16117WAT      O48592   5.447   9.286   5.305
16117WAT     H148593   5.401   9.203   5.335
16117WAT     H248594   5.509   9.318   5.377
16118WAT      O48595   0.562   0.129   8.545
16118WAT     H148596   0.580   0.162   8.453
16118WAT     H248597   0.529   0.034   8.540
16119WAT      O48598   7.088   8.676   6.985
16119WAT     H148599   7.124   8.675   7.078
16119WAT     H248600   7.142   8.738   6.928
16120WAT      O48601   4.529   8.999   4.302
16120WAT     H148602   4.436   9.021   4.331
16120WAT     H248603   4.526   8.939   4.222
16121WAT      O48604   5.930   7.001   5.704
16121WAT     H148605   5.943   6.920   5.762
16121WAT     H248606   5.850   6.987   5.646
16122WAT      O48607   4.855   4.201   4.870
16122WAT     H148608   4.913   4.217   4.950
16122WAT     H248609   4.869   4.274   4.803
16123WAT      O48610   3.627   6.356   9.411
16123WAT     H148611   3.547   6.394   9.459
16123WAT     H248612   3.597   6.292   9.341
16124WAT      O48613   7.344   2.152   5.784
16124WAT     H148614   7.317   2.179   5.691
16124WAT     H248615   7.424   2.205   5.812
16125WAT      O48616   7.404   9.208   3.383
16125WAT     H148617   7.360   9.226   3.295
16125WAT     H248618   7.340   9.230   3.457
16126WAT      O48619   5.810   2.400   0.613
16126WAT     H148620   5.826   2.415   0.515
16126WAT     H248621   5.867   2.462   0.666
16127WAT      O48622   5.592   7.499   8.172
16127WAT     H148623   5.622   7.561   8.243
16127WAT     H248624   5.564   7.551   8.091
16128WAT      O48625   9.687   5.711   9.465
16128WAT     H148626   9.669   5.661   9.380
16128WAT     H248627   9.767   5.770   9.453
16129WAT      O48628   7.623   5.025   1.113
16129WAT     H148629   7.614   4.974   1.028
16129WAT     H248630   7.630   4.962   1.190
16130WAT      O48631   5.064   3.527   1.340
16130WAT     H148632   4.965   3.513   1.340
16130WAT     H248633   5.095   3.547   1.433
16131WAT      O48634   4.246   9.332   9.386
16131WAT     H148635   4.226   9.296   9.478
16131WAT     H248636   4.180   9.294   9.321
16132WAT      O48637   2.986   4.621   8.669
16132WAT     H148638   3.044   4.641   8.590
16132WAT     H248639   2.978   4.703   8.727
16133WAT      O48640   2.976   1.783   5.124
16133WAT     H148641   2.935   1.783   5.033
16133WAT     H248642   3.032   1.865   5.135
16134WAT      O48643   1.096   4.731   1.496
16134WAT     H148644   1.165   4.664   1.467
16134WAT     H248645   1.006   4.702   1.465
16135WAT      O48646   2.866   7.700   4.104
16135WAT     H148647   2.826   7.710   4.195
16135WAT     H248648   2.896   7.606   4.090
16136WAT      O48649   5.953   2.427   5.002
16136WAT     H148650   5.882   2.471   5.057
16136WAT     H248651   5.965   2.478   4.917
16137WAT      O48652   7.201   4.583   1.493
16137WAT     H148653   7.244   4.608   1.580
16137WAT     H248654   7.150   4.498   1.505
16138WAT      O48655   3.746   1.045   6.992
16138WAT     H148656   3.820   1.059   7.057
16138WAT     H248657   3.684   1.124   6.994
16139WAT      O48658   0.175   7.088   0.466
16139WAT     H148659   0.076   7.101   0.460
16139WAT     H248660   0.198   7.053   0.557
16140WAT      O48661   2.745   7.078   0.231
16140WAT     H148662   2.801   7.080   0.148
16140WAT     H248663   2.683   7.156   0.231
16141WAT      O48664   9.537   3.033   0.607
16141WAT     H148665   9.496   2.970   0.542
16141WAT     H248666   9.595   3.099   0.558
16142WAT      O48667   0.999   4.581   6.823
16142WAT     H148668   0.912   4.626   6.842
16142WAT     H248669   1.051   4.570   6.907
16143WAT      O48670   9.633   9.014   3.363
16143WAT     H148671   9.641   9.101   3.411
16143WAT     H248672   9.571   8.953   3.413
16144WAT      O48673   3.014   7.105   3.629
16144WAT     H148674   2.923   7.121   3.590
16144WAT     H248675   3.005   7.087   3.727
16145WAT      O48676   5.443   1.139   3.048
16145WAT     H148677   5.427   1.146   2.949
16145WAT     H248678   5.511   1.207   3.076
16146WAT      O48679   3.572   6.208   9.182
16146WAT     H148680   3.491   6.258   9.152
16146WAT     H248681   3.644   6.216   9.113
16147WAT      O48682   8.417   7.620   5.063
16147WAT     H148683   8.323   7.591   5.047
16147WAT     H248684   8.478   7.540   5.055
16148WAT      O48685   4.905   5.812   5.187
16148WAT     H148686   4.914   5.908   5.159
16148WAT     H248687   4.964   5.794   5.266
16149WAT      O48688   0.225   2.669   5.923
16149WAT     H148689   0.264   2.654   6.014
16149WAT     H248690   0.218   2.767   5.905
16150WAT      O48691   4.260   4.421   1.583
16150WAT     H148692   4.252   4.323   1.597
16150WAT     H248693   4.264   4.441   1.485
16151WAT      O48694   7.139   6.768   5.269
16151WAT     H148695   7.143   6.719   5.182
16151WAT     H248696   7.055   6.823   5.272
16152WAT      O48697   6.545   4.999   5.864
16152WAT     H148698   6.629   4.951   5.889
16152WAT     H248699   6.569   5.086   5.821
16153WAT      O48700   1.977   2.098   2.322
16153WAT     H148701   2.062   2.140   2.355
16153WAT     H248702   1.997   2.033   2.249
16154WAT      O48703   0.126   1.659   4.990
16154WAT     H148704   0.040   1.688   5.033
16154WAT     H248705   0.124   1.683   4.893
16155WAT      O48706   3.101   1.703   1.137
16155WAT     H148707   3.117   1.615   1.182
16155WAT     H248708   3.093   1.688   1.038
16156WAT      O48709   6.242   5.105   3.266
16156WAT     H148710   6.145   5.084   3.280
16156WAT     H248711   6.251   5.197   3.230
16157WAT      O48712   1.337   4.138   8.935
16157WAT     H148713   1.405   4.127   9.007
16157WAT     H248714   1.268   4.204   8.964
16158WAT      O48715   0.612   6.509   5.486
16158WAT     H148716   0.537   6.524   5.422
16158WAT     H248717   0.576   6.480   5.574
16159WAT      O48718   0.083   8.993   0.152
16159WAT     H148719   0.001   9.048   0.142
16159WAT     H248720   0.144   9.035   0.220
16160WAT      O48721   5.756   7.360   7.786
16160WAT     H148722   5.683   7.317   7.732
16160WAT     H248723   5.751   7.459   7.775
16161WAT      O48724   9.257   8.810   6.035
16161WAT     H148725   9.324   8.875   6.001
16161WAT     H248726   9.167   8.832   5.998
16162WAT      O48727   4.623   3.124   1.198
16162WAT     H148728   4.704   3.175   1.227
16162WAT     H248729   4.612   3.044   1.256
16163WAT      O48730   4.036   7.751   2.975
16163WAT     H148731   4.096   7.727   2.899
16163WAT     H248732   3.951   7.790   2.939
16164WAT      O48733   5.197   0.067   7.367
16164WAT     H148734   5.190   0.092   7.271
16164WAT     H248735   5.107   0.073   7.410
16165WAT      O48736   4.383   0.903   8.155
16165WAT     H148737   4.431   0.915   8.241
16165WAT     H248738   4.434   0.948   8.081
16166WAT      O48739   8.623   5.514   0.015
16166WAT     H148740   8.645   5.431  -0.036
16166WAT     H248741   8.568   5.575  -0.041
16167WAT      O48742   4.191   2.805   4.034
16167WAT     H148743   4.106   2.850   4.063
16167WAT     H248744   4.170   2.717   3.991
16168WAT      O48745   5.158   7.354   1.567
16168WAT     H148746   5.155   7.374   1.469
16168WAT     H248747   5.085   7.289   1.590
16169WAT      O48748   8.230   2.283   9.462
16169WAT     H148749   8.311   2.296   9.520
16169WAT     H248750   8.151   2.259   9.519
16170WAT      O48751   4.385   1.272   4.559
16170WAT     H148752   4.406   1.351   4.617
16170WAT     H248753   4.441   1.276   4.476
16171WAT      O48754   3.182   3.540   1.287
16171WAT     H148755   3.180   3.441   1.297
16171WAT     H248756   3.276   3.572   1.280
16172WAT      O48757   1.293   3.452   2.812
16172WAT     H148758   1.312   3.357   2.786
16172WAT     H248759   1.208   3.483   2.769
16173WAT      O48760   9.273   6.189   6.007
16173WAT     H148761   9.264   6.121   6.080
16173WAT     H248762   9.306   6.144   5.924
16174WAT      O48763   4.590   8.994   0.805
16174WAT     H148764   4.659   9.020   0.873
16174WAT     H248765   4.536   8.918   0.840
16175WAT      O48766   6.222   6.366   6.457
16175WAT     H148767   6.137   6.318   6.477
16175WAT     H248768   6.239   6.363   6.358
16176WAT      O48769   7.549   8.721   2.342
16176WAT     H148770   7.452   8.706   2.323
16176WAT     H248771   7.604   8.659   2.288
16177WAT      O48772   1.436   9.471   4.034
16177WAT     H148773   1.461   9.522   4.116
16177WAT     H248774   1.338   9.451   4.035
16178WAT      O48775   6.974   0.042   2.432
16178WAT     H148776   6.952  -0.054   2.449
16178WAT     H248777   6.949   0.097   2.511
16179WAT      O48778   3.043   1.793   6.480
16179WAT     H148779   3.001   1.801   6.389
16179WAT     H248780   3.057   1.884   6.518
16180WAT      O48781   7.079   3.563   8.542
16180WAT     H148782   7.032   3.494   8.597
16180WAT     H248783   7.076   3.538   8.446
16181WAT      O48784   6.093   1.476   1.944
16181WAT     H148785   6.005   1.429   1.934
16181WAT     H248786   6.166   1.420   1.906
16182WAT      O48787   5.732   7.187   4.260
16182WAT     H148788   5.817   7.152   4.221
16182WAT     H248789   5.730   7.171   4.359
16183WAT      O48790   4.471   5.012   6.869
16183WAT     H148791   4.499   4.932   6.815
16183WAT     H248792   4.375   5.033   6.848
16184WAT      O48793   2.587   4.425   2.077
16184WAT     H148794   2.554   4.348   2.024
16184WAT     H248795   2.522   4.501   2.069
16185WAT      O48796   8.294   4.305   2.928
16185WAT     H148797   8.265   4.273   2.838
16185WAT     H248798   8.394   4.317   2.929
16186WAT      O48799   2.616   4.207   3.275
16186WAT     H148800   2.617   4.206   3.175
16186WAT     H248801   2.656   4.122   3.310
16187WAT      O48802   1.081   7.163   1.245
16187WAT     H148803   1.073   7.171   1.344
16187WAT     H248804   1.077   7.255   1.204
16188WAT      O48805   8.519   8.163   1.353
16188WAT     H148806   8.518   8.166   1.253
16188WAT     H248807   8.503   8.255   1.390
16189WAT      O48808   2.511   5.266   9.403
16189WAT     H148809   2.561   5.329   9.344
16189WAT     H248810   2.575   5.199   9.441
16190WAT      O48811   3.983   8.637   6.079
16190WAT     H148812   3.899   8.583   6.080
16190WAT     H248813   3.975   8.713   6.144
16191WAT      O48814   7.453   9.584   8.311
16191WAT     H148815   7.464   9.612   8.406
16191WAT     H248816   7.467   9.485   8.303
16192WAT      O48817   0.065   1.411   1.281
16192WAT     H148818   0.015   1.431   1.365
16192WAT     H248819   0.107   1.321   1.288
16193WAT      O48820   8.738   4.388   5.320
16193WAT     H148821   8.814   4.454   5.317
16193WAT     H248822   8.724   4.359   5.414
16194WAT      O48823   2.373   0.818   5.220
16194WAT     H148824   2.458   0.846   5.176
16194WAT     H248825   2.343   0.889   5.283
16195WAT      O48826   3.230   6.406   5.059
16195WAT     H148827   3.153   6.345   5.079
16195WAT     H248828   3.313   6.368   5.100
16196WAT      O48829   2.978   3.590   0.692
16196WAT     H148830   3.044   3.531   0.738
16196WAT     H248831   2.959   3.670   0.749
16197WAT      O48832   5.178   5.889   6.232
16197WAT     H148833   5.217   5.923   6.146
16197WAT     H248834   5.162   5.790   6.225
16198WAT      O48835   6.231   6.785   3.624
16198WAT     H148836   6.216   6.688   3.641
16198WAT     H248837   6.265   6.828   3.708
16199WAT      O48838   7.346   0.864   7.838
16199WAT     H148839   7.384   0.834   7.926
16199WAT     H248840   7.267   0.923   7.855
16200WAT      O48841   0.463   6.084   2.811
16200WAT     H148842   0.545   6.076   2.755
16200WAT     H248843   0.438   5.994   2.847
16201WAT      O48844   8.003   0.938   3.766
16201WAT     H148845   8.084   0.994   3.786
16201WAT     H248846   7.979   0.884   3.847
16202WAT      O48847   4.565   2.931   5.888
16202WAT     H148848   4.558   2.835   5.863
16202WAT     H248849   4.521   2.946   5.977
16203WAT      O48850   6.989   4.526   7.505
16203WAT     H148851   7.049   4.557   7.579
16203WAT     H248852   7.025   4.556   7.417
16204WAT      O48853   1.565   1.671   0.217
16204WAT     H148854   1.488   1.685   0.280
16204WAT     H248855   1.588   1.757   0.173
16205WAT      O48856   1.484   2.499   3.311
16205WAT     H148857   1.409   2.508   3.245
16205WAT     H248858   1.477   2.410   3.356
16206WAT      O48859   9.668   0.689   3.428
16206WAT     H148860   9.618   0.605   3.453
16206WAT     H248861   9.620   0.768   3.464
16207WAT      O48862   1.187   3.319   5.613
16207WAT     H148863   1.261   3.314   5.546
16207WAT     H248864   1.123   3.392   5.588
16208WAT      O48865   9.795   9.243   1.590
16208WAT     H148866   9.888   9.207   1.600
16208WAT     H248867   9.790   9.335   1.630
16209WAT      O48868   2.598   3.494   9.379
16209WAT     H148869   2.570   3.467   9.471
16209WAT     H248870   2.547   3.440   9.312
16210WAT      O48871   1.061   0.768   7.695
16210WAT     H148872   1.118   0.817   7.762
16210WAT     H248873   1.118   0.711   7.637
16211WAT      O48874   8.668   4.673   6.559
16211WAT     H148875   8.595   4.728   6.519
16211WAT     H248876   8.651   4.661   6.657
16212WAT      O48877   5.440   1.494   4.829
16212WAT     H148878   5.530   1.538   4.833
16212WAT     H248879   5.368   1.563   4.840
16213WAT      O48880   7.048   5.173   9.468
16213WAT     H148881   7.023   5.085   9.508
16213WAT     H248882   6.997   5.187   9.384
16214WAT      O48883   7.597   3.488   2.425
16214WAT     H148884   7.519   3.546   2.447
16214WAT     H248885   7.677   3.521   2.475
16215WAT      O48886   9.424   7.488   9.367
16215WAT     H148887   9.361   7.468   9.292
16215WAT     H248888   9.400   7.434   9.447
16216WAT      O48889   6.712   5.646   8.918
16216WAT     H148890   6.714   5.571   8.852
16216WAT     H248891   6.801   5.654   8.963
16217WAT      O48892   7.270   2.114   0.269
16217WAT     H148893   7.219   2.081   0.189
16217WAT     H248894   7.238   2.206   0.292
16218WAT      O48895   1.791   8.477   5.622
16218WAT     H148896   1.786   8.391   5.673
16218WAT     H248897   1.722   8.477   5.550
16219WAT      O48898   3.515   3.123   2.136
16219WAT     H148899   3.470   3.069   2.065
16219WAT     H248900   3.527   3.217   2.104
16220WAT      O48901   3.201   7.411   6.490
16220WAT     H148902   3.217   7.494   6.436
16220WAT     H248903   3.193   7.436   6.587
16221WAT      O48904   0.394   4.501   9.725
16221WAT     H148905   0.485   4.494   9.683
16221WAT     H248906   0.325   4.467   9.661
16222WAT      O48907   4.987   8.802   7.472
16222WAT     H148908   5.019   8.813   7.566
16222WAT     H248909   4.920   8.729   7.468
16223WAT      O48910   6.449   8.412   6.791
16223WAT     H148911   6.540   8.431   6.828
16223WAT     H248912   6.420   8.321   6.819
16224WAT      O48913   0.202   2.214   5.677
16224WAT     H148914   0.181   2.205   5.580
16224WAT     H248915   0.186   2.309   5.706
16225WAT      O48916   1.729   8.407   0.977
16225WAT     H148917   1.726   8.333   1.044
16225WAT     H248918   1.824   8.431   0.958
16226WAT      O48919   5.051   5.255   5.674
16226WAT     H148920   5.080   5.247   5.578
16226WAT     H248921   5.123   5.218   5.733
16227WAT      O48922   6.040   1.718   3.418
16227WAT     H148923   6.131   1.760   3.422
16227WAT     H248924   5.970   1.788   3.427
16228WAT      O48925   0.166   3.726   2.215
16228WAT     H148926   0.192   3.817   2.183
16228WAT     H248927   0.214   3.705   2.300
16229WAT      O48928   2.084   9.596   0.380
16229WAT     H148929   2.008   9.595   0.446
16229WAT     H248930   2.124   9.688   0.377
16230WAT      O48931   9.874   4.343   2.835
16230WAT     H148932   9.903   4.324   2.742
16230WAT     H248933   9.775   4.327   2.843
16231WAT      O48934   0.108   9.454   8.955
16231WAT     H148935   0.011   9.428   8.956
16231WAT     H248936   0.152   9.415   8.874
16232WAT      O48937   9.218   8.240   9.049
16232WAT     H148938   9.194   8.269   8.957
16232WAT     H248939   9.151   8.173   9.081
16233WAT      O48940   9.320   6.582   9.255
16233WAT     H148941   9.336   6.499   9.202
16233WAT     H248942   9.284   6.558   9.345
16234WAT      O48943   9.613   2.764   6.124
16234WAT     H148944   9.634   2.666   6.125
16234WAT     H248945   9.628   2.800   6.032
16235WAT      O48946   6.234   0.706   0.643
16235WAT     H148947   6.171   0.638   0.607
16235WAT     H248948   6.282   0.668   0.722
16236WAT      O48949   4.179   3.967   6.449
16236WAT     H148950   4.218   3.875   6.445
16236WAT     H248951   4.164   4.001   6.356
16237WAT      O48952   6.749   6.152   8.016
16237WAT     H148953   6.713   6.204   7.939
16237WAT     H248954   6.674   6.108   8.065
16238WAT      O48955   3.644   6.326   9.831
16238WAT     H148956   3.575   6.303   9.763
16238WAT     H248957   3.609   6.303   9.922
16239WAT      O48958   6.253   4.778   9.286
16239WAT     H148959   6.276   4.816   9.196
16239WAT     H248960   6.313   4.700   9.305
16240WAT      O48961   7.611   5.283   3.908
16240WAT     H148962   7.635   5.188   3.887
16240WAT     H248963   7.635   5.342   3.831
16241WAT      O48964   2.589   9.568   9.181
16241WAT     H148965   2.642   9.500   9.131
16241WAT     H248966   2.642   9.653   9.187
16242WAT      O48967   8.752   4.408   3.761
16242WAT     H148968   8.788   4.441   3.674
16242WAT     H248969   8.741   4.309   3.756
16243WAT      O48970   1.007   9.738   5.798
16243WAT     H148971   1.031   9.795   5.877
16243WAT     H248972   0.924   9.774   5.755
16244WAT      O48973   1.629   6.494   5.217
16244WAT     H148974   1.653   6.562   5.287
16244WAT     H248975   1.587   6.540   5.139
16245WAT      O48976   9.510   7.806   3.786
16245WAT     H148977   9.509   7.828   3.883
16245WAT     H248978   9.514   7.706   3.775
16246WAT      O48979   2.766   3.550   5.813
16246WAT     H148980   2.822   3.605   5.751
16246WAT     H248981   2.766   3.455   5.782
16247WAT      O48982   6.225   9.833   2.197
16247WAT     H148983   6.312   9.850   2.151
16247WAT     H248984   6.163   9.786   2.134
16248WAT      O48985   6.570   5.700   9.201
16248WAT     H148986   6.491   5.646   9.173
16248WAT     H248987   6.613   5.740   9.121
16249WAT      O48988   0.927   5.202   8.479
16249WAT     H148989   0.937   5.293   8.519
16249WAT     H248990   0.944   5.207   8.380
16250WAT      O48991   2.539   9.043   1.437
16250WAT     H148992   2.552   9.124   1.494
16250WAT     H248993   2.442   9.036   1.412
16251WAT      O48994   4.283   6.496   7.665
16251WAT     H148995   4.268   6.477   7.762
16251WAT     H248996   4.320   6.588   7.654
16252WAT      O48997   5.661   3.268   9.873
16252WAT     H148998   5.572   3.241   9.909
16252WAT     H248999   5.728   3.271   9.948
16253WAT      O49000   5.185   5.057   7.593
16253WAT     H149001   5.191   4.960   7.616
16253WAT     H249002   5.100   5.074   7.542
16254WAT      O49003   3.988   8.676   2.076
16254WAT     H149004   3.993   8.754   2.138
16254WAT     H249005   3.894   8.641   2.074
16255WAT      O49006   6.054   9.586   4.375
16255WAT     H149007   5.974   9.546   4.329
16255WAT     H249008   6.105   9.642   4.310
16256WAT      O49009   7.230   7.651   8.269
16256WAT     H149010   7.285   7.730   8.297
16256WAT     H249011   7.290   7.571   8.259
16257WAT      O49012   5.848   6.370   0.198
16257WAT     H149013   5.750   6.368   0.219
16257WAT     H249014   5.884   6.277   0.201
16258WAT      O49015   9.744   4.017   5.861
16258WAT     H149016   9.837   4.025   5.897
16258WAT     H249017   9.678   4.044   5.932
16259WAT      O49018   7.770   5.397   6.146
16259WAT     H149019   7.688   5.388   6.090
16259WAT     H249020   7.748   5.449   6.229
16260WAT      O49021   2.066   7.817   6.636
16260WAT     H149022   2.100   7.729   6.602
16260WAT     H249023   2.135   7.888   6.622
16261WAT      O49024   9.062   7.583   8.228
16261WAT     H149025   9.142   7.643   8.233
16261WAT     H249026   9.067   7.527   8.146
16262WAT      O49027   5.686   2.112   9.322
16262WAT     H149028   5.746   2.148   9.393
16262WAT     H249029   5.740   2.083   9.243
16263WAT      O49030   1.790   3.427   4.044
16263WAT     H149031   1.877   3.410   3.998
16263WAT     H249032   1.800   3.501   4.110
16264WAT      O49033   0.676   4.422   6.756
16264WAT     H149034   0.623   4.406   6.673
16264WAT     H249035   0.755   4.361   6.758
16265WAT      O49036   9.059   3.131   2.048
16265WAT     H149037   9.030   3.041   2.015
16265WAT     H249038   9.060   3.131   2.148
16266WAT      O49039   7.576   1.411   8.784
16266WAT     H149040   7.674   1.401   8.803
16266WAT     H249041   7.552   1.508   8.783
16267WAT      O49042   7.275   6.439   1.111
16267WAT     H149043   7.343   6.381   1.067
16267WAT     H249044   7.184   6.417   1.075
16268WAT      O49045   7.416   5.773   5.712
16268WAT     H149046   7.392   5.746   5.619
16268WAT     H249047   7.512   5.752   5.729
16269WAT      O49048   8.823   9.352   8.915
16269WAT     H149049   8.869   9.287   8.976
16269WAT     H249050   8.891   9.398   8.859
16270WAT      O49051   5.984   6.989   4.881
16270WAT     H149052   5.998   6.894   4.907
16270WAT     H249053   6.014   7.003   4.787
16271WAT      O49054   5.285   1.697   3.254
16271WAT     H149055   5.327   1.683   3.343
16271WAT     H249056   5.331   1.639   3.186
16272WAT      O49057   4.689   7.025   8.321
16272WAT     H149058   4.594   7.056   8.324
16272WAT     H249059   4.743   7.077   8.387
16273WAT      O49060   3.185   6.266   4.777
16273WAT     H149061   3.145   6.303   4.861
16273WAT     H249062   3.124   6.285   4.700
16274WAT      O49063   8.024   9.172   8.046
16274WAT     H149064   8.119   9.190   8.021
16274WAT     H249065   7.984   9.110   7.978
16275WAT      O49066   8.167   9.506   7.221
16275WAT     H149067   8.093   9.449   7.255
16275WAT     H249068   8.205   9.561   7.296
16276WAT      O49069   9.438   9.396   5.761
16276WAT     H149070   9.429   9.442   5.673
16276WAT     H249071   9.404   9.302   5.753
16277WAT      O49072   7.994   6.636   7.617
16277WAT     H149073   7.924   6.686   7.667
16277WAT     H249074   8.040   6.697   7.553
16278WAT      O49075   2.528   1.152   3.592
16278WAT     H149076   2.523   1.193   3.683
16278WAT     H249077   2.452   1.088   3.580
16279WAT      O49078   6.096   7.360   7.823
16279WAT     H149079   6.069   7.420   7.898
16279WAT     H249080   6.074   7.265   7.846
16280WAT      O49081   4.438   0.483   2.009
16280WAT     H149082   4.504   0.409   1.994
16280WAT     H249083   4.346   0.446   2.004
16281WAT      O49084   5.133   3.728   4.412
16281WAT     H149085   5.116   3.630   4.422
16281WAT     H249086   5.047   3.777   4.424
16282WAT      O49087   6.698   2.903   1.179
16282WAT     H149088   6.771   2.954   1.225
16282WAT     H249089   6.709   2.913   1.080
16283WAT      O49090   6.016   3.882   7.484
16283WAT     H149091   5.933   3.917   7.527
16283WAT     H249092   6.037   3.791   7.520
16284WAT      O49093   1.931   2.673   4.684
16284WAT     H149094   2.024   2.652   4.714
16284WAT     H249095   1.867   2.654   4.758
16285WAT      O49096   9.350   3.917   9.649
16285WAT     H149097   9.277   3.936   9.583
16285WAT     H249098   9.388   4.004   9.682
16286WAT      O49099   2.989   1.281   3.858
16286WAT     H149100   3.049   1.342   3.806
16286WAT     H249101   3.036   1.195   3.875
16287WAT      O49102   4.133   2.322   8.242
16287WAT     H149103   4.135   2.379   8.159
16287WAT     H249104   4.227   2.294   8.265
16288WAT      O49105   4.406   1.586   2.450
16288WAT     H149106   4.322   1.632   2.480
16288WAT     H249107   4.381   1.508   2.392
16289WAT      O49108   0.215   6.517   9.028
16289WAT     H149109   0.194   6.581   9.103
16289WAT     H249110   0.314   6.506   9.020
16290WAT      O49111   1.570   0.074   3.891
16290WAT     H149112   1.568   0.169   3.860
16290WAT     H249113   1.476   0.042   3.908
16291WAT      O49114   7.904   3.338   4.735
16291WAT     H149115   7.986   3.326   4.679
16291WAT     H249116   7.826   3.297   4.689
16292WAT      O49117   0.380   3.570   5.251
16292WAT     H149118   0.388   3.569   5.151
16292WAT     H249119   0.384   3.664   5.283
16293WAT      O49120   5.381   9.389   4.251
16293WAT     H149121   5.325   9.439   4.317
16293WAT     H249122   5.366   9.427   4.160
16294WAT      O49123   9.382   1.637   3.346
16294WAT     H149124   9.335   1.623   3.259
16294WAT     H249125   9.477   1.606   3.338
16295WAT      O49126   8.652   7.332   4.299
16295WAT     H149127   8.583   7.259   4.305
16295WAT     H249128   8.667   7.356   4.204
16296WAT      O49129   8.739   8.933   5.184
16296WAT     H149130   8.779   9.020   5.211
16296WAT     H249131   8.810   8.862   5.182
16297WAT      O49132   4.003   8.682   9.882
16297WAT     H149133   3.905   8.672   9.864
16297WAT     H249134   4.023   8.777   9.906
16298WAT      O49135   1.548   8.318   5.208
16298WAT     H149136   1.560   8.222   5.183
16298WAT     H249137   1.460   8.351   5.173
16299WAT      O49138   2.016   9.623   3.951
16299WAT     H149139   1.942   9.677   3.991
16299WAT     H249140   1.984   9.580   3.866
16300WAT      O49141   6.197   3.029   3.188
16300WAT     H149142   6.214   3.028   3.287
16300WAT     H249143   6.195   2.935   3.154
16301WAT      O49144   7.198   3.476   0.249
16301WAT     H149145   7.184   3.377   0.247
16301WAT     H249146   7.266   3.498   0.319
16302WAT      O49147   7.107   9.304   8.191
16302WAT     H149148   7.155   9.297   8.279
16302WAT     H249149   7.020   9.351   8.204
16303WAT      O49150   8.649   3.647   4.102
16303WAT     H149151   8.641   3.606   4.193
16303WAT     H249152   8.559   3.675   4.070
16304WAT      O49153   8.400   4.488   8.216
16304WAT     H149154   8.393   4.414   8.148
16304WAT     H249155   8.491   4.486   8.258
16305WAT      O49156   8.800   5.485   4.524
16305WAT     H149157   8.707   5.463   4.554
16305WAT     H249158   8.797   5.526   4.432
16306WAT      O49159   9.338   7.033   1.887
16306WAT     H149160   9.437   7.045   1.898
16306WAT     H249161   9.321   6.960   1.821
16307WAT      O49162   0.343   2.476   9.884
16307WAT     H149163   0.380   2.450   9.795
16307WAT     H249164   0.325   2.394   9.938
16308WAT      O49165   9.303   9.292   5.128
16308WAT     H149166   9.217   9.257   5.090
16308WAT     H249167   9.305   9.392   5.120
16309WAT      O49168   1.572   0.892   7.737
16309WAT     H149169   1.556   0.810   7.791
16309WAT     H249170   1.604   0.866   7.646
16310WAT      O49171   0.576   2.268   3.633
16310WAT     H149172   0.609   2.362   3.638
16310WAT     H249173   0.520   2.256   3.551
16311WAT      O49174   5.081   2.197   5.375
16311WAT     H149175   5.137   2.235   5.450
16311WAT     H249176   4.993   2.167   5.412
16312WAT      O49177   4.602   0.408   7.805
16312WAT     H149178   4.533   0.474   7.834
16312WAT     H249179   4.558   0.331   7.760
16313WAT      O49180   7.454   1.993   3.016
16313WAT     H149181   7.354   1.994   3.025
16313WAT     H249182   7.493   1.933   3.085
16314WAT      O49183   4.272   5.924   7.781
16314WAT     H149184   4.304   5.883   7.866
16314WAT     H249185   4.273   5.855   7.708
16315WAT      O49186   5.377   7.682   8.509
16315WAT     H149187   5.401   7.586   8.502
16315WAT     H249188   5.459   7.736   8.529
16316WAT      O49189   1.624   2.532   7.927
16316WAT     H149190   1.604   2.460   7.994
16316WAT     H249191   1.723   2.543   7.919
16317WAT      O49192   7.799   4.710   3.125
16317WAT     H149193   7.765   4.625   3.086
16317WAT     H249194   7.889   4.695   3.167
16318WAT      O49195   4.900   1.540   5.310
16318WAT     H149196   4.857   1.630   5.296
16318WAT     H249197   4.979   1.532   5.251
16319WAT      O49198   2.596   3.477   2.255
16319WAT     H149199   2.619   3.381   2.266
16319WAT     H249200   2.551   3.491   2.167
16320WAT      O49201   5.809   8.250   7.697
16320WAT     H149202   5.789   8.207   7.609
16320WAT     H249203   5.747   8.327   7.711
16321WAT      O49204   7.676   8.168   2.122
16321WAT     H149205   7.768   8.192   2.154
16321WAT     H249206   7.628   8.119   2.195
16322WAT      O49207   6.261   2.851   3.895
16322WAT     H149208   6.308   2.805   3.970
16322WAT     H249209   6.241   2.786   3.822
16323WAT      O49210   1.726   5.889   6.386
16323WAT     H149211   1.754   5.979   6.353
16323WAT     H249212   1.626   5.884   6.391
16324WAT      O49213   2.459   8.427   8.021
16324WAT     H149214   2.376   8.408   8.074
16324WAT     H249215   2.537   8.382   8.064
16325WAT      O49216   7.846   5.571   8.240
16325WAT     H149217   7.910   5.530   8.176
16325WAT     H249218   7.786   5.636   8.192
16326WAT      O49219   9.695   1.324   5.116
16326WAT     H149220   9.689   1.234   5.073
16326WAT     H249221   9.716   1.393   5.047
16327WAT      O49222   0.992   2.966   6.592
16327WAT     H149223   0.931   2.954   6.514
16327WAT     H249224   1.083   2.992   6.560
16328WAT      O49225   5.906   2.400   0.336
16328WAT     H149226   5.992   2.355   0.358
16328WAT     H249227   5.921   2.498   0.325
16329WAT      O49228   6.721   8.173   0.792
16329WAT     H149229   6.713   8.092   0.734
16329WAT     H249230   6.794   8.159   0.859
16330WAT      O49231   8.598   1.647   7.612
16330WAT     H149232   8.697   1.637   7.617
16330WAT     H249233   8.555   1.566   7.651
16331WAT      O49234   1.203   5.666   5.554
16331WAT     H149235   1.246   5.717   5.627
16331WAT     H249236   1.117   5.626   5.586
16332WAT      O49237   0.614   7.345   1.004
16332WAT     H149238   0.673   7.394   1.069
16332WAT     H249239   0.625   7.247   1.016
16333WAT      O49240   9.529   9.709   2.360
16333WAT     H149241   9.432   9.698   2.338
16333WAT     H249242   9.546   9.681   2.454
16334WAT      O49243   4.881   4.782   2.538
16334WAT     H149244   4.952   4.715   2.519
16334WAT     H249245   4.916   4.874   2.524
16335WAT      O49246   2.566   8.425   2.096
16335WAT     H149247   2.629   8.468   2.160
16335WAT     H249248   2.617   8.385   2.020
16336WAT      O49249   6.374   4.224   1.906
16336WAT     H149250   6.290   4.171   1.890
16336WAT     H249251   6.436   4.171   1.965
16337WAT      O49252   5.273   2.948   3.685
16337WAT     H149253   5.202   2.891   3.644
16337WAT     H249254   5.361   2.928   3.643
16338WAT      O49255   0.030   8.387   1.292
16338WAT     H149256   0.107   8.448   1.274
16338WAT     H249257   0.034   8.356   1.387
16339WAT      O49258   3.461   0.628   9.588
16339WAT     H149259   3.416   0.666   9.669
16339WAT     H249260   3.516   0.549   9.614
16340WAT      O49261   1.925   5.777   2.203
16340WAT     H149262   1.851   5.735   2.257
16340WAT     H249263   1.914   5.754   2.107
16341WAT      O49264   5.101   7.360   5.263
16341WAT     H149265   5.107   7.285   5.328
16341WAT     H249266   5.116   7.325   5.170
16342WAT      O49267   0.518   7.080   3.731
16342WAT     H149268   0.595   7.068   3.668
16342WAT     H249269   0.543   7.145   3.802
16343WAT      O49270   5.028   8.369   6.559
16343WAT     H149271   5.112   8.418   6.581
16343WAT     H249272   5.031   8.278   6.600
16344WAT      O49273   7.963   7.823   6.735
16344WAT     H149274   7.940   7.815   6.832
16344WAT     H249275   7.880   7.849   6.683
16345WAT      O49276   1.368   0.301   8.875
16345WAT     H149277   1.442   0.343   8.822
16345WAT     H249278   1.325   0.228   8.821
16346WAT      O49279   0.721   2.993   2.831
16346WAT     H149280   0.786   3.068   2.832
16346WAT     H249281   0.752   2.923   2.766
16347WAT      O49282   5.241   8.762   1.127
16347WAT     H149283   5.163   8.701   1.112
16347WAT     H249284   5.207   8.853   1.151
16348WAT      O49285   9.305   2.445   6.567
16348WAT     H149286   9.277   2.445   6.662
16348WAT     H249287   9.261   2.369   6.518
16349WAT      O49288   5.926   2.684   3.143
16349WAT     H149289   5.940   2.600   3.091
16349WAT     H249290   5.838   2.679   3.191
16350WAT      O49291   3.714   9.450   4.478
16350WAT     H149292   3.737   9.472   4.573
16350WAT     H249293   3.617   9.470   4.462
16351WAT      O49294   2.432   7.866   3.906
16351WAT     H149295   2.495   7.921   3.960
16351WAT     H249296   2.418   7.908   3.816
16352WAT      O49297   3.559   0.407   1.695
16352WAT     H149298   3.493   0.344   1.653
16352WAT     H249299   3.619   0.445   1.624
16353WAT      O49300   9.227   6.161   3.062
16353WAT     H149301   9.324   6.168   3.085
16353WAT     H249302   9.194   6.069   3.084
16354WAT      O49303   1.080   3.282   9.499
16354WAT     H149304   1.178   3.265   9.489
16354WAT     H249305   1.037   3.287   9.409
16355WAT      O49306   8.364   6.977   6.847
16355WAT     H149307   8.462   6.958   6.852
16355WAT     H249308   8.329   6.995   6.939
16356WAT      O49309   5.878   7.225   3.167
16356WAT     H149310   5.791   7.251   3.210
16356WAT     H249311   5.937   7.182   3.235
16357WAT      O49312   2.437   1.165   4.984
16357WAT     H149313   2.431   1.231   4.910
16357WAT     H249314   2.450   1.073   4.947
16358WAT      O49315   9.854   5.550   3.127
16358WAT     H149316   9.884   5.485   3.197
16358WAT     H249317   9.858   5.643   3.165
16359WAT      O49318   6.629   3.390   4.245
16359WAT     H149319   6.594   3.311   4.297
16359WAT     H249320   6.606   3.379   4.149
16360WAT      O49321   3.578   2.949   1.597
16360WAT     H149322   3.535   2.863   1.569
16360WAT     H249323   3.671   2.953   1.560
16361WAT      O49324   3.887   5.677   8.409
16361WAT     H149325   3.796   5.636   8.401
16361WAT     H249326   3.889   5.739   8.488
16362WAT      O49327   0.461   5.318   6.922
16362WAT     H149328   0.543   5.262   6.907
16362WAT     H249329   0.381   5.267   6.891
16363WAT      O49330   3.149   9.257   6.579
16363WAT     H149331   3.068   9.309   6.606
16363WAT     H249332   3.125   9.161   6.568
16364WAT      O49333   7.598   2.512   6.279
16364WAT     H149334   7.636   2.496   6.188
16364WAT     H249335   7.650   2.461   6.347
16365WAT      O49336   7.945   4.699   8.904
16365WAT     H149337   7.906   4.785   8.937
16365WAT     H249338   7.933   4.694   8.805
16366WAT      O49339   1.338   1.476   4.278
16366WAT     H149340   1.416   1.497   4.337
16366WAT     H249341   1.254   1.480   4.331
16367WAT      O49342   1.452   3.271   7.498
16367WAT     H149343   1.475   3.360   7.457
16367WAT     H249344   1.423   3.208   7.426
16368WAT      O49345   0.321   5.177   7.625
16368WAT     H149346   0.384   5.254   7.633
16368WAT     H249347   0.256   5.194   7.550
16369WAT      O49348   6.175   6.350   9.668
16369WAT     H149349   6.249   6.399   9.715
16369WAT     H249350   6.213   6.282   9.606
16370WAT      O49351   0.692   7.513   8.027
16370WAT     H149352   0.738   7.600   8.010
16370WAT     H249353   0.728   7.443   7.965
16371WAT      O49354   6.310   1.848   9.251
16371WAT     H149355   6.332   1.842   9.349
16371WAT     H249356   6.242   1.919   9.236
16372WAT      O49357   0.879   7.914   3.178
16372WAT     H149358   0.920   7.884   3.091
16372WAT     H249359   0.948   7.910   3.250
16373WAT      O49360   5.579   7.669   6.614
16373WAT     H149361   5.637   7.600   6.658
16373WAT     H249362   5.596   7.669   6.516
16374WAT      O49363   7.989   3.057   4.858
16374WAT     H149364   7.950   3.146   4.834
16374WAT     H249365   8.081   3.070   4.894
16375WAT      O49366   9.223   5.528   8.304
16375WAT     H149367   9.138   5.512   8.254
16375WAT     H249368   9.206   5.593   8.378
16376WAT      O49369   1.619   3.509   6.310
16376WAT     H149370   1.562   3.428   6.325
16376WAT     H249371   1.691   3.512   6.379
16377WAT      O49372   2.934   2.441   6.537
16377WAT     H149373   2.891   2.448   6.628
16377WAT     H249374   3.032   2.424   6.548
16378WAT      O49375   4.944   9.336   1.705
16378WAT     H149376   5.034   9.296   1.691
16378WAT     H249377   4.887   9.318   1.625
16379WAT      O49378   9.008   3.580   1.535
16379WAT     H149379   9.090   3.636   1.525
16379WAT     H249380   8.979   3.546   1.446
16380WAT      O49381   8.965   7.178   0.230
16380WAT     H149382   8.971   7.195   0.132
16380WAT     H249383   8.879   7.215   0.265
16381WAT      O49384   4.188   0.983   5.859
16381WAT     H149385   4.092   0.961   5.838
16381WAT     H249386   4.219   1.057   5.798
16382WAT      O49387   3.199   9.397   6.236
16382WAT     H149388   3.157   9.486   6.253
16382WAT     H249389   3.243   9.365   6.320
16383WAT      O49390   2.575   8.854   5.372
16383WAT     H149391   2.642   8.781   5.355
16383WAT     H249392   2.524   8.873   5.288
16384WAT      O49393   4.323   4.083   1.949
16384WAT     H149394   4.236   4.131   1.934
16384WAT     H249395   4.376   4.131   2.019
16385WAT      O49396   8.033   0.431   7.227
16385WAT     H149397   8.129   0.407   7.214
16385WAT     H249398   7.976   0.349   7.217
16386WAT      O49399   3.859   5.652   7.569
16386WAT     H149400   3.891   5.602   7.488
16386WAT     H249401   3.922   5.728   7.587
16387WAT      O49402   9.508   0.474   3.452
16387WAT     H149403   9.468   0.521   3.374
16387WAT     H249404   9.449   0.398   3.479
16388WAT      O49405   4.691   0.859   2.742
16388WAT     H149406   4.658   0.951   2.722
16388WAT     H249407   4.725   0.816   2.659
16389WAT      O49408   0.899   0.555   1.848
16389WAT     H149409   0.990   0.573   1.885
16389WAT     H249410   0.907   0.505   1.762
16390WAT      O49411   6.193   3.788   1.911
16390WAT     H149412   6.149   3.751   1.992
16390WAT     H249413   6.290   3.763   1.911
16391WAT      O49414   3.230   3.928   6.033
16391WAT     H149415   3.215   3.864   5.959
16391WAT     H249416   3.145   3.943   6.083
16392WAT      O49417   9.870   2.106   8.783
16392WAT     H149418   9.890   2.017   8.742
16392WAT     H249419   9.857   2.174   8.711
16393WAT      O49420   2.017   9.709   7.075
16393WAT     H149421   2.004   9.756   6.988
16393WAT     H249422   2.058   9.619   7.060
16394WAT      O49423   6.640   5.061   0.685
16394WAT     H149424   6.587   5.129   0.635
16394WAT     H249425   6.581   4.986   0.713
16395WAT      O49426   9.759   3.216   1.304
16395WAT     H149427   9.719   3.258   1.222
16395WAT     H249428   9.757   3.117   1.295
16396WAT      O49429   4.159   5.537   2.999
16396WAT     H149430   4.121   5.512   3.088
16396WAT     H249431   4.166   5.455   2.941
16397WAT      O49432   7.046   0.002   0.784
16397WAT     H149433   7.137  -0.003   0.743
16397WAT     H249434   7.018   0.097   0.792
16398WAT      O49435   1.679   8.238   8.034
16398WAT     H149436   1.729   8.161   8.074
16398WAT     H249437   1.596   8.204   7.990
16399WAT      O49438   2.370   0.048   4.730
16399WAT     H149439   2.458   0.084   4.699
16399WAT     H249440   2.311   0.123   4.759
16400WAT      O49441   7.993   7.387   5.853
16400WAT     H149442   7.905   7.412   5.814
16400WAT     H249443   8.055   7.359   5.780
16401WAT      O49444   6.759   4.069   5.374
16401WAT     H149445   6.840   4.012   5.357
16401WAT     H249446   6.721   4.099   5.286
16402WAT      O49447   7.605   5.918   8.998
16402WAT     H149448   7.646   5.841   9.045
16402WAT     H249449   7.529   5.954   9.052
16403WAT      O49450   7.522   5.827   7.292
16403WAT     H149451   7.429   5.865   7.290
16403WAT     H249452   7.535   5.775   7.376
16404WAT      O49453   2.547   4.531   4.204
16404WAT     H149454   2.483   4.570   4.137
16404WAT     H249455   2.571   4.601   4.272
16405WAT      O49456   4.559   0.696   5.921
16405WAT     H149457   4.620   0.617   5.935
16405WAT     H249458   4.533   0.734   6.009
16406WAT      O49459   3.776   5.068   9.212
16406WAT     H149460   3.795   5.160   9.179
16406WAT     H249461   3.715   5.073   9.291
16407WAT      O49462   4.614   2.120   1.425
16407WAT     H149463   4.697   2.074   1.457
16407WAT     H249464   4.633   2.217   1.412
16408WAT      O49465   5.426   2.069   6.285
16408WAT     H149466   5.372   2.138   6.237
16408WAT     H249467   5.514   2.058   6.238
16409WAT      O49468   7.388   0.421   6.436
16409WAT     H149469   7.421   0.450   6.526
16409WAT     H249470   7.330   0.340   6.446
16410WAT      O49471   9.778   6.873   0.124
16410WAT     H149472   9.870   6.861   0.087
16410WAT     H249473   9.751   6.791   0.175
16411WAT      O49474   6.912   7.139   0.183
16411WAT     H149475   6.896   7.208   0.253
16411WAT     H249476   7.009   7.134   0.162
16412WAT      O49477   0.029   4.758   4.692
16412WAT     H149478   0.054   4.661   4.700
16412WAT     H249479   0.096   4.805   4.635
16413WAT      O49480   8.384   1.123   6.681
16413WAT     H149481   8.455   1.147   6.748
16413WAT     H249482   8.294   1.130   6.724
16414WAT      O49483   9.866   8.418   8.133
16414WAT     H149484   9.895   8.323   8.140
16414WAT     H249485   9.821   8.433   8.045
16415WAT      O49486   2.951   7.751   0.183
16415WAT     H149487   2.934   7.709   0.095
16415WAT     H249488   3.047   7.738   0.209
16416WAT      O49489   2.637   1.477   5.052
16416WAT     H149490   2.681   1.423   4.980
16416WAT     H249491   2.624   1.571   5.020
16417WAT      O49492   0.555   7.854   9.511
16417WAT     H149493   0.487   7.887   9.445
16417WAT     H249494   0.544   7.756   9.524
16418WAT      O49495   7.740   4.864   3.566
16418WAT     H149496   7.671   4.808   3.520
16418WAT     H249497   7.802   4.903   3.498
16419WAT      O49498   1.233   3.791   2.141
16419WAT     H149499   1.329   3.775   2.116
16419WAT     H249500   1.174   3.768   2.064
16420WAT      O49501   2.950   4.379   9.381
16420WAT     H149502   2.943   4.464   9.329
16420WAT     H249503   3.034   4.381   9.436
16421WAT      O49504   4.339   0.165   2.405
16421WAT     H149505   4.404   0.163   2.481
16421WAT     H249506   4.388   0.173   2.319
16422WAT      O49507   9.766   6.275   7.945
16422WAT     H149508   9.729   6.215   7.874
16422WAT     H249509   9.827   6.223   8.005
16423WAT      O49510   2.051   7.717   2.075
16423WAT     H149511   2.010   7.662   2.148
16423WAT     H249512   1.979   7.765   2.025
16424WAT      O49513   5.027   7.001   2.666
16424WAT     H149514   5.035   6.961   2.757
16424WAT     H249515   5.057   6.934   2.598
16425WAT      O49516   8.085   0.621   9.467
16425WAT     H149517   8.180   0.602   9.491
16425WAT     H249518   8.041   0.537   9.437
16426WAT      O49519   5.193   8.596   2.961
16426WAT     H149520   5.185   8.512   3.016
16426WAT     H249521   5.112   8.607   2.904
16427WAT      O49522   9.565   4.712   1.046
16427WAT     H149523   9.619   4.714   1.130
16427WAT     H249524   9.491   4.780   1.052
16428WAT      O49525   5.197   8.568   2.149
16428WAT     H149526   5.283   8.612   2.174
16428WAT     H249527   5.122   8.611   2.199
16429WAT      O49528   4.732   7.589   9.498
16429WAT     H149529   4.705   7.648   9.421
16429WAT     H249530   4.650   7.547   9.537
16430WAT      O49531   2.352   5.546   8.039
16430WAT     H149532   2.431   5.604   8.057
16430WAT     H249533   2.274   5.604   8.012
16431WAT      O49534   2.673   0.022   2.042
16431WAT     H149535   2.746   0.090   2.035
16431WAT     H249536   2.606   0.052   2.110
16432WAT      O49537   4.270   2.063   7.694
16432WAT     H149538   4.345   2.041   7.632
16432WAT     H249539   4.213   1.982   7.708
16433WAT      O49540   0.615   3.342   1.154
16433WAT     H149541   0.666   3.385   1.229
16433WAT     H249542   0.517   3.342   1.176
16434WAT      O49543   8.346   4.883   1.371
16434WAT     H149544   8.431   4.855   1.326
16434WAT     H249545   8.319   4.974   1.339
16435WAT      O49546   2.080   1.644   5.274
16435WAT     H149547   2.078   1.651   5.374
16435WAT     H249548   1.986   1.647   5.239
16436WAT      O49549   0.836   8.163   5.045
16436WAT     H149550   0.814   8.170   5.142
16436WAT     H249551   0.913   8.100   5.033
16437WAT      O49552   8.824   8.702   8.328
16437WAT     H149553   8.896   8.699   8.259
16437WAT     H249554   8.752   8.637   8.304
16438WAT      O49555   3.884   3.766   3.887
16438WAT     H149556   3.911   3.798   3.978
16438WAT     H249557   3.928   3.679   3.868
16439WAT      O49558   0.389   9.154   1.959
16439WAT     H149559   0.319   9.084   1.972
16439WAT     H249560   0.451   9.156   2.037
16440WAT      O49561   2.574   3.209   2.226
16440WAT     H149562   2.523   3.181   2.307
16440WAT     H249563   2.579   3.132   2.162
16441WAT      O49564   2.586   3.551   3.789
16441WAT     H149565   2.546   3.481   3.730
16441WAT     H249566   2.535   3.556   3.875
16442WAT      O49567   6.275   5.878   2.299
16442WAT     H149568   6.223   5.863   2.382
16442WAT     H249569   6.272   5.975   2.274
16443WAT      O49570   3.385   7.182   9.440
16443WAT     H149571   3.423   7.090   9.446
16443WAT     H249572   3.290   7.181   9.472
16444WAT      O49573   0.453   1.609   3.318
16444WAT     H149574   0.414   1.560   3.396
16444WAT     H249575   0.549   1.631   3.336
16445WAT      O49576   3.903   8.548   9.554
16445WAT     H149577   3.914   8.474   9.620
16445WAT     H249578   3.910   8.510   9.461
16446WAT      O49579   7.044   8.437   4.431
16446WAT     H149580   7.121   8.442   4.367
16446WAT     H249581   6.960   8.463   4.385
16447WAT      O49582   7.985   6.445   9.001
16447WAT     H149583   7.987   6.527   9.059
16447WAT     H249584   8.079   6.412   8.987
16448WAT      O49585   0.426   0.336   5.654
16448WAT     H149586   0.414   0.237   5.647
16448WAT     H249587   0.478   0.357   5.737
16449WAT      O49588   7.704   9.057   2.963
16449WAT     H149589   7.703   9.150   2.925
16449WAT     H249590   7.691   9.062   3.062
16450WAT      O49591   2.726   0.339   5.790
16450WAT     H149592   2.657   0.266   5.788
16450WAT     H249593   2.807   0.307   5.840
16451WAT      O49594   5.106   9.642   3.803
16451WAT     H149595   5.167   9.583   3.856
16451WAT     H249596   5.048   9.694   3.866
16452WAT      O49597   2.358   6.856   4.812
16452WAT     H149598   2.411   6.866   4.896
16452WAT     H249599   2.277   6.799   4.830
16453WAT      O49600   4.978   2.243   8.610
16453WAT     H149601   4.889   2.273   8.642
16453WAT     H249602   4.966   2.170   8.543
16454WAT      O49603   5.517   5.559   9.461
16454WAT     H149604   5.476   5.619   9.530
16454WAT     H249605   5.611   5.537   9.487
16455WAT      O49606   5.426   6.591   8.566
16455WAT     H149607   5.519   6.611   8.597
16455WAT     H249608   5.361   6.618   8.637
16456WAT      O49609   8.056   6.815   2.029
16456WAT     H149610   8.129   6.841   1.966
16456WAT     H249611   8.085   6.737   2.084
16457WAT      O49612   6.249   8.265   4.234
16457WAT     H149613   6.339   8.303   4.212
16457WAT     H249614   6.194   8.259   4.151
16458WAT      O49615   9.816   5.833   4.197
16458WAT     H149616   9.781   5.908   4.252
16458WAT     H249617   9.769   5.748   4.224
16459WAT      O49618   6.243   7.586   5.874
16459WAT     H149619   6.309   7.587   5.950
16459WAT     H249620   6.255   7.502   5.822
16460WAT      O49621   7.652   6.083   8.135
16460WAT     H149622   7.651   6.099   8.037
16460WAT     H249623   7.579   6.019   8.159
16461WAT      O49624   5.189   6.115   9.743
16461WAT     H149625   5.107   6.065   9.771
16461WAT     H249626   5.166   6.211   9.727
16462WAT      O49627   9.287   8.565   6.982
16462WAT     H149628   9.282   8.548   6.884
16462WAT     H249629   9.204   8.612   7.012
16463WAT      O49630   3.515   8.965   3.802
16463WAT     H149631   3.429   8.955   3.752
16463WAT     H249632   3.516   8.902   3.879
16464WAT      O49633   0.307   8.591   3.869
16464WAT     H149634   0.334   8.614   3.963
16464WAT     H249635   0.381   8.615   3.806
16465WAT      O49636   6.671   9.508   3.483
16465WAT     H149637   6.608   9.484   3.408
16465WAT     H249638   6.712   9.424   3.519
16466WAT      O49639   5.680   0.739   4.172
16466WAT     H149640   5.699   0.724   4.269
16466WAT     H249641   5.635   0.658   4.134
16467WAT      O49642   9.084   2.997   0.771
16467WAT     H149643   9.037   2.920   0.729
16467WAT     H249644   9.154   3.033   0.708
16468WAT      O49645   4.468   1.897   3.618
16468WAT     H149646   4.529   1.910   3.539
16468WAT     H249647   4.411   1.978   3.630
16469WAT      O49648   1.426   0.968   1.327
16469WAT     H149649   1.469   1.058   1.321
16469WAT     H249650   1.490   0.898   1.293
16470WAT      O49651   4.698   7.050   4.581
16470WAT     H149652   4.628   7.115   4.611
16470WAT     H249653   4.789   7.092   4.591
16471WAT      O49654   1.425   9.602   5.989
16471WAT     H149655   1.457   9.598   5.895
16471WAT     H249656   1.352   9.671   5.996
16472WAT      O49657   6.170   3.471   0.121
16472WAT     H149658   6.170   3.373   0.140
16472WAT     H249659   6.083   3.511   0.152
16473WAT      O49660   1.379   3.694   2.554
16473WAT     H149661   1.296   3.693   2.499
16473WAT     H249662   1.451   3.744   2.506
16474WAT      O49663   1.255   8.870   9.686
16474WAT     H149664   1.230   8.777   9.659
16474WAT     H249665   1.314   8.910   9.615
16475WAT      O49666   6.802   6.139   7.318
16475WAT     H149667   6.724   6.108   7.374
16475WAT     H249668   6.794   6.237   7.302
16476WAT      O49669   7.100   6.967   7.860
16476WAT     H149670   7.138   7.050   7.819
16476WAT     H249671   7.026   6.933   7.802
16477WAT      O49672   3.148   1.368   9.451
16477WAT     H149673   3.244   1.342   9.455
16477WAT     H249674   3.140   1.461   9.417
16478WAT      O49675   0.653   5.613   0.643
16478WAT     H149676   0.656   5.521   0.605
16478WAT     H249677   0.743   5.638   0.677
16479WAT      O49678   8.694   9.678   8.725
16479WAT     H149679   8.610   9.649   8.771
16479WAT     H249680   8.691   9.650   8.629
16480WAT      O49681   2.284   1.010   4.603
16480WAT     H149682   2.247   0.928   4.559
16480WAT     H249683   2.254   1.012   4.698
16481WAT      O49684   5.832   0.674   7.551
16481WAT     H149685   5.795   0.761   7.583
16481WAT     H249686   5.778   0.640   7.474
16482WAT      O49687   4.938   2.386   4.639
16482WAT     H149688   5.038   2.386   4.634
16482WAT     H249689   4.904   2.477   4.616
16483WAT      O49690   1.557   7.211   2.482
16483WAT     H149691   1.596   7.138   2.538
16483WAT     H249692   1.560   7.297   2.533
16484WAT      O49693   2.775   1.402   3.723
16484WAT     H149694   2.808   1.426   3.632
16484WAT     H249695   2.835   1.332   3.763
16485WAT      O49696   3.743   7.141   1.346
16485WAT     H149697   3.827   7.130   1.292
16485WAT     H249698   3.722   7.055   1.392
16486WAT      O49699   9.214   4.280   8.435
16486WAT     H149700   9.223   4.373   8.400
16486WAT     H249701   9.192   4.283   8.533
16487WAT      O49702   7.324   2.134   2.793
16487WAT     H149703   7.368   2.064   2.849
16487WAT     H249704   7.258   2.091   2.731
16488WAT      O49705   7.708   9.669   9.207
16488WAT     H149706   7.741   9.731   9.135
16488WAT     H249707   7.609   9.678   9.215
16489WAT      O49708   3.601   8.732   8.439
16489WAT     H149709   3.527   8.798   8.427
16489WAT     H249710   3.670   8.745   8.368
16490WAT      O49711   8.073   0.949   5.604
16490WAT     H149712   8.122   0.891   5.669
16490WAT     H249713   8.054   0.898   5.520
16491WAT      O49714   7.152   7.400   6.593
16491WAT     H149715   7.215   7.336   6.638
16491WAT     H249716   7.061   7.359   6.587
16492WAT      O49717   9.855   5.882   2.396
16492WAT     H149718   9.827   5.938   2.473
16492WAT     H249719   9.798   5.904   2.316
16493WAT      O49720   8.635   5.087   2.710
16493WAT     H149721   8.669   5.060   2.800
16493WAT     H249722   8.545   5.131   2.720
16494WAT      O49723   0.845   2.830   0.141
16494WAT     H149724   0.864   2.861   0.047
16494WAT     H249725   0.914   2.867   0.203
16495WAT      O49726   1.897   3.266   8.327
16495WAT     H149727   1.971   3.333   8.315
16495WAT     H249728   1.856   3.246   8.238
16496WAT      O49729   7.835   0.885   3.330
16496WAT     H149730   7.927   0.865   3.296
16496WAT     H249731   7.767   0.851   3.265
16497WAT      O49732   1.611   5.348   8.748
16497WAT     H149733   1.545   5.278   8.721
16497WAT     H249734   1.665   5.316   8.826
16498WAT      O49735   3.089   3.971   6.744
16498WAT     H149736   3.056   4.035   6.675
16498WAT     H249737   3.166   3.919   6.708
16499WAT      O49738   5.498   1.792   5.572
16499WAT     H149739   5.548   1.872   5.604
16499WAT     H249740   5.507   1.719   5.640
16500WAT      O49741   6.760   6.718   9.742
16500WAT     H149742   6.707   6.733   9.825
16500WAT     H249743   6.700   6.723   9.663
16501WAT      O49744   0.945   7.095   2.043
16501WAT     H149745   1.010   7.058   2.109
16501WAT     H249746   0.990   7.164   1.986
16502WAT      O49747   3.400   2.853   1.372
16502WAT     H149748   3.412   2.774   1.432
16502WAT     H249749   3.303   2.870   1.358
16503WAT      O49750   4.889   9.650   6.182
16503WAT     H149751   4.920   9.745   6.185
16503WAT     H249752   4.909   9.606   6.270
16504WAT      O49753   0.914   6.083   2.453
16504WAT     H149754   0.986   6.145   2.422
16504WAT     H249755   0.840   6.082   2.386
16505WAT      O49756   5.212   3.364   5.405
16505WAT     H149757   5.292   3.421   5.421
16505WAT     H249758   5.234   3.268   5.426
16506WAT      O49759   3.066   7.274   0.312
16506WAT     H149760   3.011   7.268   0.229
16506WAT     H249761   3.020   7.333   0.378
16507WAT      O49762   0.083   0.453   5.285
16507WAT     H149763   0.142   0.390   5.336
16507WAT     H249764   0.093   0.545   5.321
16508WAT      O49765   6.295   7.841   8.673
16508WAT     H149766   6.390   7.872   8.679
16508WAT     H249767   6.279   7.801   8.582
16509WAT      O49768   6.525   3.215   9.281
16509WAT     H149769   6.583   3.146   9.325
16509WAT     H249770   6.534   3.207   9.181
16510WAT      O49771   9.794   1.117   0.158
16510WAT     H149772   9.704   1.079   0.138
16510WAT     H249773   9.811   1.195   0.098
16511WAT      O49774   2.449   4.591   6.490
16511WAT     H149775   2.482   4.648   6.416
16511WAT     H249776   2.392   4.517   6.452
16512WAT      O49777   0.838   1.326   4.425
16512WAT     H149778   0.786   1.409   4.443
16512WAT     H249779   0.780   1.261   4.374
16513WAT      O49780   8.601   2.028   7.942
16513WAT     H149781   8.559   2.001   7.856
16513WAT     H249782   8.696   2.055   7.926
16514WAT      O49783   3.717   1.763   1.785
16514WAT     H149784   3.704   1.862   1.781
16514WAT     H249785   3.652   1.723   1.850
16515WAT      O49786   5.193   5.040   1.468
16515WAT     H149787   5.240   4.959   1.435
16515WAT     H249788   5.107   5.013   1.512
16516WAT      O49789   4.492   9.615   7.179
16516WAT     H149790   4.446   9.703   7.186
16516WAT     H249791   4.428   9.545   7.147
16517WAT      O49792   9.528   8.954   1.393
16517WAT     H149793   9.477   8.960   1.307
16517WAT     H249794   9.487   9.016   1.460
16518WAT      O49795   8.609   4.440   2.248
16518WAT     H149796   8.667   4.366   2.216
16518WAT     H249797   8.513   4.413   2.241
16519WAT      O49798   5.042   4.034   7.593
16519WAT     H149799   5.024   4.121   7.545
16519WAT     H249800   5.136   4.006   7.575
16520WAT      O49801   7.411   9.105   6.541
16520WAT     H149802   7.484   9.043   6.568
16520WAT     H249803   7.346   9.056   6.483
16521WAT      O49804   5.206   5.824   7.945
16521WAT     H149805   5.302   5.810   7.921
16521WAT     H249806   5.148   5.765   7.888
16522WAT      O49807   5.377   1.339   1.150
16522WAT     H149808   5.283   1.314   1.173
16522WAT     H249809   5.402   1.296   1.064
16523WAT      O49810   4.641   9.051   1.968
16523WAT     H149811   4.697   9.032   2.049
16523WAT     H249812   4.559   8.993   1.969
16524WAT      O49813   6.711   1.266   7.561
16524WAT     H149814   6.737   1.277   7.465
16524WAT     H249815   6.774   1.202   7.605
16525WAT      O49816   3.644   4.749   2.431
16525WAT     H149817   3.694   4.821   2.382
16525WAT     H249818   3.618   4.677   2.367
16526WAT      O49819   8.661   5.578   5.027
16526WAT     H149820   8.577   5.524   5.035
16526WAT     H249821   8.702   5.589   5.117
16527WAT      O49822   3.201   8.989   1.871
16527WAT     H149823   3.124   8.952   1.820
16527WAT     H249824   3.277   8.924   1.871
16528WAT      O49825   6.203   0.607   5.159
16528WAT     H149826   6.265   0.530   5.177
16528WAT     H249827   6.193   0.620   5.061
16529WAT      O49828   7.366   1.408   2.665
16529WAT     H149829   7.318   1.371   2.585
16529WAT     H249830   7.300   1.430   2.736
16530WAT      O49831   6.142   0.672   4.913
16530WAT     H149832   6.126   0.771   4.909
16530WAT     H249833   6.056   0.623   4.900
16531WAT      O49834   9.236   3.756   4.586
16531WAT     H149835   9.183   3.833   4.550
16531WAT     H249836   9.303   3.727   4.517
16532WAT      O49837   2.334   2.371   5.306
16532WAT     H149838   2.285   2.385   5.392
16532WAT     H249839   2.385   2.286   5.311
16533WAT      O49840   0.563   3.701   2.147
16533WAT     H149841   0.577   3.765   2.072
16533WAT     H249842   0.551   3.751   2.233
16534WAT      O49843   7.553   1.335   6.386
16534WAT     H149844   7.468   1.326   6.438
16534WAT     H249845   7.609   1.253   6.399
16535WAT      O49846   8.023   0.799   1.220
16535WAT     H149847   7.967   0.730   1.175
16535WAT     H249848   8.012   0.792   1.319
16536WAT      O49849   8.127   3.466   8.857
16536WAT     H149850   8.208   3.442   8.911
16536WAT     H249851   8.084   3.547   8.897
16537WAT      O49852   2.678   3.169   1.325
16537WAT     H149853   2.732   3.177   1.241
16537WAT     H249854   2.612   3.095   1.316
16538WAT      O49855   1.369   1.106   4.621
16538WAT     H149856   1.338   1.198   4.598
16538WAT     H249857   1.452   1.085   4.570
16539WAT      O49858   9.121   2.654   9.549
16539WAT     H149859   9.167   2.595   9.482
16539WAT     H249860   9.187   2.687   9.616
16540WAT      O49861   6.887   8.318   2.408
16540WAT     H149862   6.966   8.344   2.353
16540WAT     H249863   6.834   8.247   2.361
16541WAT      O49864   9.465   3.184   3.137
16541WAT     H149865   9.476   3.247   3.214
16541WAT     H249866   9.446   3.093   3.171
16542WAT      O49867   4.554   5.928   4.437
16542WAT     H149868   4.596   5.996   4.377
16542WAT     H249869   4.547   5.966   4.530
16543WAT      O49870   2.746   2.268   7.230
16543WAT     H149871   2.676   2.256   7.300
16543WAT     H249872   2.784   2.178   7.205
16544WAT      O49873   8.094   6.684   8.192
16544WAT     H149874   8.050   6.596   8.208
16544WAT     H249875   8.027   6.758   8.207
16545WAT      O49876   3.044   1.399   6.042
16545WAT     H149877   3.011   1.466   6.109
16545WAT     H249878   3.138   1.423   6.016
16546WAT      O49879   7.166   2.619   0.204
16546WAT     H149880   7.072   2.634   0.173
16546WAT     H249881   7.229   2.632   0.128
16547WAT      O49882   4.045   2.488   9.570
16547WAT     H149883   3.990   2.405   9.572
16547WAT     H249884   4.015   2.549   9.643
16548WAT      O49885   1.369   0.637   0.683
16548WAT     H149886   1.285   0.668   0.639
16548WAT     H249887   1.410   0.563   0.631
16549WAT      O49888   3.394   6.085   6.881
16549WAT     H149889   3.373   6.022   6.806
16549WAT     H249890   3.424   6.033   6.961
16550WAT      O49891   4.610   4.561   2.394
16550WAT     H149892   4.652   4.619   2.464
16550WAT     H249893   4.515   4.543   2.418
16551WAT      O49894   5.536   4.593   6.258
16551WAT     H149895   5.453   4.562   6.210
16551WAT     H249896   5.516   4.678   6.308
16552WAT      O49897   8.090   3.395   1.897
16552WAT     H149898   8.060   3.478   1.944
16552WAT     H249899   8.177   3.364   1.935
16553WAT      O49900   5.276   2.383   7.004
16553WAT     H149901   5.234   2.382   6.914
16553WAT     H249902   5.209   2.414   7.072
16554WAT      O49903   6.322   5.578   7.306
16554WAT     H149904   6.243   5.610   7.359
16554WAT     H249905   6.394   5.647   7.309
16555WAT      O49906   3.368   8.961   6.906
16555WAT     H149907   3.460   8.979   6.940
16555WAT     H249908   3.314   8.914   6.977
16556WAT      O49909   1.797   4.069   4.404
16556WAT     H149910   1.869   4.108   4.348
16556WAT     H249911   1.708   4.087   4.361
16557WAT      O49912   9.161   3.966   1.534
16557WAT     H149913   9.190   4.061   1.530
16557WAT     H249914   9.088   3.950   1.468
16558WAT      O49915   5.366   2.415   8.400
16558WAT     H149916   5.371   2.362   8.315
16558WAT     H249917   5.271   2.437   8.421
16559WAT      O49918   4.901   4.863   7.468
16559WAT     H149919   4.803   4.854   7.487
16559WAT     H249920   4.935   4.778   7.428
16560WAT      O49921   7.356   5.227   3.569
16560WAT     H149922   7.445   5.208   3.528
16560WAT     H249923   7.310   5.299   3.517
16561WAT      O49924   4.644   5.389   3.564
16561WAT     H149925   4.556   5.404   3.610
16561WAT     H249926   4.718   5.396   3.630
16562WAT      O49927   7.313   7.714   7.270
16562WAT     H149928   7.409   7.686   7.276
16562WAT     H249929   7.260   7.665   7.339
16563WAT      O49930   4.731   9.284   4.789
16563WAT     H149931   4.811   9.343   4.794
16563WAT     H249932   4.693   9.286   4.697
16564WAT      O49933   9.220   7.574   7.571
16564WAT     H149934   9.204   7.480   7.601
16564WAT     H249935   9.141   7.606   7.519
16565WAT      O49936   1.486   6.447   7.253
16565WAT     H149937   1.544   6.398   7.318
16565WAT     H249938   1.394   6.408   7.255
16566WAT      O49939   7.189   8.996   0.148
16566WAT     H149940   7.152   8.936   0.077
16566WAT     H249941   7.152   9.089   0.135
16567WAT      O49942   7.018   2.833   6.438
16567WAT     H149943   6.967   2.853   6.354
16567WAT     H249944   6.955   2.827   6.515
16568WAT      O49945   1.444   2.276   8.948
16568WAT     H149946   1.540   2.296   8.925
16568WAT     H249947   1.440   2.197   9.008
16569WAT      O49948   3.006   3.137   0.205
16569WAT     H149949   2.978   3.167   0.113
16569WAT     H249950   3.017   3.038   0.205
16570WAT      O49951   5.971   9.317   5.729
16570WAT     H149952   6.041   9.386   5.746
16570WAT     H249953   5.974   9.289   5.633
16571WAT      O49954   0.699   7.795   6.154
16571WAT     H149955   0.635   7.819   6.081
16571WAT     H249956   0.745   7.709   6.130
16572WAT      O49957   6.464   4.664   3.079
16572WAT     H149958   6.525   4.626   3.148
16572WAT     H249959   6.370   4.637   3.098
16573WAT      O49960   5.805   1.776   8.144
16573WAT     H149961   5.790   1.695   8.201
16573WAT     H249962   5.755   1.766   8.058
16574WAT      O49963   5.162   5.305   8.993
16574WAT     H149964   5.103   5.267   8.921
16574WAT     H249965   5.127   5.394   9.022
16575WAT      O49966   4.698   8.540   1.337
16575WAT     H149967   4.790   8.500   1.331
16575WAT     H249968   4.656   8.513   1.424
16576WAT      O49969   9.369   1.899   3.383
16576WAT     H149970   9.374   1.800   3.373
16576WAT     H249971   9.462   1.935   3.394
16577WAT      O49972   3.190   4.502   0.398
16577WAT     H149973   3.241   4.537   0.319
16577WAT     H249974   3.119   4.440   0.366
16578WAT      O49975   1.900   1.966   9.506
16578WAT     H149976   1.805   1.952   9.478
16578WAT     H249977   1.929   1.888   9.561
16579WAT      O49978   2.178   6.840   7.937
16579WAT     H149979   2.227   6.786   8.005
16579WAT     H249980   2.170   6.934   7.968
16580WAT      O49981   6.703   9.729   0.554
16580WAT     H149982   6.795   9.723   0.516
16580WAT     H249983   6.654   9.643   0.536
16581WAT      O49984   6.305   3.282   1.870
16581WAT     H149985   6.401   3.293   1.894
16581WAT     H249986   6.297   3.243   1.778
16582WAT      O49987   9.439   5.015   4.334
16582WAT     H149988   9.444   4.987   4.430
16582WAT     H249989   9.413   5.111   4.328
16583WAT      O49990   5.186   9.266   3.679
16583WAT     H149991   5.265   9.324   3.661
16583WAT     H249992   5.104   9.323   3.685
16584WAT      O49993   1.511   5.804   8.153
16584WAT     H149994   1.550   5.713   8.167
16584WAT     H249995   1.412   5.801   8.171
16585WAT      O49996   8.688   6.372   9.743
16585WAT     H149997   8.785   6.357   9.725
16585WAT     H249998   8.649   6.426   9.668
16586WAT      O49999   8.923   1.079   8.446
16586WAT     H150000   8.950   0.988   8.478
16586WAT     H250001   8.864   1.122   8.515
16587WAT      O50002   2.718   6.467   5.023
16587WAT     H150003   2.710   6.370   5.048
16587WAT     H250004   2.810   6.484   4.987
16588WAT      O50005   8.251   6.901   1.862
16588WAT     H150006   8.216   6.906   1.769
16588WAT     H250007   8.269   6.993   1.896
16589WAT      O50008   8.584   3.359   9.298
16589WAT     H150009   8.538   3.271   9.287
16589WAT     H250010   8.598   3.377   9.396
16590WAT      O50011   0.761   4.289   0.285
16590WAT     H150012   0.760   4.268   0.187
16590WAT     H250013   0.734   4.207   0.337
16591WAT      O50014   5.435   6.229   7.979
16591WAT     H150015   5.337   6.214   7.962
16591WAT     H250016   5.479   6.257   7.894
16592WAT      O50017   2.217   6.510   5.974
16592WAT     H150018   2.199   6.600   5.935
16592WAT     H250019   2.221   6.442   5.901
16593WAT      O50020   7.295   7.791   3.972
16593WAT     H150021   7.237   7.872   3.983
16593WAT     H250022   7.248   7.711   4.009
16594WAT      O50023   1.019   7.511   3.756
16594WAT     H150024   0.955   7.521   3.680
16594WAT     H250025   1.103   7.560   3.735
16595WAT      O50026   7.983   7.221   1.889
16595WAT     H150027   7.959   7.147   1.953
16595WAT     H250028   7.900   7.260   1.850
16596WAT      O50029   3.492   0.021   5.089
16596WAT     H150030   3.558  -0.009   5.020
16596WAT     H250031   3.429   0.087   5.049
16597WAT      O50032   5.340   3.252   1.749
16597WAT     H150033   5.425   3.303   1.760
16597WAT     H250034   5.358   3.154   1.763
16598WAT      O50035   2.324   0.241   9.674
16598WAT     H150036   2.233   0.206   9.652
16598WAT     H250037   2.359   0.195   9.756
16599WAT      O50038   7.465   6.175   0.340
16599WAT     H150039   7.540   6.177   0.274
16599WAT     H250040   7.378   6.192   0.292
16600WAT      O50041   3.926   7.769   0.029
16600WAT     H150042   3.992   7.694   0.023
16600WAT     H250043   3.880   7.766   0.118
16601WAT      O50044   3.133   4.469   2.380
16601WAT     H150045   3.225   4.461   2.417
16601WAT     H250046   3.128   4.548   2.318
16602WAT      O50047   9.499   6.785   5.857
16602WAT     H150048   9.430   6.828   5.915
16602WAT     H250049   9.498   6.829   5.767
16603WAT      O50050   4.722   6.500   3.788
16603WAT     H150051   4.634   6.528   3.752
16603WAT     H250052   4.743   6.555   3.870
16604WAT      O50053   2.166   9.168   3.765
16604WAT     H150054   2.234   9.132   3.828
16604WAT     H250055   2.170   9.268   3.764
16605WAT      O50056   2.919   7.611   7.098
16605WAT     H150057   3.002   7.620   7.154
16605WAT     H250058   2.932   7.658   7.011
16606WAT      O50059   3.908   4.865   0.096
16606WAT     H150060   3.929   4.958   0.066
16606WAT     H250061   3.868   4.813   0.020
16607WAT      O50062   5.605   7.845   8.507
16607WAT     H150063   5.667   7.916   8.474
16607WAT     H250064   5.654   7.788   8.574
16608WAT      O50065   1.536   3.491   1.873
16608WAT     H150066   1.546   3.549   1.953
16608WAT     H250067   1.610   3.424   1.870
16609WAT      O50068   0.214   5.112   7.010
16609WAT     H150069   0.152   5.183   6.975
16609WAT     H250070   0.164   5.027   7.023
16610WAT      O50071   5.836   5.638   1.325
16610WAT     H150072   5.813   5.551   1.367
16610WAT     H250073   5.921   5.627   1.272
16611WAT      O50074   7.614   8.529   0.449
16611WAT     H150075   7.603   8.444   0.500
16611WAT     H250076   7.611   8.509   0.351
16612WAT      O50077   3.147   7.862   6.725
16612WAT     H150078   3.218   7.845   6.794
16612WAT     H250079   3.190   7.881   6.637
16613WAT      O50080   3.167   6.449   3.832
16613WAT     H150081   3.101   6.508   3.880
16613WAT     H250082   3.191   6.372   3.891
16614WAT      O50083   6.694   8.698   7.506
16614WAT     H150084   6.637   8.664   7.580
16614WAT     H250085   6.658   8.784   7.472
16615WAT      O50086   2.004   3.889   7.861
16615WAT     H150087   2.013   3.795   7.828
16615WAT     H250088   1.957   3.889   7.950
16616WAT      O50089   5.967   3.511   9.435
16616WAT     H150090   5.912   3.427   9.427
16616WAT     H250091   5.993   3.525   9.530
16617WAT      O50092   1.155   1.299   5.304
16617WAT     H150093   1.142   1.396   5.285
16617WAT     H250094   1.107   1.245   5.235
16618WAT      O50095   3.302   7.279   1.051
16618WAT     H150096   3.383   7.325   1.015
16618WAT     H250097   3.267   7.331   1.129
16619WAT      O50098   2.368   5.659   8.543
16619WAT     H150099   2.327   5.624   8.459
16619WAT     H250100   2.398   5.583   8.600
16620WAT      O50101   6.353   5.382   1.634
16620WAT     H150102   6.366   5.296   1.585
16620WAT     H250103   6.269   5.427   1.602
16621WAT      O50104   2.967   3.945   6.132
16621WAT     H150105   2.941   4.035   6.165
16621WAT     H250106   2.891   3.881   6.145
16622WAT      O50107   8.966   4.920   2.914
16622WAT     H150108   8.882   4.969   2.939
16622WAT     H250109   9.032   4.985   2.877
16623WAT      O50110   9.178   9.693   6.372
16623WAT     H150111   9.203   9.602   6.404
16623WAT     H250112   9.255   9.755   6.383
16624WAT      O50113   4.200   8.720   4.947
16624WAT     H150114   4.132   8.662   4.992
16624WAT     H250115   4.153   8.783   4.884
16625WAT      O50116   6.690   2.710   4.438
16625WAT     H150117   6.773   2.696   4.384
16625WAT     H250118   6.652   2.800   4.416
16626WAT      O50119   9.021   3.892   1.942
16626WAT     H150120   9.028   3.797   1.911
16626WAT     H250121   9.105   3.919   1.988
16627WAT      O50122   1.709   4.712   7.718
16627WAT     H150123   1.740   4.758   7.635
16627WAT     H250124   1.689   4.779   7.789
16628WAT      O50125   4.779   8.041   9.487
16628WAT     H150126   4.870   8.020   9.521
16628WAT     H250127   4.715   8.047   9.564
16629WAT      O50128   1.015   6.552   4.368
16629WAT     H150129   1.063   6.521   4.451
16629WAT     H250130   1.013   6.652   4.367
16630WAT      O50131   5.579   9.277   1.035
16630WAT     H150132   5.554   9.313   0.945
16630WAT     H250133   5.678   9.270   1.042
16631WAT      O50134   9.196   9.213   0.868
16631WAT     H150135   9.162   9.120   0.856
16631WAT     H250136   9.293   9.216   0.844
16632WAT      O50137   9.196   9.640   1.833
16632WAT     H150138   9.193   9.552   1.881
16632WAT     H250139   9.245   9.707   1.889
16633WAT      O50140   9.350   1.550   3.073
16633WAT     H150141   9.316   1.526   2.982
16633WAT     H250142   9.448   1.527   3.079
16634WAT      O50143   3.514   7.289   7.723
16634WAT     H150144   3.470   7.314   7.637
16634WAT     H250145   3.494   7.358   7.792
16635WAT      O50146   1.668   2.287   6.201
16635WAT     H150147   1.673   2.195   6.164
16635WAT     H250148   1.643   2.351   6.129
16636WAT      O50149   9.791   4.342   5.963
16636WAT     H150150   9.754   4.433   5.979
16636WAT     H250151   9.758   4.307   5.875
16637WAT      O50152   6.626   6.743   1.506
16637WAT     H150153   6.535   6.778   1.485
16637WAT     H250154   6.654   6.775   1.597
16638WAT      O50155   9.615   3.193   2.247
16638WAT     H150156   9.643   3.098   2.239
16638WAT     H250157   9.664   3.249   2.180
16639WAT      O50158   7.320   5.073   3.030
16639WAT     H150159   7.378   5.095   3.108
16639WAT     H250160   7.373   5.079   2.945
16640WAT      O50161   2.372   5.452   9.534
16640WAT     H150162   2.433   5.405   9.470
16640WAT     H250163   2.279   5.416   9.524
16641WAT      O50164   8.754   6.074   8.246
16641WAT     H150165   8.706   5.987   8.235
16641WAT     H250166   8.813   6.090   8.167
16642WAT      O50167   1.916   1.331   4.312
16642WAT     H150168   1.890   1.315   4.217
16642WAT     H250169   2.010   1.299   4.327
16643WAT      O50170   1.551   7.744   7.999
16643WAT     H150171   1.536   7.723   7.902
16643WAT     H250172   1.513   7.671   8.055
16644WAT      O50173   7.526   4.343   6.760
16644WAT     H150174   7.490   4.280   6.829
16644WAT     H250175   7.555   4.291   6.679
16645WAT      O50176   5.300   0.878   6.355
16645WAT     H150177   5.385   0.835   6.383
16645WAT     H250178   5.237   0.881   6.432
16646WAT      O50179   5.791   9.419   3.221
16646WAT     H150180   5.812   9.359   3.298
16646WAT     H250181   5.779   9.365   3.138
16647WAT      O50182   9.063   1.525   0.555
16647WAT     H150183   9.036   1.620   0.563
16647WAT     H250184   9.040   1.475   0.639
16648WAT      O50185   7.065   7.071   1.637
16648WAT     H150186   7.043   6.992   1.580
16648WAT     H250187   7.127   7.132   1.588
16649WAT      O50188   7.785   4.155   5.895
16649WAT     H150189   7.747   4.074   5.850
16649WAT     H250190   7.711   4.220   5.913
16650WAT      O50191   1.484   2.104   4.635
16650WAT     H150192   1.514   2.183   4.690
16650WAT     H250193   1.433   2.136   4.556
16651WAT      O50194   1.096   1.837   0.615
16651WAT     H150195   1.029   1.775   0.658
16651WAT     H250196   1.069   1.855   0.521
16652WAT      O50197   2.617   9.650   5.299
16652WAT     H150198   2.647   9.746   5.296
16652WAT     H250199   2.564   9.634   5.382
16653WAT      O50200   0.810   4.305   0.591
16653WAT     H150201   0.743   4.250   0.641
16653WAT     H250202   0.800   4.290   0.493
16654WAT      O50203   3.398   3.902   9.842
16654WAT     H150204   3.327   3.899   9.912
16654WAT     H250205   3.487   3.910   9.885
16655WAT      O50206   4.276   9.629   9.729
16655WAT     H150207   4.234   9.562   9.791
16655WAT     H250208   4.329   9.581   9.659
16656WAT      O50209   6.967   9.121   4.755
16656WAT     H150210   7.004   9.098   4.845
16656WAT     H250211   6.967   9.220   4.744
16657WAT      O50212   9.344   2.034   1.093
16657WAT     H150213   9.345   2.098   1.170
16657WAT     H250214   9.373   1.944   1.124
16658WAT      O50215   9.887   1.080   4.296
16658WAT     H150216   9.792   1.051   4.290
16658WAT     H250217   9.892   1.168   4.342
16659WAT      O50218   9.509   6.524   9.885
16659WAT     H150219   9.551   6.571   9.807
16659WAT     H250220   9.536   6.570   9.970
16660WAT      O50221   4.776   8.069   0.751
16660WAT     H150222   4.713   8.144   0.732
16660WAT     H250223   4.865   8.089   0.709
16661WAT      O50224   5.012   1.875   4.719
16661WAT     H150225   4.997   1.943   4.791
16661WAT     H250226   4.995   1.918   4.630
16662WAT      O50227   3.933   1.238   1.342
16662WAT     H150228   4.020   1.269   1.305
16662WAT     H250229   3.912   1.288   1.426
16663WAT      O50230   9.013   2.627   6.432
16663WAT     H150231   8.940   2.560   6.450
16663WAT     H250232   9.083   2.619   6.503
16664WAT      O50233   3.394   8.072   8.565
16664WAT     H150234   3.352   7.988   8.601
16664WAT     H250235   3.342   8.104   8.486
16665WAT      O50236   2.572   5.240   7.779
16665WAT     H150237   2.634   5.162   7.767
16665WAT     H250238   2.500   5.235   7.709
16666WAT      O50239   3.140   2.444   5.869
16666WAT     H150240   3.225   2.449   5.815
16666WAT     H250241   3.082   2.522   5.847
16667WAT      O50242   7.913   7.215   7.570
16667WAT     H150243   7.994   7.251   7.525
16667WAT     H250244   7.923   7.221   7.669
16668WAT      O50245   7.442   0.150   1.224
16668WAT     H150246   7.444   0.250   1.233
16668WAT     H250247   7.535   0.117   1.207
16669WAT      O50248   6.663   8.876   1.849
16669WAT     H150249   6.739   8.925   1.806
16669WAT     H250250   6.657   8.902   1.946
16670WAT      O50251   1.441   2.063   1.705
16670WAT     H150252   1.355   2.057   1.756
16670WAT     H250253   1.514   2.095   1.766
16671WAT      O50254   7.344   1.561   6.064
16671WAT     H150255   7.273   1.595   6.003
16671WAT     H250256   7.434   1.589   6.031
16672WAT      O50257   1.693   3.578   2.107
16672WAT     H150258   1.772   3.587   2.046
16672WAT     H250259   1.724   3.584   2.202
16673WAT      O50260   5.976   6.870   5.256
16673WAT     H150261   5.934   6.815   5.329
16673WAT     H250262   5.910   6.885   5.183
16674WAT      O50263   7.192   6.075   7.186
16674WAT     H150264   7.234   6.022   7.112
16674WAT     H250265   7.100   6.105   7.157
16675WAT      O50266   3.648   7.107   7.969
16675WAT     H150267   3.736   7.146   7.993
16675WAT     H250268   3.648   7.080   7.873
16676WAT      O50269   9.807   1.890   5.605
16676WAT     H150270   9.885   1.920   5.550
16676WAT     H250271   9.760   1.970   5.644
16677WAT      O50272   4.261   3.797   8.400
16677WAT     H150273   4.361   3.797   8.403
16677WAT     H250274   4.230   3.765   8.311
16678WAT      O50275   7.861   3.812   0.766
16678WAT     H150276   7.793   3.875   0.805
16678WAT     H250277   7.860   3.820   0.667
16679WAT      O50278   4.809   1.966   1.582
16679WAT     H150279   4.790   1.990   1.678
16679WAT     H250280   4.734   1.909   1.548
16680WAT      O50281   4.095   8.941   0.915
16680WAT     H150282   4.168   9.007   0.898
16680WAT     H250283   4.134   8.850   0.930
16681WAT      O50284   7.160   3.314   4.038
16681WAT     H150285   7.164   3.279   4.131
16681WAT     H250286   7.223   3.263   3.980
16682WAT      O50287   9.139   0.731   7.360
16682WAT     H150288   9.039   0.726   7.367
16682WAT     H250289   9.175   0.642   7.333
16683WAT      O50290   9.678   4.544   9.613
16683WAT     H150291   9.721   4.624   9.654
16683WAT     H250292   9.697   4.464   9.669
16684WAT      O50293   7.086   1.861   9.425
16684WAT     H150294   7.127   1.822   9.507
16684WAT     H250295   6.995   1.897   9.447
16685WAT      O50296   6.148   6.527   1.746
16685WAT     H150297   6.154   6.609   1.804
16685WAT     H250298   6.053   6.515   1.716
16686WAT      O50299   1.321   1.702   0.353
16686WAT     H150300   1.320   1.667   0.447
16686WAT     H250301   1.228   1.706   0.318
16687WAT      O50302   8.117   2.640   3.192
16687WAT     H150303   8.210   2.652   3.156
16687WAT     H250304   8.078   2.730   3.213
16688WAT      O50305   3.185   4.428   6.701
16688WAT     H150306   3.233   4.340   6.705
16688WAT     H250307   3.198   4.469   6.611
16689WAT      O50308   4.857   4.989   3.423
16689WAT     H150309   4.793   4.925   3.380
16689WAT     H250310   4.834   5.082   3.396
16690WAT      O50311   0.813   4.563   0.623
16690WAT     H150312   0.798   4.570   0.524
16690WAT     H250313   0.826   4.467   0.648
16691WAT      O50314   7.757   2.544   0.349
16691WAT     H150315   7.744   2.643   0.357
16691WAT     H250316   7.695   2.497   0.411
16692WAT      O50317   4.397   8.958   2.340
16692WAT     H150318   4.312   8.908   2.326
16692WAT     H250319   4.475   8.900   2.317
16693WAT      O50320   8.330   6.244   7.194
16693WAT     H150321   8.232   6.229   7.210
16693WAT     H250322   8.352   6.340   7.211
16694WAT      O50323   8.578   7.565   9.290
16694WAT     H150324   8.649   7.569   9.360
16694WAT     H250325   8.577   7.473   9.249
16695WAT      O50326   6.625   5.920   3.902
16695WAT     H150327   6.647   5.880   3.992
16695WAT     H250328   6.654   5.857   3.830
16696WAT      O50329   7.694   8.020   4.408
16696WAT     H150330   7.757   7.981   4.476
16696WAT     H250331   7.720   8.115   4.389
16697WAT      O50332   5.807   1.026   5.897
16697WAT     H150333   5.834   1.092   5.827
16697WAT     H250334   5.729   1.063   5.949
16698WAT      O50335   0.015   4.971   3.903
16698WAT     H150336  -0.021   4.906   3.970
16698WAT     H250337   0.017   5.062   3.943
16699WAT      O50338   7.991   6.244   1.349
16699WAT     H150339   7.903   6.202   1.325
16699WAT     H250340   8.015   6.312   1.281
16700WAT      O50341   1.567   7.957   0.544
16700WAT     H150342   1.536   8.038   0.494
16700WAT     H250343   1.585   7.981   0.639
16701WAT      O50344   8.556   7.046   7.893
16701WAT     H150345   8.545   7.075   7.799
16701WAT     H250346   8.644   6.999   7.904
16702WAT      O50347   8.080   3.771   3.352
16702WAT     H150348   8.088   3.672   3.370
16702WAT     H250349   7.987   3.801   3.375
16703WAT      O50350   0.330   3.981   2.297
16703WAT     H150351   0.317   3.952   2.202
16703WAT     H250352   0.242   4.005   2.337
16704WAT      O50353   1.267   2.689   0.380
16704WAT     H150354   1.298   2.631   0.455
16704WAT     H250355   1.239   2.633   0.302
16705WAT      O50356   4.898   7.273   4.355
16705WAT     H150357   4.886   7.263   4.454
16705WAT     H250358   4.809   7.268   4.310
16706WAT      O50359   1.778   0.469   3.689
16706WAT     H150360   1.766   0.370   3.684
16706WAT     H250361   1.875   0.490   3.693
16707WAT      O50362   1.333   6.955   5.900
16707WAT     H150363   1.344   6.894   5.821
16707WAT     H250364   1.241   6.943   5.938
16708WAT      O50365   5.163   5.954   8.292
16708WAT     H150366   5.095   5.916   8.230
16708WAT     H250367   5.220   6.019   8.243
16709WAT      O50368   4.878   0.092   3.651
16709WAT     H150369   4.873   0.079   3.552
16709WAT     H250370   4.829   0.018   3.697
16710WAT      O50371   6.757   7.498   8.383
16710WAT     H150372   6.682   7.534   8.439
16710WAT     H250373   6.792   7.571   8.324
16711WAT      O50374   2.403   1.847   8.541
16711WAT     H150375   2.418   1.943   8.564
16711WAT     H250376   2.487   1.796   8.555
16712WAT      O50377   0.340   6.038   6.547
16712WAT     H150378   0.333   6.076   6.640
16712WAT     H250379   0.436   6.024   6.524
16713WAT      O50380   4.071   0.751   0.585
16713WAT     H150381   4.045   0.834   0.633
16713WAT     H250382   4.012   0.675   0.613
16714WAT      O50383   9.121   4.487   7.227
16714WAT     H150384   9.208   4.455   7.265
16714WAT     H250385   9.138   4.566   7.168
16715WAT      O50386   6.137   2.357   7.707
16715WAT     H150387   6.195   2.357   7.788
16715WAT     H250388   6.144   2.446   7.661
16716WAT      O50389   7.747   5.360   1.481
16716WAT     H150390   7.765   5.458   1.483
16716WAT     H250391   7.805   5.317   1.412
16717WAT      O50392   8.053   7.217   9.190
16717WAT     H150393   7.994   7.197   9.111
16717WAT     H250394   7.996   7.228   9.271
16718WAT      O50395   4.994   0.972   2.748
16718WAT     H150396   5.048   0.906   2.696
16718WAT     H250397   4.900   0.939   2.758
16719WAT      O50398   6.468   0.277   3.406
16719WAT     H150399   6.501   0.185   3.383
16719WAT     H250400   6.495   0.341   3.335
16720WAT      O50401   5.283   8.400   6.634
16720WAT     H150402   5.311   8.312   6.674
16720WAT     H250403   5.331   8.414   6.548
16721WAT      O50404   6.532   8.572   4.970
16721WAT     H150405   6.617   8.540   5.013
16721WAT     H250406   6.554   8.638   4.898
16722WAT      O50407   9.550   4.335   0.341
16722WAT     H150408   9.470   4.355   0.397
16722WAT     H250409   9.614   4.412   0.346
16723WAT      O50410   4.102   3.857   6.796
16723WAT     H150411   4.107   3.947   6.751
16723WAT     H250412   4.194   3.832   6.828
16724WAT      O50413   4.887   7.801   6.961
16724WAT     H150414   4.883   7.722   7.023
16724WAT     H250415   4.829   7.874   6.997
16725WAT      O50416   8.396   5.816   8.121
16725WAT     H150417   8.382   5.871   8.038
16725WAT     H250418   8.493   5.819   8.147
16726WAT      O50419   1.429   2.223   5.580
16726WAT     H150420   1.391   2.305   5.538
16726WAT     H250421   1.513   2.247   5.630
16727WAT      O50422   0.565   4.160   3.871
16727WAT     H150423   0.565   4.077   3.815
16727WAT     H250424   0.634   4.224   3.837
16728WAT      O50425   4.454   1.981   2.128
16728WAT     H150426   4.462   1.976   2.029
16728WAT     H250427   4.401   2.062   2.154
16729WAT      O50428   6.888   3.893   8.678
16729WAT     H150429   6.911   3.918   8.772
16729WAT     H250430   6.830   3.964   8.638
16730WAT      O50431   1.747   2.158   6.837
16730WAT     H150432   1.706   2.099   6.767
16730WAT     H250433   1.810   2.105   6.893
16731WAT      O50434   5.964   6.899   1.755
16731WAT     H150435   6.056   6.860   1.754
16731WAT     H250436   5.910   6.858   1.681
16732WAT      O50437   5.899   7.127   8.052
16732WAT     H150438   5.871   7.220   8.077
16732WAT     H250439   5.893   7.116   7.953
16733WAT      O50440   5.728   7.883   4.364
16733WAT     H150441   5.665   7.905   4.290
16733WAT     H250442   5.701   7.932   4.447
16734WAT      O50443   8.586   0.030   9.382
16734WAT     H150444   8.681   0.049   9.408
16734WAT     H250445   8.572   0.054   9.286
16735WAT      O50446   9.674   1.243   6.677
16735WAT     H150447   9.768   1.211   6.685
16735WAT     H250448   9.641   1.274   6.766
16736WAT      O50449   5.767   7.146   7.521
16736WAT     H150450   5.742   7.063   7.471
16736WAT     H250451   5.684   7.187   7.561
16737WAT      O50452   4.181   2.293   2.567
16737WAT     H150453   4.279   2.315   2.559
16737WAT     H250454   4.152   2.305   2.661
16738WAT      O50455   9.855   8.369   8.610
16738WAT     H150456   9.839   8.442   8.543
16738WAT     H250457   9.767   8.332   8.639
16739WAT      O50458   4.004   2.682   0.427
16739WAT     H150459   4.062   2.668   0.507
16739WAT     H250460   3.909   2.659   0.451
16740WAT      O50461   7.139   2.964   5.669
16740WAT     H150462   7.181   2.897   5.729
16740WAT     H250463   7.039   2.960   5.679
16741WAT      O50464   9.809   0.309   1.407
16741WAT     H150465   9.809   0.242   1.481
16741WAT     H250466   9.855   0.392   1.438
16742WAT      O50467   3.500   4.501   1.934
16742WAT     H150468   3.553   4.416   1.932
16742WAT     H250469   3.413   4.484   1.979
16743WAT      O50470   6.311   2.630   8.019
16743WAT     H150471   6.266   2.647   8.106
16743WAT     H250472   6.294   2.535   7.991
16744WAT      O50473   3.320   3.653   2.632
16744WAT     H150474   3.277   3.597   2.703
16744WAT     H250475   3.419   3.646   2.640
16745WAT      O50476   7.471   2.721   4.470
16745WAT     H150477   7.386   2.689   4.512
16745WAT     H250478   7.510   2.794   4.526
16746WAT      O50479   4.131   5.328   3.746
16746WAT     H150480   4.218   5.368   3.716
16746WAT     H250481   4.132   5.317   3.845
16747WAT      O50482   1.213   9.593   0.783
16747WAT     H150483   1.225   9.654   0.861
16747WAT     H250484   1.162   9.512   0.811
16748WAT      O50485   3.225   0.673   8.587
16748WAT     H150486   3.300   0.729   8.551
16748WAT     H250487   3.166   0.729   8.644
16749WAT      O50488   9.755   7.651   0.667
16749WAT     H150489   9.853   7.650   0.648
16749WAT     H250490   9.740   7.680   0.762
16750WAT      O50491   1.651   3.398   0.700
16750WAT     H150492   1.563   3.394   0.652
16750WAT     H250493   1.704   3.315   0.679
16751WAT      O50494   3.089   4.233   0.316
16751WAT     H150495   3.185   4.209   0.331
16751WAT     H250496   3.039   4.226   0.402
16752WAT      O50497   8.699   8.396   0.651
16752WAT     H150498   8.787   8.369   0.690
16752WAT     H250499   8.712   8.475   0.592
16753WAT      O50500   6.192   6.313   6.166
16753WAT     H150501   6.245   6.272   6.091
16753WAT     H250502   6.140   6.243   6.213
16754WAT      O50503   6.196   8.172   3.973
16754WAT     H150504   6.252   8.208   3.898
16754WAT     H250505   6.132   8.104   3.937
16755WAT      O50506   4.662   3.404   0.334
16755WAT     H150507   4.698   3.337   0.399
16755WAT     H250508   4.586   3.454   0.376
16756WAT      O50509   8.514   8.593   9.417
16756WAT     H150510   8.476   8.501   9.408
16756WAT     H250511   8.539   8.629   9.327
16757WAT      O50512   1.886   9.059   9.809
16757WAT     H150513   1.795   9.016   9.810
16757WAT     H250514   1.886   9.138   9.871
16758WAT      O50515   5.210   2.505   1.692
16758WAT     H150516   5.187   2.547   1.779
16758WAT     H250517   5.130   2.506   1.631
16759WAT      O50518   6.689   5.704   7.155
16759WAT     H150519   6.711   5.781   7.096
16759WAT     H250520   6.604   5.722   7.204
16760WAT      O50521   5.044   0.171   3.112
16760WAT     H150522   5.126   0.227   3.101
16760WAT     H250523   5.050   0.090   3.054
16761WAT      O50524   3.945   8.526   4.618
16761WAT     H150525   3.931   8.448   4.679
16761WAT     H250526   3.888   8.603   4.649
16762WAT      O50527   1.402   3.508   3.055
16762WAT     H150528   1.470   3.436   3.066
16762WAT     H250529   1.355   3.497   2.968
16763WAT      O50530   7.105   2.675   0.476
16763WAT     H150531   7.196   2.653   0.511
16763WAT     H250532   7.097   2.643   0.382
16764WAT      O50533   1.797   4.968   3.587
16764WAT     H150534   1.843   5.017   3.512
16764WAT     H250535   1.705   4.941   3.557
16765WAT      O50536   5.690   5.019   1.279
16765WAT     H150537   5.759   5.044   1.210
16765WAT     H250538   5.673   4.920   1.274
16766WAT      O50539   1.425   1.859   9.252
16766WAT     H150540   1.329   1.847   9.226
16766WAT     H250541   1.467   1.930   9.196
16767WAT      O50542   2.496   9.368   7.606
16767WAT     H150543   2.427   9.353   7.534
16767WAT     H250544   2.457   9.345   7.695
16768WAT      O50545   3.929   5.316   0.177
16768WAT     H150546   3.835   5.320   0.210
16768WAT     H250547   3.934   5.350   0.083
16769WAT      O50548   0.926   7.358   6.735
16769WAT     H150549   0.933   7.412   6.819
16769WAT     H250550   0.917   7.420   6.657
16770WAT      O50551   7.302   4.102   4.086
16770WAT     H150552   7.255   4.015   4.103
16770WAT     H250553   7.302   4.157   4.169
16771WAT      O50554   9.645   3.612   2.652
16771WAT     H150555   9.649   3.514   2.673
16771WAT     H250556   9.683   3.664   2.728
16772WAT      O50557   5.848   5.900   1.766
16772WAT     H150558   5.786   5.840   1.714
16772WAT     H250559   5.798   5.942   1.841
16773WAT      O50560   9.814   4.729   9.765
16773WAT     H150561   9.890   4.788   9.738
16773WAT     H250562   9.739   4.786   9.801
16774WAT      O50563   8.974   2.108   3.159
16774WAT     H150564   8.949   2.014   3.184
16774WAT     H250565   8.893   2.157   3.127
16775WAT      O50566   4.195   4.312   9.857
16775WAT     H150567   4.254   4.379   9.903
16775WAT     H250568   4.116   4.292   9.915
16776WAT      O50569   6.378   5.208   5.297
16776WAT     H150570   6.412   5.290   5.249
16776WAT     H250571   6.280   5.217   5.313
16777WAT      O50572   5.547   2.571   6.613
16777WAT     H150573   5.632   2.522   6.594
16777WAT     H250574   5.564   2.642   6.682
16778WAT      O50575   5.902   7.777   1.428
16778WAT     H150576   5.938   7.778   1.521
16778WAT     H250577   5.944   7.850   1.375
16779WAT      O50578   5.058   4.535   0.255
16779WAT     H150579   5.030   4.544   0.160
16779WAT     H250580   5.018   4.452   0.294
16780WAT      O50581   5.240   8.271   0.340
16780WAT     H150582   5.161   8.313   0.295
16780WAT     H250583   5.255   8.315   0.429
16781WAT      O50584   7.649   9.776   3.001
16781WAT     H150585   7.716   9.702   3.006
16781WAT     H250586   7.696   9.863   2.986
16782WAT      O50587   3.250   6.407   8.621
16782WAT     H150588   3.182   6.334   8.624
16782WAT     H250589   3.215   6.488   8.667
16783WAT      O50590   9.089   2.317   6.716
16783WAT     H150591   9.042   2.386   6.771
16783WAT     H250592   9.174   2.291   6.761
16784WAT      O50593   4.219   2.874   5.495
16784WAT     H150594   4.295   2.846   5.437
16784WAT     H250595   4.175   2.955   5.457
16785WAT      O50596   9.467   3.275   2.854
16785WAT     H150597   9.436   3.258   2.948
16785WAT     H250598   9.438   3.366   2.826
16786WAT      O50599   6.843   3.121   7.452
16786WAT     H150600   6.754   3.150   7.487
16786WAT     H250601   6.873   3.185   7.382
16787WAT      O50602   1.187   2.341   9.454
16787WAT     H150603   1.236   2.316   9.538
16787WAT     H250604   1.224   2.289   9.378
16788WAT      O50605   1.735   3.118   1.584
16788WAT     H150606   1.794   3.076   1.516
16788WAT     H250607   1.641   3.086   1.571
16789WAT      O50608   3.355   4.775   2.209
16789WAT     H150609   3.378   4.810   2.118
16789WAT     H250610   3.399   4.687   2.223
16790WAT      O50611   2.939   4.930   8.552
16790WAT     H150612   2.969   4.924   8.457
16790WAT     H250613   2.961   5.021   8.589
16791WAT      O50614   8.163   0.958   8.981
16791WAT     H150615   8.096   0.944   9.054
16791WAT     H250616   8.118   0.949   8.892
16792WAT      O50617   2.156   1.880   9.239
16792WAT     H150618   2.224   1.876   9.312
16792WAT     H250619   2.094   1.957   9.256
16793WAT      O50620   0.936   3.432   6.865
16793WAT     H150621   0.933   3.454   6.767
16793WAT     H250622   1.004   3.361   6.881
16794WAT      O50623   4.055   2.133   6.845
16794WAT     H150624   3.993   2.115   6.922
16794WAT     H250625   4.148   2.142   6.880
16795WAT      O50626   5.923   7.514   8.452
16795WAT     H150627   6.002   7.551   8.499
16795WAT     H250628   5.861   7.470   8.518
16796WAT      O50629   8.526   5.878   6.859
16796WAT     H150630   8.479   5.921   6.936
16796WAT     H250631   8.475   5.896   6.775
16797WAT      O50632   4.499   5.089   5.018
16797WAT     H150633   4.519   5.070   5.115
16797WAT     H250634   4.539   5.178   4.993
16798WAT      O50635   2.058   5.364   7.619
16798WAT     H150636   2.105   5.396   7.537
16798WAT     H250637   1.999   5.287   7.595
16799WAT      O50638   1.911   0.949   4.476
16799WAT     H150639   1.925   0.961   4.377
16799WAT     H250640   1.942   1.032   4.524
16800WAT      O50641   1.077   1.378   7.325
16800WAT     H150642   1.004   1.311   7.308
16800WAT     H250643   1.038   1.460   7.366
16801WAT      O50644   9.528   0.179   7.318
16801WAT     H150645   9.450   0.133   7.362
16801WAT     H250646   9.597   0.200   7.387
16802WAT      O50647   1.695   4.896   1.057
16802WAT     H150648   1.607   4.922   1.096
16802WAT     H250649   1.753   4.856   1.128
16803WAT      O50650   0.340   7.081   2.685
16803WAT     H150651   0.428   7.063   2.641
16803WAT     H250652   0.324   7.014   2.757
16804WAT      O50653   0.092   8.904   8.232
16804WAT     H150654   0.110   8.807   8.214
16804WAT     H250655   0.172   8.945   8.276
16805WAT      O50656   3.036   6.805   7.605
16805WAT     H150657   3.021   6.720   7.656
16805WAT     H250658   3.115   6.793   7.545
16806WAT      O50659   4.656   5.271   1.320
16806WAT     H150660   4.696   5.354   1.281
16806WAT     H250661   4.670   5.271   1.419
16807WAT      O50662   6.076   1.282   1.121
16807WAT     H150663   6.110   1.363   1.168
16807WAT     H250664   6.093   1.200   1.177
16808WAT      O50665   1.222   8.979   0.609
16808WAT     H150666   1.285   9.046   0.649
16808WAT     H250667   1.215   8.995   0.511
16809WAT      O50668   3.558   3.971   7.755
16809WAT     H150669   3.577   4.057   7.803
16809WAT     H250670   3.527   3.902   7.821
16810WAT      O50671   8.993   3.406   2.252
16810WAT     H150672   9.016   3.468   2.177
16810WAT     H250673   9.078   3.370   2.292
16811WAT      O50674   0.147   2.854   4.390
16811WAT     H150675   0.193   2.943   4.390
16811WAT     H250676   0.128   2.827   4.485
16812WAT      O50677   4.137   9.252   3.979
16812WAT     H150678   4.136   9.170   3.922
16812WAT     H250679   4.150   9.333   3.922
16813WAT      O50680   8.421   9.425   0.407
16813WAT     H150681   8.378   9.402   0.494
16813WAT     H250682   8.468   9.513   0.414
16814WAT      O50683   5.024   9.311   8.145
16814WAT     H150684   4.946   9.363   8.180
16814WAT     H250685   5.079   9.370   8.085
16815WAT      O50686   2.074   7.246   3.042
16815WAT     H150687   2.162   7.273   3.003
16815WAT     H250688   2.089   7.175   3.111
16816WAT      O50689   8.448   5.904   5.944
16816WAT     H150690   8.451   5.806   5.960
16816WAT     H250691   8.478   5.953   6.026
16817WAT      O50692   4.317   3.244   2.256
16817WAT     H150693   4.231   3.215   2.214
16817WAT     H250694   4.311   3.342   2.279
16818WAT      O50695   9.714   5.996   5.383
16818WAT     H150696   9.774   5.973   5.306
16818WAT     H250697   9.714   6.095   5.397
16819WAT      O50698   6.250   2.351   8.017
16819WAT     H150699   6.182   2.382   8.083
16819WAT     H250700   6.291   2.265   8.049
16820WAT      O50701   2.819   0.440   6.183
16820WAT     H150702   2.879   0.479   6.113
16820WAT     H250703   2.739   0.498   6.195
16821WAT      O50704   3.443   5.149   0.171
16821WAT     H150705   3.374   5.158   0.243
16821WAT     H250706   3.487   5.238   0.157
16822WAT      O50707   6.875   3.904   3.781
16822WAT     H150708   6.864   3.940   3.874
16822WAT     H250709   6.825   3.961   3.716
16823WAT      O50710   3.785   0.080   8.976
16823WAT     H150711   3.856   0.017   8.945
16823WAT     H250712   3.700   0.030   8.992
16824WAT      O50713   8.669   7.926   8.716
16824WAT     H150714   8.696   7.987   8.642
16824WAT     H250715   8.735   7.851   8.724
16825WAT      O50716   1.976   8.790   8.228
16825WAT     H150717   1.944   8.716   8.168
16825WAT     H250718   2.027   8.857   8.175
16826WAT      O50719   9.461   1.380   4.507
16826WAT     H150720   9.387   1.344   4.451
16826WAT     H250721   9.423   1.433   4.583
16827WAT      O50722   7.499   0.164   4.848
16827WAT     H150723   7.405   0.192   4.826
16827WAT     H250724   7.560   0.243   4.837
16828WAT      O50725   4.324   7.148   9.053
16828WAT     H150726   4.409   7.201   9.055
16828WAT     H250727   4.250   7.201   9.095
16829WAT      O50728   7.113   7.780   6.255
16829WAT     H150729   7.088   7.876   6.243
16829WAT     H250730   7.042   7.722   6.214
16830WAT      O50731   8.452   2.645   5.216
16830WAT     H150732   8.499   2.603   5.139
16830WAT     H250733   8.396   2.577   5.263
16831WAT      O50734   7.985   3.216   2.267
16831WAT     H150735   7.944   3.179   2.183
16831WAT     H250736   7.973   3.315   2.269
16832WAT      O50737   5.482   1.366   6.958
16832WAT     H150738   5.516   1.283   7.001
16832WAT     H250739   5.470   1.350   6.860
16833WAT      O50740   3.121   9.755   8.526
16833WAT     H150741   3.118   9.658   8.503
16833WAT     H250742   3.169   9.805   8.454
16834WAT      O50743   5.796   1.227   1.100
16834WAT     H150744   5.731   1.277   1.158
16834WAT     H250745   5.880   1.280   1.093
16835WAT      O50746   4.955   4.619   3.658
16835WAT     H150747   4.967   4.541   3.597
16835WAT     H250748   4.966   4.590   3.753
16836WAT      O50749   8.401   3.061   3.914
16836WAT     H150750   8.377   3.147   3.869
16836WAT     H250751   8.500   3.047   3.910
16837WAT      O50752   0.852   6.592   8.333
16837WAT     H150753   0.831   6.521   8.401
16837WAT     H250754   0.940   6.571   8.290
16838WAT      O50755   7.983   8.703   1.398
16838WAT     H150756   7.952   8.621   1.349
16838WAT     H250757   8.078   8.691   1.426
16839WAT      O50758   9.029   9.419   0.337
16839WAT     H150759   9.087   9.495   0.309
16839WAT     H250760   9.087   9.343   0.368
16840WAT      O50761   6.261   0.836   1.148
16840WAT     H150762   6.200   0.800   1.077
16840WAT     H250763   6.326   0.765   1.175
16841WAT      O50764   2.286   7.074   5.081
16841WAT     H150765   2.305   7.137   5.157
16841WAT     H250766   2.290   6.980   5.114
16842WAT      O50767   5.832   5.717   2.356
16842WAT     H150768   5.758   5.768   2.399
16842WAT     H250769   5.819   5.715   2.257
16843WAT      O50770   8.369   7.986   4.723
16843WAT     H150771   8.356   8.034   4.636
16843WAT     H250772   8.349   7.889   4.710
16844WAT      O50773   5.979   8.083   9.323
16844WAT     H150774   5.985   8.050   9.418
16844WAT     H250775   5.884   8.077   9.292
16845WAT      O50776   8.768   6.555   5.270
16845WAT     H150777   8.676   6.580   5.240
16845WAT     H250778   8.767   6.534   5.368
16846WAT      O50779   8.777   8.139   3.614
16846WAT     H150780   8.810   8.234   3.619
16846WAT     H250781   8.849   8.077   3.644
16847WAT      O50782   7.355   4.820   0.447
16847WAT     H150783   7.389   4.729   0.424
16847WAT     H250784   7.304   4.816   0.533
16848WAT      O50785   8.792   3.548   6.564
16848WAT     H150786   8.863   3.481   6.542
16848WAT     H250787   8.707   3.499   6.586
16849WAT      O50788   7.770   2.686   8.833
16849WAT     H150789   7.825   2.686   8.917
16849WAT     H250790   7.789   2.769   8.781
16850WAT      O50791   5.890   4.987   2.826
16850WAT     H150792   5.882   4.955   2.731
16850WAT     H250793   5.849   4.920   2.887
16851WAT      O50794   3.266   8.081   7.632
16851WAT     H150795   3.333   8.007   7.637
16851WAT     H250796   3.187   8.060   7.689
16852WAT      O50797   9.410   2.156   6.268
16852WAT     H150798   9.421   2.245   6.222
16852WAT     H250799   9.498   2.125   6.302
16853WAT      O50800   8.286   7.404   9.417
16853WAT     H150801   8.315   7.325   9.470
16853WAT     H250802   8.248   7.473   9.478
16854WAT      O50803   1.708   1.793   6.221
16854WAT     H150804   1.610   1.813   6.227
16854WAT     H250805   1.730   1.718   6.283
16855WAT      O50806   3.711   7.316   4.949
16855WAT     H150807   3.757   7.228   4.963
16855WAT     H250808   3.747   7.383   5.014
16856WAT      O50809   8.687   2.108   8.599
16856WAT     H150810   8.699   2.082   8.503
16856WAT     H250811   8.758   2.173   8.625
16857WAT      O50812   1.106   8.289   4.771
16857WAT     H150813   1.175   8.217   4.763
16857WAT     H250814   1.015   8.248   4.767
16858WAT      O50815   4.500   7.134   6.801
16858WAT     H150816   4.594   7.157   6.775
16858WAT     H250817   4.498   7.111   6.898
16859WAT      O50818   7.915   3.493   7.758
16859WAT     H150819   7.976   3.557   7.805
16859WAT     H250820   7.871   3.433   7.825
16860WAT      O50821   7.423   2.243   7.562
16860WAT     H150822   7.400   2.158   7.515
16860WAT     H250823   7.374   2.319   7.519
16861WAT      O50824   2.583   8.415   2.757
16861WAT     H150825   2.488   8.445   2.756
16861WAT     H250826   2.590   8.328   2.806
16862WAT      O50827   4.025   3.041   0.633
16862WAT     H150828   4.073   2.955   0.649
16862WAT     H250829   3.974   3.067   0.715
16863WAT      O50830   4.924   1.304   7.301
16863WAT     H150831   4.840   1.284   7.251
16863WAT     H250832   4.905   1.303   7.399
16864WAT      O50833   3.431   2.011   7.033
16864WAT     H150834   3.356   2.035   7.094
16864WAT     H250835   3.443   2.083   6.965
16865WAT      O50836   0.733   7.484   5.590
16865WAT     H150837   0.672   7.453   5.517
16865WAT     H250838   0.814   7.426   5.594
16866WAT      O50839   8.621   7.749   9.090
16866WAT     H150840   8.585   7.673   9.144
16866WAT     H250841   8.680   7.806   9.148
16867WAT      O50842   1.870   5.078   4.174
16867WAT     H150843   1.877   4.980   4.193
16867WAT     H250844   1.906   5.097   4.083
16868WAT      O50845   2.146   2.461   2.581
16868WAT     H150846   2.202   2.529   2.533
16868WAT     H250847   2.146   2.481   2.679
16869WAT      O50848   5.194   8.306   6.063
16869WAT     H150849   5.178   8.384   6.002
16869WAT     H250850   5.210   8.340   6.156
16870WAT      O50851   7.619   8.513   6.846
16870WAT     H150852   7.616   8.493   6.943
16870WAT     H250853   7.555   8.453   6.797
16871WAT      O50854   0.016   7.463   3.255
16871WAT     H150855  -0.027   7.434   3.341
16871WAT     H250856   0.114   7.444   3.259
16872WAT      O50857   9.341   4.963   0.922
16872WAT     H150858   9.313   4.999   1.011
16872WAT     H250859   9.328   5.032   0.852
16873WAT      O50860   7.050   2.883   7.190
16873WAT     H150861   7.064   2.978   7.165
16873WAT     H250862   7.107   2.824   7.133
16874WAT      O50863   9.282   6.164   5.389
16874WAT     H150864   9.243   6.235   5.447
16874WAT     H250865   9.304   6.084   5.445
16875WAT      O50866   4.758   9.212   9.458
16875WAT     H150867   4.781   9.143   9.389
16875WAT     H250868   4.767   9.173   9.549
16876WAT      O50869   4.637   7.470   7.701
16876WAT     H150870   4.600   7.547   7.754
16876WAT     H250871   4.686   7.505   7.622
16877WAT      O50872   9.866   9.186   6.104
16877WAT     H150873   9.911   9.209   6.018
16877WAT     H250874   9.874   9.262   6.167
16878WAT      O50875   3.622   6.692   8.407
16878WAT     H150876   3.682   6.613   8.416
16878WAT     H250877   3.677   6.774   8.395
16879WAT      O50878   4.181   2.333   9.197
16879WAT     H150879   4.206   2.312   9.291
16879WAT     H250880   4.214   2.425   9.173
16880WAT      O50881   9.037   1.797   4.753
16880WAT     H150882   9.079   1.757   4.835
16880WAT     H250883   9.099   1.788   4.676
16881WAT      O50884   7.905   8.683   7.596
16881WAT     H150885   7.966   8.734   7.656
16881WAT     H250886   7.927   8.704   7.500
16882WAT      O50887   0.459   3.248   6.554
16882WAT     H150888   0.487   3.165   6.507
16882WAT     H250889   0.367   3.235   6.592
16883WAT      O50890   7.928   9.378   7.331
16883WAT     H150891   7.889   9.307   7.272
16883WAT     H250892   7.918   9.351   7.426
16884WAT      O50893   9.314   2.450   6.830
16884WAT     H150894   9.389   2.414   6.885
16884WAT     H250895   9.282   2.536   6.870
16885WAT      O50896   5.625   6.767   4.324
16885WAT     H150897   5.584   6.846   4.279
16885WAT     H250898   5.720   6.789   4.350
16886WAT      O50899   7.918   8.873   4.023
16886WAT     H150900   7.998   8.882   4.082
16886WAT     H250901   7.840   8.842   4.077
16887WAT      O50902   4.644   3.124   7.531
16887WAT     H150903   4.636   3.215   7.572
16887WAT     H250904   4.699   3.066   7.591
16888WAT      O50905   7.673   9.276   6.570
16888WAT     H150906   7.659   9.179   6.587
16888WAT     H250907   7.651   9.297   6.475
16889WAT      O50908   3.695   4.918   4.773
16889WAT     H150909   3.718   4.987   4.842
16889WAT     H250910   3.597   4.922   4.754
16890WAT      O50911   0.787   4.134   7.434
16890WAT     H150912   0.719   4.207   7.430
16890WAT     H250913   0.741   4.046   7.449
16891WAT      O50914   1.614   6.743   7.520
16891WAT     H150915   1.647   6.655   7.486
16891WAT     H250916   1.640   6.815   7.457
16892WAT      O50917   9.302   7.179   4.927
16892WAT     H150918   9.358   7.171   5.010
16892WAT     H250919   9.250   7.095   4.913
16893WAT      O50920   6.973   2.223   2.703
16893WAT     H150921   6.943   2.200   2.610
16893WAT     H250922   7.012   2.315   2.703
16894WAT      O50923   3.426   0.798   3.772
16894WAT     H150924   3.367   0.795   3.852
16894WAT     H250925   3.521   0.786   3.799
16895WAT      O50926   5.352   7.121   7.639
16895WAT     H150927   5.277   7.136   7.704
16895WAT     H250928   5.352   7.025   7.610
16896WAT      O50929   5.295   5.845   8.499
16896WAT     H150930   5.324   5.921   8.556
16896WAT     H250931   5.242   5.879   8.421
16897WAT      O50932   3.560   6.122   8.653
16897WAT     H150933   3.655   6.093   8.657
16897WAT     H250934   3.529   6.149   8.744
16898WAT      O50935   3.906   9.116   2.132
16898WAT     H150936   3.998   9.087   2.107
16898WAT     H250937   3.870   9.056   2.204
16899WAT      O50938   3.158   8.462   6.175
16899WAT     H150939   3.119   8.548   6.207
16899WAT     H250940   3.255   8.458   6.198
16900WAT      O50941   3.548   0.958   1.944
16900WAT     H150942   3.510   1.030   2.002
16900WAT     H250943   3.477   0.924   1.883
16901WAT      O50944   2.140   0.954   5.503
16901WAT     H150945   2.179   0.893   5.572
16901WAT     H250946   2.080   0.902   5.443
16902WAT      O50947   4.765   3.257   0.793
16902WAT     H150948   4.855   3.282   0.827
16902WAT     H250949   4.694   3.305   0.845
16903WAT      O50950   4.381   5.024   3.846
16903WAT     H150951   4.333   5.043   3.761
16903WAT     H250952   4.457   5.088   3.857
16904WAT      O50953   9.773   2.501   3.030
16904WAT     H150954   9.787   2.518   3.127
16904WAT     H250955   9.740   2.407   3.018
16905WAT      O50956   2.045   9.031   6.367
16905WAT     H150957   1.979   9.104   6.346
16905WAT     H250958   2.066   9.033   6.465
16906WAT      O50959   0.896   3.965   4.940
16906WAT     H150960   0.980   3.932   4.982
16906WAT     H250961   0.872   3.906   4.863
16907WAT      O50962   0.299   2.950   5.937
16907WAT     H150963   0.236   3.021   5.906
16907WAT     H250964   0.392   2.973   5.908
16908WAT      O50965   3.243   7.349   1.336
16908WAT     H150966   3.277   7.255   1.344
16908WAT     H250967   3.211   7.380   1.426
16909WAT      O50968   2.754   8.670   1.297
16909WAT     H150969   2.736   8.722   1.380
16909WAT     H250970   2.686   8.597   1.288
16910WAT      O50971   6.175   6.448   7.194
16910WAT     H150972   6.168   6.526   7.133
16910WAT     H250973   6.269   6.440   7.227
16911WAT      O50974   5.165   6.764   1.689
16911WAT     H150975   5.125   6.801   1.605
16911WAT     H250976   5.196   6.671   1.672
16912WAT      O50977   0.176   8.958   1.998
16912WAT     H150978   0.179   8.865   1.962
16912WAT     H250979   0.083   8.994   1.988
16913WAT      O50980   5.975   6.770   6.377
16913WAT     H150981   6.074   6.756   6.368
16913WAT     H250982   5.955   6.867   6.366
16914WAT      O50983   4.566   0.240   2.880
16914WAT     H150984   4.644   0.230   2.942
16914WAT     H250985   4.486   0.271   2.931
16915WAT      O50986   2.900   3.834   1.526
16915WAT     H150987   2.887   3.909   1.461
16915WAT     H250988   2.968   3.770   1.492
16916WAT      O50989   4.056   7.379   4.042
16916WAT     H150990   3.996   7.448   4.082
16916WAT     H250991   4.069   7.304   4.106
16917WAT      O50992   3.137   9.243   6.955
16917WAT     H150993   3.093   9.318   6.906
16917WAT     H250994   3.083   9.220   7.037
16918WAT      O50995   2.445   5.996   2.232
16918WAT     H150996   2.498   5.921   2.194
16918WAT     H250997   2.347   5.978   2.221
16919WAT      O50998   8.766   7.351   2.051
16919WAT     H150999   8.822   7.270   2.035
16919WAT     H251000   8.752   7.399   1.964
16920WAT      O51001   8.378   0.179   7.138
16920WAT     H151002   8.313   0.110   7.171
16920WAT     H251003   8.468   0.137   7.126
16921WAT      O51004   7.216   5.344   2.770
16921WAT     H151005   7.281   5.271   2.751
16921WAT     H251006   7.136   5.306   2.816
16922WAT      O51007   0.196   0.183   5.028
16922WAT     H151008   0.124   0.199   4.961
16922WAT     H251009   0.225   0.087   5.022
16923WAT      O51010   9.845   3.003   1.813
16923WAT     H151011   9.757   3.047   1.791
16923WAT     H251012   9.838   2.959   1.902
16924WAT      O51013   0.613   1.495   1.508
16924WAT     H151014   0.592   1.580   1.556
16924WAT     H251015   0.658   1.431   1.571
16925WAT      O51016   7.846   6.650   1.957
16925WAT     H151017   7.861   6.600   1.872
16925WAT     H251018   7.913   6.724   1.964
16926WAT      O51019   5.061   2.341   2.301
16926WAT     H151020   5.054   2.297   2.391
16926WAT     H251021   5.041   2.438   2.309
16927WAT      O51022   5.006   2.318   0.452
16927WAT     H151023   5.039   2.410   0.475
16927WAT     H251024   5.057   2.251   0.506
16928WAT      O51025   5.041   0.780   3.613
16928WAT     H151026   4.983   0.862   3.614
16928WAT     H251027   5.129   0.802   3.572
16929WAT      O51028   4.166   8.464   6.555
16929WAT     H151029   4.189   8.453   6.459
16929WAT     H251030   4.123   8.381   6.590
16930WAT      O51031   3.107   6.668   6.407
16930WAT     H151032   3.112   6.589   6.469
16930WAT     H251033   3.182   6.665   6.342
16931WAT      O51034   6.384   3.759   2.889
16931WAT     H151035   6.458   3.802   2.837
16931WAT     H251036   6.396   3.778   2.986
16932WAT      O51037   5.231   3.715   0.599
16932WAT     H151038   5.327   3.699   0.623
16932WAT     H251039   5.191   3.630   0.564
16933WAT      O51040   7.936   5.355   2.635
16933WAT     H151041   7.936   5.426   2.705
16933WAT     H251042   7.963   5.394   2.547
16934WAT      O51043   8.309   0.894   2.100
16934WAT     H151044   8.380   0.958   2.071
16934WAT     H251045   8.244   0.940   2.160
16935WAT      O51046   7.347   0.173   1.995
16935WAT     H151047   7.353   0.100   1.927
16935WAT     H251048   7.439   0.207   2.014
16936WAT      O51049   0.325   7.287   2.285
16936WAT     H151050   0.347   7.371   2.236
16936WAT     H251051   0.397   7.267   2.351
16937WAT      O51052   6.245   8.312   3.664
16937WAT     H151053   6.269   8.216   3.653
16937WAT     H251054   6.303   8.368   3.605
16938WAT      O51055   2.262   5.266   0.354
16938WAT     H151056   2.281   5.341   0.417
16938WAT     H251057   2.347   5.233   0.314
16939WAT      O51058   4.160   3.084   8.911
16939WAT     H151059   4.216   3.023   8.855
16939WAT     H251060   4.090   3.127   8.853
16940WAT      O51061   4.007   3.233   3.844
16940WAT     H151062   3.985   3.328   3.867
16940WAT     H251063   4.082   3.231   3.777
16941WAT      O51064   5.337   2.837   9.096
16941WAT     H151065   5.369   2.751   9.055
16941WAT     H251066   5.289   2.817   9.181
16942WAT      O51067   1.794   9.575   9.204
16942WAT     H151068   1.728   9.632   9.254
16942WAT     H251069   1.883   9.620   9.203
16943WAT      O51070   9.609   1.556   2.390
16943WAT     H151071   9.700   1.560   2.433
16943WAT     H251072   9.576   1.462   2.389
16944WAT      O51073   4.064   1.746   6.735
16944WAT     H151074   3.971   1.745   6.699
16944WAT     H251075   4.066   1.797   6.821
16945WAT      O51076   3.242   2.607   1.379
16945WAT     H151077   3.234   2.517   1.422
16945WAT     H251078   3.307   2.601   1.303
16946WAT      O51079   1.414   6.125   6.776
16946WAT     H151080   1.480   6.141   6.850
16946WAT     H251081   1.446   6.169   6.692
16947WAT      O51082   4.480   3.974   6.488
16947WAT     H151083   4.448   3.903   6.550
16947WAT     H251084   4.507   4.055   6.541
16948WAT      O51085   6.858   1.547   5.184
16948WAT     H151086   6.805   1.521   5.265
16948WAT     H251087   6.920   1.623   5.208
16949WAT      O51088   9.068   7.326   4.090
16949WAT     H151089   9.027   7.275   4.165
16949WAT     H251090   8.997   7.360   4.029
16950WAT      O51091   7.512   1.873   6.993
16950WAT     H151092   7.599   1.865   7.041
16950WAT     H251093   7.529   1.887   6.895
16951WAT      O51094   8.816   0.626   1.812
16951WAT     H151095   8.788   0.598   1.904
16951WAT     H251096   8.750   0.591   1.746
16952WAT      O51097   0.617   3.638   8.362
16952WAT     H151098   0.583   3.712   8.418
16952WAT     H251099   0.679   3.580   8.416
16953WAT      O51100   4.595   4.862   4.895
16953WAT     H151101   4.693   4.849   4.904
16953WAT     H251102   4.568   4.950   4.935
16954WAT      O51103   5.038   7.840   2.385
16954WAT     H151104   5.084   7.923   2.415
16954WAT     H251105   5.012   7.785   2.465
16955WAT      O51106   2.758   0.192   6.289
16955WAT     H151107   2.805   0.277   6.263
16955WAT     H251108   2.759   0.182   6.388
16956WAT      O51109   0.988   7.355   9.634
16956WAT     H151110   1.046   7.341   9.715
16956WAT     H251111   0.908   7.410   9.659
16957WAT      O51112   5.557   2.456   7.030
16957WAT     H151113   5.466   2.424   7.004
16957WAT     H251114   5.560   2.556   7.026
16958WAT      O51115   7.928   5.525   2.914
16958WAT     H151116   7.949   5.611   2.867
16958WAT     H251117   7.839   5.533   2.960
16959WAT      O51118   6.580   5.946   6.269
16959WAT     H151119   6.650   6.012   6.293
16959WAT     H251120   6.624   5.860   6.241
16960WAT      O51121   5.156   0.971   7.727
16960WAT     H151122   5.134   0.874   7.717
16960WAT     H251123   5.072   1.024   7.736
16961WAT      O51124   0.072   7.829   5.372
16961WAT     H151125   0.164   7.814   5.407
16961WAT     H251126   0.011   7.852   5.448
16962WAT      O51127   5.516   4.220   6.915
16962WAT     H151128   5.597   4.165   6.934
16962WAT     H251129   5.497   4.280   6.993
16963WAT      O51130   6.560   1.749   4.390
16963WAT     H151131   6.620   1.670   4.373
16963WAT     H251132   6.496   1.759   4.313
16964WAT      O51133   5.560   3.878   4.264
16964WAT     H151134   5.564   3.828   4.177
16964WAT     H251135   5.497   3.831   4.326
16965WAT      O51136   2.124   1.616   7.376
16965WAT     H151137   2.083   1.525   7.374
16965WAT     H251138   2.192   1.623   7.303
16966WAT      O51139   1.431   7.547   3.286
16966WAT     H151140   1.419   7.559   3.188
16966WAT     H251141   1.370   7.608   3.336
16967WAT      O51142   0.019   0.211   3.423
16967WAT     H151143  -0.062   0.186   3.369
16967WAT     H251144   0.004   0.186   3.518
16968WAT      O51145   8.251   5.793   5.767
16968WAT     H151146   8.325   5.853   5.799
16968WAT     H251147   8.277   5.753   5.679
16969WAT      O51148   6.640   8.637   2.443
16969WAT     H151149   6.707   8.694   2.491
16969WAT     H251150   6.609   8.684   2.360
16970WAT      O51151   0.748   6.088   4.149
16970WAT     H151152   0.686   6.011   4.165
16970WAT     H251153   0.753   6.106   4.051
16971WAT      O51154   2.279   7.300   9.489
16971WAT     H151155   2.183   7.327   9.491
16971WAT     H251156   2.336   7.380   9.472
16972WAT      O51157   6.871   8.801   8.217
16972WAT     H151158   6.780   8.842   8.225
16972WAT     H251159   6.901   8.806   8.121
16973WAT      O51160   1.371   7.204   2.010
16973WAT     H151161   1.409   7.176   1.922
16973WAT     H251162   1.415   7.288   2.040
16974WAT      O51163   8.982   0.770   9.559
16974WAT     H151164   8.922   0.832   9.609
16974WAT     H251165   9.043   0.823   9.499
16975WAT      O51166   5.683   6.501   6.940
16975WAT     H151167   5.743   6.513   6.861
16975WAT     H251168   5.597   6.549   6.925
16976WAT      O51169   6.385   9.215   2.862
16976WAT     H151170   6.390   9.263   2.950
16976WAT     H251171   6.478   9.202   2.826
16977WAT      O51172   1.050   9.463   2.861
16977WAT     H151173   0.958   9.495   2.881
16977WAT     H251174   1.076   9.491   2.768
16978WAT      O51175   3.889   6.632   7.541
16978WAT     H151176   3.832   6.697   7.591
16978WAT     H251177   3.985   6.655   7.554
16979WAT      O51178   9.477   5.139   3.607
16979WAT     H151179   9.388   5.110   3.570
16979WAT     H251180   9.550   5.087   3.563
16980WAT      O51181   5.921   7.364   8.925
16980WAT     H151182   5.849   7.295   8.919
16980WAT     H251183   5.942   7.382   9.022
16981WAT      O51184   9.889   1.830   3.715
16981WAT     H151185   9.924   1.771   3.788
16981WAT     H251186   9.801   1.869   3.742
16982WAT      O51187   1.935   6.078   3.855
16982WAT     H151188   1.946   5.997   3.914
16982WAT     H251189   1.945   6.160   3.911
16983WAT      O51190   7.852   4.861   6.802
16983WAT     H151191   7.753   4.848   6.809
16983WAT     H251192   7.872   4.930   6.732
16984WAT      O51193   5.175   4.816   9.397
16984WAT     H151194   5.206   4.910   9.414
16984WAT     H251195   5.237   4.773   9.332
16985WAT      O51196   9.104   3.701   4.830
16985WAT     H151197   9.155   3.713   4.745
16985WAT     H251198   9.088   3.604   4.846
16986WAT      O51199   4.082   7.557   5.389
16986WAT     H151200   4.026   7.614   5.450
16986WAT     H251201   4.141   7.615   5.333
16987WAT      O51202   0.377   1.557   5.039
16987WAT     H151203   0.376   1.575   5.138
16987WAT     H251204   0.300   1.603   4.996
16988WAT      O51205   2.019   0.164   1.726
16988WAT     H151206   2.038   0.112   1.643
16988WAT     H251207   2.106   0.188   1.769
16989WAT      O51208   7.525   6.487   3.016
16989WAT     H151209   7.597   6.421   2.992
16989WAT     H251210   7.439   6.458   2.975
16990WAT      O51211   2.930   0.622   8.181
16990WAT     H151212   2.910   0.719   8.191
16990WAT     H251213   2.941   0.581   8.272
16991WAT      O51214   2.066   7.744   8.470
16991WAT     H151215   2.142   7.786   8.420
16991WAT     H251216   1.997   7.711   8.406
16992WAT      O51217   4.015   6.381   1.999
16992WAT     H151218   3.934   6.388   1.941
16992WAT     H251219   4.083   6.323   1.955
16993WAT      O51220   5.257   7.608   7.105
16993WAT     H151221   5.268   7.636   7.200
16993WAT     H251222   5.280   7.511   7.096
16994WAT      O51223   6.802   1.306   7.291
16994WAT     H151224   6.897   1.337   7.290
16994WAT     H251225   6.752   1.351   7.217
16995WAT      O51226   0.533   1.278   4.224
16995WAT     H151227   0.456   1.271   4.161
16995WAT     H251228   0.588   1.358   4.202
16996WAT      O51229   3.143   1.077   8.674
16996WAT     H151230   3.086   1.156   8.696
16996WAT     H251231   3.200   1.099   8.594
16997WAT      O51232   5.520   4.957   2.515
16997WAT     H151233   5.585   4.950   2.590
16997WAT     H251234   5.509   4.868   2.472
16998WAT      O51235   9.836   1.527   2.492
16998WAT     H151236   9.893   1.560   2.568
16998WAT     H251237   9.865   1.435   2.467
16999WAT      O51238   2.653   4.478   2.529
16999WAT     H151239   2.740   4.487   2.578
16999WAT     H251240   2.582   4.447   2.593
17000WAT      O51241   4.958   5.986   0.518
17000WAT     H151242   4.978   5.936   0.434
17000WAT     H251243   5.018   5.954   0.591
17001WAT      O51244   3.436   4.736   6.033
17001WAT     H151245   3.440   4.687   6.120
17001WAT     H251246   3.472   4.677   5.960
17002WAT      O51247   9.039   1.575   3.800
17002WAT     H151248   9.064   1.600   3.894
17002WAT     H251249   9.097   1.627   3.736
17003WAT      O51250   5.296   6.966   9.029
17003WAT     H151251   5.215   6.907   9.020
17003WAT     H251252   5.266   7.061   9.042
17004WAT      O51253   8.066   4.172   7.108
17004WAT     H151254   7.978   4.170   7.154
17004WAT     H251255   8.117   4.088   7.128
17005WAT      O51256   0.220   4.625   6.992
17005WAT     H151257   0.258   4.606   7.083
17005WAT     H251258   0.220   4.542   6.937
17006WAT      O51259   9.364   4.544   2.319
17006WAT     H151260   9.418   4.474   2.365
17006WAT     H251261   9.268   4.516   2.317
17007WAT      O51262   1.375   5.969   1.988
17007WAT     H151263   1.298   5.915   1.953
17007WAT     H251264   1.416   5.922   2.066
17008WAT      O51265   3.523   6.743   3.923
17008WAT     H151266   3.445   6.769   3.866
17008WAT     H251267   3.504   6.655   3.968
17009WAT      O51268   7.683   8.293   8.331
17009WAT     H151269   7.626   8.374   8.315
17009WAT     H251270   7.650   8.245   8.412
17010WAT      O51271   8.926   4.498   4.954
17010WAT     H151272   8.939   4.512   5.052
17010WAT     H251273   8.830   4.478   4.935
17011WAT      O51274   6.368   8.640   7.536
17011WAT     H151275   6.383   8.569   7.468
17011WAT     H251276   6.320   8.602   7.615
17012WAT      O51277   9.148   7.951   6.341
17012WAT     H151278   9.055   7.989   6.343
17012WAT     H251279   9.175   7.933   6.247
17013WAT      O51280   4.328   1.191   2.488
17013WAT     H151281   4.316   1.265   2.421
17013WAT     H251282   4.424   1.165   2.492
17014WAT      O51283   0.240   8.623   5.691
17014WAT     H151284   0.286   8.686   5.628
17014WAT     H251285   0.301   8.604   5.768
17015WAT      O51286   8.913   1.571   0.143
17015WAT     H151287   8.857   1.581   0.061
17015WAT     H251288   8.854   1.577   0.224
17016WAT      O51289   5.199   5.883   0.929
17016WAT     H151290   5.149   5.798   0.941
17016WAT     H251291   5.147   5.959   0.968
17017WAT      O51292   8.253   1.877   3.902
17017WAT     H151293   8.343   1.921   3.904
17017WAT     H251294   8.239   1.825   3.986
17018WAT      O51295   5.523   6.171   8.371
17018WAT     H151296   5.583   6.247   8.394
17018WAT     H251297   5.570   6.085   8.389
17019WAT      O51298   6.739   1.002   8.274
17019WAT     H151299   6.687   1.088   8.264
17019WAT     H251300   6.758   0.986   8.370
17020WAT      O51301   2.839   7.945   0.940
17020WAT     H151302   2.809   7.892   1.019
17020WAT     H251303   2.939   7.941   0.933
17021WAT      O51304   9.468   4.779   7.604
17021WAT     H151305   9.545   4.717   7.619
17021WAT     H251306   9.382   4.732   7.625
17022WAT      O51307   0.121   6.978   8.481
17022WAT     H151308   0.078   7.039   8.547
17022WAT     H251309   0.187   6.920   8.527
17023WAT      O51310   4.147   6.333   4.253
17023WAT     H151311   4.131   6.368   4.160
17023WAT     H251312   4.094   6.386   4.318
17024WAT      O51313   8.655   8.982   6.106
17024WAT     H151314   8.728   9.031   6.058
17024WAT     H251315   8.566   9.010   6.069
17025WAT      O51316   7.280   3.845   5.202
17025WAT     H151317   7.279   3.931   5.253
17025WAT     H251318   7.240   3.772   5.258
17026WAT      O51319   6.054   7.115   2.769
17026WAT     H151320   6.041   7.204   2.724
17026WAT     H251321   6.109   7.127   2.851
17027WAT      O51322   4.309   0.348   5.196
17027WAT     H151323   4.278   0.332   5.290
17027WAT     H251324   4.233   0.334   5.133
17028WAT      O51325   9.586   9.138   7.005
17028WAT     H151326   9.603   9.151   6.907
17028WAT     H251327   9.620   9.048   7.032
17029WAT      O51328   2.052   4.233   6.028
17029WAT     H151329   2.018   4.273   5.943
17029WAT     H251330   2.150   4.213   6.019
17030WAT      O51331   2.168   1.137   5.908
17030WAT     H151332   2.116   1.209   5.863
17030WAT     H251333   2.247   1.112   5.851
17031WAT      O51334   1.541   5.940   9.394
17031WAT     H151335   1.477   5.913   9.322
17031WAT     H251336   1.617   5.875   9.396
17032WAT      O51337   4.132   4.197   2.872
17032WAT     H151338   4.104   4.262   2.942
17032WAT     H251339   4.053   4.170   2.816
17033WAT      O51340   4.598   9.319   1.959
17033WAT     H151341   4.567   9.332   2.053
17033WAT     H251342   4.617   9.222   1.943
17034WAT      O51343   0.729   6.614   0.859
17034WAT     H151344   0.643   6.650   0.822
17034WAT     H251345   0.748   6.525   0.818
17035WAT      O51346   7.494   7.294   4.895
17035WAT     H151347   7.467   7.315   4.989
17035WAT     H251348   7.440   7.217   4.862
17036WAT      O51349   5.638   4.829   7.133
17036WAT     H151350   5.720   4.868   7.175
17036WAT     H251351   5.569   4.901   7.121
17037WAT      O51352   1.068   6.899   5.982
17037WAT     H151353   1.018   6.946   6.055
17037WAT     H251354   1.008   6.829   5.941
17038WAT      O51355   3.893   5.001   3.878
17038WAT     H151356   3.971   4.940   3.870
17038WAT     H251357   3.897   5.071   3.806
17039WAT      O51358   4.433   8.603   7.858
17039WAT     H151359   4.364   8.534   7.879
17039WAT     H251360   4.453   8.657   7.939
17040WAT      O51361   8.469   3.559   8.964
17040WAT     H151362   8.563   3.577   8.994
17040WAT     H251363   8.416   3.643   8.967
17041WAT      O51364   4.906   3.737   4.650
17041WAT     H151365   4.835   3.667   4.661
17041WAT     H251366   4.866   3.827   4.667
17042WAT      O51367   9.039   7.881   0.002
17042WAT     H151368   9.108   7.930  -0.051
17042WAT     H251369   9.027   7.925   0.091
17043WAT      O51370   3.662   7.446   9.679
17043WAT     H151371   3.616   7.531   9.705
17043WAT     H251372   3.701   7.455   9.588
17044WAT      O51373   4.687   6.611   7.187
17044WAT     H151374   4.730   6.551   7.254
17044WAT     H251375   4.757   6.655   7.132
17045WAT      O51376   4.233   2.865   0.326
17045WAT     H151377   4.323   2.906   0.338
17045WAT     H251378   4.242   2.766   0.317
17046WAT      O51379   5.257   5.324   2.414
17046WAT     H151380   5.176   5.308   2.357
17046WAT     H251381   5.257   5.419   2.447
17047WAT      O51382   7.883   2.570   2.814
17047WAT     H151383   7.913   2.514   2.891
17047WAT     H251384   7.902   2.666   2.834
17048WAT      O51385   5.589   1.487   2.281
17048WAT     H151386   5.532   1.488   2.199
17048WAT     H251387   5.569   1.405   2.335
17049WAT      O51388   6.913   7.981   2.976
17049WAT     H151389   6.946   7.895   3.016
17049WAT     H251390   6.964   8.058   3.015
17050WAT      O51391   9.617   2.687   1.280
17050WAT     H151392   9.643   2.596   1.249
17050WAT     H251393   9.661   2.707   1.367
17051WAT      O51394   8.548   3.257   5.380
17051WAT     H151395   8.622   3.285   5.442
17051WAT     H251396   8.461   3.259   5.429
17052WAT      O51397   5.393   5.497   8.060
17052WAT     H151398   5.397   5.571   8.127
17052WAT     H251399   5.327   5.428   8.091
17053WAT      O51400   9.006   9.745   4.716
17053WAT     H151401   9.022   9.651   4.745
17053WAT     H251402   9.075   9.805   4.758
17054WAT      O51403   8.900   8.504   4.493
17054WAT     H151404   8.919   8.493   4.396
17054WAT     H251405   8.874   8.599   4.512
17055WAT      O51406   0.433   4.638   9.406
17055WAT     H151407   0.367   4.627   9.480
17055WAT     H251408   0.435   4.733   9.376
17056WAT      O51409   7.690   3.982   0.307
17056WAT     H151410   7.675   4.067   0.356
17056WAT     H251411   7.652   3.989   0.215
17057WAT      O51412   2.634   4.740   1.344
17057WAT     H151413   2.667   4.794   1.421
17057WAT     H251414   2.600   4.652   1.377
17058WAT      O51415   2.889   1.476   8.012
17058WAT     H151416   2.955   1.401   8.000
17058WAT     H251417   2.937   1.563   8.008
17059WAT      O51418   2.587   6.513   9.468
17059WAT     H151419   2.625   6.458   9.394
17059WAT     H251420   2.548   6.452   9.537
17060WAT      O51421   2.467   3.863   1.662
17060WAT     H151422   2.448   3.878   1.565
17060WAT     H251423   2.470   3.951   1.710
17061WAT      O51424   0.987   1.649   8.387
17061WAT     H151425   0.899   1.602   8.382
17061WAT     H251426   1.060   1.583   8.404
17062WAT      O51427   2.877   8.502   2.470
17062WAT     H151428   2.863   8.559   2.550
17062WAT     H251429   2.826   8.417   2.480
17063WAT      O51430   6.340   1.356   5.704
17063WAT     H151431   6.313   1.451   5.690
17063WAT     H251432   6.410   1.331   5.637
17064WAT      O51433   2.196   7.559   5.093
17064WAT     H151434   2.153   7.489   5.149
17064WAT     H251435   2.160   7.555   5.000
17065WAT      O51436   7.853   3.569   2.529
17065WAT     H151437   7.932   3.509   2.544
17065WAT     H251438   7.881   3.646   2.472
17066WAT      O51439   2.711   7.240   5.589
17066WAT     H151440   2.741   7.159   5.639
17066WAT     H251441   2.645   7.291   5.644
17067WAT      O51442   3.061   6.590   1.282
17067WAT     H151443   3.066   6.592   1.381
17067WAT     H251444   3.061   6.496   1.249
17068WAT      O51445   9.217   6.411   0.634
17068WAT     H151446   9.269   6.454   0.561
17068WAT     H251447   9.149   6.475   0.669
17069WAT      O51448   8.572   9.503   6.435
17069WAT     H151449   8.561   9.456   6.522
17069WAT     H251450   8.559   9.601   6.448
17070WAT      O51451   8.985   5.642   0.504
17070WAT     H151452   9.019   5.551   0.526
17070WAT     H251453   8.973   5.651   0.405
17071WAT      O51454   6.139   4.716   0.416
17071WAT     H151455   6.148   4.753   0.323
17071WAT     H251456   6.229   4.703   0.456
17072WAT      O51457   4.898   2.432   4.062
17072WAT     H151458   4.899   2.353   4.001
17072WAT     H251459   4.805   2.452   4.091
17073WAT      O51460   1.778   4.692   8.659
17073WAT     H151461   1.861   4.724   8.706
17073WAT     H251462   1.801   4.616   8.599
17074WAT      O51463   3.332   6.240   3.949
17074WAT     H151464   3.256   6.235   4.014
17074WAT     H251465   3.418   6.227   3.997
17075WAT      O51466   3.184   4.551   6.434
17075WAT     H151467   3.257   4.569   6.367
17075WAT     H251468   3.113   4.621   6.426
17076WAT      O51469   3.011   5.666   0.245
17076WAT     H151470   2.922   5.662   0.200
17076WAT     H251471   3.031   5.578   0.289
17077WAT      O51472   4.547   3.515   4.992
17077WAT     H151473   4.618   3.568   4.946
17077WAT     H251474   4.465   3.571   5.002
17078WAT      O51475   3.841   6.450   6.030
17078WAT     H151476   3.904   6.524   6.053
17078WAT     H251477   3.780   6.480   5.956
17079WAT      O51478   6.202   5.600   5.281
17079WAT     H151479   6.288   5.553   5.301
17079WAT     H251480   6.171   5.650   5.362
17080WAT      O51481   2.577   3.024   5.272
17080WAT     H151482   2.642   3.003   5.345
17080WAT     H251483   2.553   3.121   5.276
17081WAT      O51484   8.563   3.280   0.235
17081WAT     H151485   8.649   3.270   0.185
17081WAT     H251486   8.490   3.307   0.171
17082WAT      O51487   0.385   1.616   6.229
17082WAT     H151488   0.305   1.666   6.198
17082WAT     H251489   0.357   1.531   6.274
17083WAT      O51490   6.789   7.354   8.120
17083WAT     H151491   6.791   7.256   8.139
17083WAT     H251492   6.818   7.404   8.202
17084WAT      O51493   5.013   4.839   6.899
17084WAT     H151494   4.939   4.807   6.839
17084WAT     H251495   5.058   4.760   6.941
17085WAT      O51496   4.856   2.044   7.526
17085WAT     H151497   4.819   2.038   7.619
17085WAT     H251498   4.946   2.001   7.523
17086WAT      O51499   4.289   7.333   7.159
17086WAT     H151500   4.387   7.349   7.146
17086WAT     H251501   4.259   7.255   7.105
17087WAT      O51502   0.642   8.359   1.139
17087WAT     H151503   0.640   8.398   1.231
17087WAT     H251504   0.724   8.391   1.091
17088WAT      O51505   6.643   0.563   8.220
17088WAT     H151506   6.624   0.604   8.131
17088WAT     H251507   6.557   0.535   8.263
17089WAT      O51508   4.071   3.093   5.437
17089WAT     H151509   3.994   3.157   5.439
17089WAT     H251510   4.153   3.141   5.405
17090WAT      O51511   7.603   7.137   1.849
17090WAT     H151512   7.602   7.044   1.887
17090WAT     H251513   7.510   7.174   1.850
17091WAT      O51514   8.483   1.226   4.611
17091WAT     H151515   8.424   1.161   4.563
17091WAT     H251516   8.487   1.311   4.559
17092WAT      O51517   1.642   7.899   8.240
17092WAT     H151518   1.690   7.986   8.224
17092WAT     H251519   1.600   7.869   8.155
17093WAT      O51520   7.631   5.497   6.693
17093WAT     H151521   7.565   5.470   6.762
17093WAT     H251522   7.685   5.418   6.665
17094WAT      O51523   8.996   2.348   2.581
17094WAT     H151524   9.040   2.427   2.538
17094WAT     H251525   9.003   2.269   2.520
17095WAT      O51526   7.931   0.513   7.763
17095WAT     H151527   7.833   0.495   7.756
17095WAT     H251528   7.953   0.546   7.854
17096WAT      O51529   6.823   8.366   1.550
17096WAT     H151530   6.764   8.431   1.598
17096WAT     H251531   6.851   8.406   1.462
17097WAT      O51532   3.537   2.198   9.761
17097WAT     H151533   3.553   2.282   9.707
17097WAT     H251534   3.516   2.223   9.855
17098WAT      O51535   1.586   9.664   8.446
17098WAT     H151536   1.619   9.604   8.518
17098WAT     H251537   1.537   9.610   8.378
17099WAT      O51538   6.951   6.006   7.960
17099WAT     H151539   6.882   6.073   7.986
17099WAT     H251540   6.907   5.926   7.918
17100WAT      O51541   2.688   6.385   3.110
17100WAT     H151542   2.654   6.291   3.113
17100WAT     H251543   2.725   6.409   3.200
17101WAT      O51544   0.777   1.266   7.749
17101WAT     H151545   0.871   1.297   7.734
17101WAT     H251546   0.715   1.320   7.693
17102WAT      O51547   9.334   3.707   9.384
17102WAT     H151548   9.385   3.626   9.415
17102WAT     H251549   9.397   3.784   9.372
17103WAT      O51550   7.564   6.512   1.751
17103WAT     H151551   7.615   6.485   1.669
17103WAT     H251552   7.594   6.455   1.828
17104WAT      O51553   1.948   0.654   6.440
17104WAT     H151554   2.007   0.717   6.490
17104WAT     H251555   1.881   0.614   6.503
17105WAT      O51556   5.438   7.897   8.056
17105WAT     H151557   5.351   7.917   8.011
17105WAT     H251558   5.466   7.975   8.112
17106WAT      O51559   8.650   9.194   5.573
17106WAT     H151560   8.596   9.111   5.564
17106WAT     H251561   8.748   9.172   5.565
17107WAT      O51562   3.652   8.467   4.970
17107WAT     H151563   3.702   8.381   4.958
17107WAT     H251564   3.588   8.458   5.046
17108WAT      O51565   4.888   9.248   3.747
17108WAT     H151566   4.859   9.205   3.662
17108WAT     H251567   4.829   9.217   3.822
17109WAT      O51568   0.753   5.264   2.250
17109WAT     H151569   0.752   5.358   2.215
17109WAT     H251570   0.795   5.263   2.341
17110WAT      O51571   2.437   7.494   0.620
17110WAT     H151572   2.427   7.576   0.563
17110WAT     H251573   2.358   7.485   0.680
17111WAT      O51574   9.670   3.785   7.962
17111WAT     H151575   9.624   3.857   8.014
17111WAT     H251576   9.766   3.809   7.949
17112WAT      O51577   2.692   8.261   2.441
17112WAT     H151578   2.626   8.333   2.419
17112WAT     H251579   2.652   8.198   2.507
17113WAT      O51580   3.711   7.753   3.621
17113WAT     H151581   3.741   7.662   3.651
17113WAT     H251582   3.740   7.821   3.688
17114WAT      O51583   9.175   9.832   2.879
17114WAT     H151584   9.185   9.769   2.802
17114WAT     H251585   9.091   9.811   2.928
17115WAT      O51586   5.038   0.629   2.832
17115WAT     H151587   5.026   0.648   2.734
17115WAT     H251588   5.115   0.565   2.843
17116WAT      O51589   6.176   7.100   0.199
17116WAT     H151590   6.077   7.109   0.194
17116WAT     H251591   6.214   7.092   0.107
17117WAT      O51592   0.155   4.807   2.460
17117WAT     H151593   0.121   4.725   2.415
17117WAT     H251594   0.205   4.863   2.395
17118WAT      O51595   9.708   6.088   7.014
17118WAT     H151596   9.731   6.084   6.917
17118WAT     H251597   9.611   6.107   7.026
17119WAT      O51598   2.392   1.619   3.833
17119WAT     H151599   2.435   1.568   3.908
17119WAT     H251600   2.333   1.690   3.871
17120WAT      O51601   0.754   6.184   7.352
17120WAT     H151602   0.847   6.149   7.365
17120WAT     H251603   0.688   6.110   7.363
17121WAT      O51604   0.144   4.149   6.737
17121WAT     H151605   0.079   4.130   6.664
17121WAT     H251606   0.237   4.139   6.702
17122WAT      O51607   3.966   5.806   1.118
17122WAT     H151608   4.049   5.839   1.165
17122WAT     H251609   3.989   5.782   1.024
17123WAT      O51610   4.584   7.110   3.096
17123WAT     H151611   4.499   7.151   3.063
17123WAT     H251612   4.624   7.169   3.167
17124WAT      O51613   0.630   3.941   1.290
17124WAT     H151614   0.717   3.966   1.249
17124WAT     H251615   0.640   3.938   1.389
17125WAT      O51616   3.658   1.413   6.443
17125WAT     H151617   3.628   1.362   6.363
17125WAT     H251618   3.682   1.506   6.416
17126WAT      O51619   5.923   8.580   5.103
17126WAT     H151620   5.980   8.510   5.060
17126WAT     H251621   5.958   8.602   5.194
17127WAT      O51622   6.176   4.016   9.309
17127WAT     H151623   6.247   4.064   9.257
17127WAT     H251624   6.136   4.079   9.376
17128WAT      O51625   0.477   8.238   8.732
17128WAT     H151626   0.390   8.278   8.704
17128WAT     H251627   0.503   8.274   8.822
17129WAT      O51628   1.473   6.198   7.889
17129WAT     H151629   1.429   6.241   7.968
17129WAT     H251630   1.447   6.247   7.806
17130WAT      O51631   3.765   8.850   7.057
17130WAT     H151632   3.722   8.817   6.973
17130WAT     H251633   3.842   8.791   7.081
17131WAT      O51634   9.003   5.466   1.029
17131WAT     H151635   8.954   5.443   1.113
17131WAT     H251636   8.969   5.554   0.995
17132WAT      O51637   9.084   5.330   9.690
17132WAT     H151638   9.147   5.405   9.673
17132WAT     H251639   8.990   5.361   9.675
17133WAT      O51640   5.118   2.057   2.780
17133WAT     H151641   5.082   2.037   2.871
17133WAT     H251642   5.187   1.989   2.756
17134WAT      O51643   5.559   8.873   0.294
17134WAT     H151644   5.515   8.963   0.284
17134WAT     H251645   5.578   8.856   0.390
17135WAT      O51646   2.422   9.121   7.038
17135WAT     H151647   2.331   9.161   7.043
17135WAT     H251648   2.469   9.154   6.956
17136WAT      O51649   7.888   7.202   9.403
17136WAT     H151650   7.883   7.221   9.501
17136WAT     H251651   7.807   7.149   9.376
17137WAT      O51652   6.464   5.895   0.717
17137WAT     H151653   6.390   5.963   0.717
17137WAT     H251654   6.519   5.906   0.800
17138WAT      O51655   9.484   7.738   6.882
17138WAT     H151656   9.555   7.771   6.819
17138WAT     H251657   9.511   7.649   6.918
17139WAT      O51658   4.944   4.737   0.478
17139WAT     H151659   4.961   4.660   0.416
17139WAT     H251660   4.860   4.784   0.452
17140WAT      O51661   2.056   6.169   8.537
17140WAT     H151662   1.985   6.099   8.523
17140WAT     H251663   2.015   6.260   8.529
17141WAT      O51664   6.710   6.099   2.003
17141WAT     H151665   6.675   6.065   2.090
17141WAT     H251666   6.794   6.050   1.980
17142WAT      O51667   2.704   6.733   4.598
17142WAT     H151668   2.801   6.708   4.590
17142WAT     H251669   2.670   6.705   4.687
17143WAT      O51670   8.798   1.869   5.905
17143WAT     H151671   8.821   1.946   5.845
17143WAT     H251672   8.745   1.801   5.853
17144WAT      O51673   8.499   6.605   5.615
17144WAT     H151674   8.411   6.628   5.574
17144WAT     H251675   8.539   6.526   5.567
17145WAT      O51676   3.759   0.117   0.297
17145WAT     H151677   3.682   0.181   0.296
17145WAT     H251678   3.811   0.128   0.381
17146WAT      O51679   0.240   4.529   3.348
17146WAT     H151680   0.272   4.500   3.438
17146WAT     H251681   0.243   4.451   3.285
17147WAT      O51682   4.639   3.740   4.810
17147WAT     H151683   4.556   3.790   4.835
17147WAT     H251684   4.715   3.773   4.867
17148WAT      O51685   5.499   2.096   8.840
17148WAT     H151686   5.558   2.171   8.870
17148WAT     H251687   5.474   2.110   8.744
17149WAT      O51688   7.345   5.095   9.457
17149WAT     H151689   7.322   5.186   9.492
17149WAT     H251690   7.444   5.083   9.456
17150WAT      O51691   5.103   7.730   0.162
17150WAT     H151692   5.051   7.797   0.216
17150WAT     H251693   5.167   7.778   0.103
17151WAT      O51694   5.400   8.655   8.562
17151WAT     H151695   5.435   8.666   8.655
17151WAT     H251696   5.427   8.734   8.507
17152WAT      O51697   5.332   8.956   7.770
17152WAT     H151698   5.371   9.048   7.763
17152WAT     H251699   5.339   8.910   7.682
17153WAT      O51700   5.515   0.360   6.654
17153WAT     H151701   5.561   0.406   6.578
17153WAT     H251702   5.573   0.361   6.735
17154WAT      O51703   7.036   2.647   7.842
17154WAT     H151704   7.018   2.607   7.752
17154WAT     H251705   7.071   2.739   7.830
17155WAT      O51706   9.823   8.810   9.684
17155WAT     H151707   9.836   8.789   9.780
17155WAT     H251708   9.725   8.813   9.662
17156WAT      O51709   3.070   7.305   7.616
17156WAT     H151710   3.138   7.290   7.688
17156WAT     H251711   3.032   7.217   7.587
17157WAT      O51712   4.357   8.577   5.178
17157WAT     H151713   4.266   8.536   5.167
17157WAT     H251714   4.413   8.554   5.098
17158WAT      O51715   8.470   1.969   8.165
17158WAT     H151716   8.518   1.988   8.079
17158WAT     H251717   8.403   1.896   8.152
17159WAT      O51718   4.502   9.209   3.275
17159WAT     H151719   4.540   9.302   3.272
17159WAT     H251720   4.417   9.210   3.328
17160WAT      O51721   0.016   1.721   3.431
17160WAT     H151722   0.020   1.748   3.527
17160WAT     H251723   0.059   1.792   3.375
17161WAT      O51724   7.192   9.031   2.546
17161WAT     H151725   7.206   9.130   2.546
17161WAT     H251726   7.277   8.985   2.521
17162WAT      O51727   7.477   2.402   8.403
17162WAT     H151728   7.553   2.463   8.425
17162WAT     H251729   7.472   2.391   8.303
17163WAT      O51730   6.762   4.145   8.318
17163WAT     H151731   6.732   4.234   8.282
17163WAT     H251732   6.688   4.079   8.310
17164WAT      O51733   6.071   6.344   6.808
17164WAT     H151734   5.997   6.331   6.874
17164WAT     H251735   6.155   6.303   6.842
17165WAT      O51736   9.474   9.305   4.807
17165WAT     H151737   9.383   9.264   4.803
17165WAT     H251738   9.524   9.268   4.885
17166WAT      O51739   0.066   4.256   9.720
17166WAT     H151740  -0.016   4.300   9.755
17166WAT     H251741   0.109   4.203   9.793
17167WAT      O51742   3.960   5.697   0.841
17167WAT     H151743   3.960   5.598   0.834
17167WAT     H251744   4.029   5.735   0.780
17168WAT      O51745   7.452   2.844   7.401
17168WAT     H151746   7.550   2.849   7.417
17168WAT     H251747   7.427   2.751   7.372
17169WAT      O51748   8.045   3.611   0.648
17169WAT     H151749   8.008   3.690   0.697
17169WAT     H251750   7.975   3.541   0.639
17170WAT      O51751   6.015   1.120   5.141
17170WAT     H151752   5.966   1.187   5.197
17170WAT     H251753   5.949   1.066   5.088
17171WAT      O51754   0.698   1.256   4.761
17171WAT     H151755   0.785   1.279   4.805
17171WAT     H251756   0.710   1.174   4.705
17172WAT      O51757   3.722   7.426   3.583
17172WAT     H151758   3.797   7.434   3.648
17172WAT     H251759   3.759   7.404   3.492
17173WAT      O51760   0.154   7.123   4.585
17173WAT     H151761   0.219   7.050   4.606
17173WAT     H251762   0.121   7.164   4.670
17174WAT      O51763   6.369   4.475   2.017
17174WAT     H151764   6.373   4.399   1.952
17174WAT     H251765   6.308   4.452   2.093
17175WAT      O51766   8.266   0.531   9.104
17175WAT     H151767   8.203   0.604   9.131
17175WAT     H251768   8.218   0.443   9.107
17176WAT      O51769   4.095   6.069   1.821
17176WAT     H151770   4.001   6.088   1.849
17176WAT     H251771   4.094   6.020   1.734
17177WAT      O51772   9.184   3.255   7.588
17177WAT     H151773   9.138   3.335   7.550
17177WAT     H251774   9.276   3.280   7.617
17178WAT      O51775   3.131   9.584   1.183
17178WAT     H151776   3.162   9.523   1.256
17178WAT     H251777   3.208   9.606   1.124
17179WAT      O51778   8.462   0.597   6.919
17179WAT     H151779   8.448   0.692   6.890
17179WAT     H251780   8.535   0.556   6.865
17180WAT      O51781   0.729   9.627   9.148
17180WAT     H151782   0.816   9.579   9.141
17180WAT     H251783   0.691   9.640   9.056
17181WAT      O51784   0.621   8.975   9.645
17181WAT     H151785   0.719   8.956   9.649
17181WAT     H251786   0.587   8.958   9.553
17182WAT      O51787   1.316   6.477   1.567
17182WAT     H151788   1.245   6.418   1.529
17182WAT     H251789   1.405   6.450   1.531
17183WAT      O51790   6.525   7.728   1.909
17183WAT     H151791   6.449   7.762   1.854
17183WAT     H251792   6.601   7.793   1.903
17184WAT      O51793   1.598   9.298   3.691
17184WAT     H151794   1.568   9.264   3.781
17184WAT     H251795   1.547   9.251   3.619
17185WAT      O51796   1.986   6.170   3.294
17185WAT     H151797   2.077   6.200   3.264
17185WAT     H251798   1.928   6.251   3.309
17186WAT      O51799   3.812   1.419   4.151
17186WAT     H151800   3.737   1.441   4.213
17186WAT     H251801   3.780   1.420   4.057
17187WAT      O51802   6.443   1.650   5.626
17187WAT     H151803   6.516   1.660   5.694
17187WAT     H251804   6.466   1.575   5.564
17188WAT      O51805   9.385   0.259   1.259
17188WAT     H151806   9.346   0.288   1.172
17188WAT     H251807   9.473   0.305   1.274
17189WAT      O51808   5.854   3.522   9.000
17189WAT     H151809   5.787   3.471   9.055
17189WAT     H251810   5.916   3.571   9.062
17190WAT      O51811   9.878   7.263   7.146
17190WAT     H151812   9.870   7.191   7.077
17190WAT     H251813   9.971   7.266   7.181
17191WAT      O51814   4.754   4.141   4.449
17191WAT     H151815   4.679   4.093   4.494
17191WAT     H251816   4.736   4.146   4.351
17192WAT      O51817   4.831   0.785   2.539
17192WAT     H151818   4.785   0.724   2.474
17192WAT     H251819   4.930   0.775   2.529
17193WAT      O51820   2.808   3.387   0.784
17193WAT     H151821   2.792   3.395   0.883
17193WAT     H251822   2.858   3.467   0.752
17194WAT      O51823   5.537   3.725   5.799
17194WAT     H151824   5.536   3.636   5.754
17194WAT     H251825   5.587   3.790   5.742
17195WAT      O51826   5.100   3.428   8.157
17195WAT     H151827   5.091   3.507   8.097
17195WAT     H251828   5.176   3.371   8.128
17196WAT      O51829   4.730   6.369   1.739
17196WAT     H151830   4.779   6.283   1.728
17196WAT     H251831   4.795   6.445   1.735
17197WAT      O51832   8.017   4.080   1.183
17197WAT     H151833   7.981   3.998   1.228
17197WAT     H251834   8.037   4.059   1.087
17198WAT      O51835   8.352   5.930   1.022
17198WAT     H151836   8.311   5.931   1.113
17198WAT     H251837   8.284   5.958   0.954
17199WAT      O51838   9.071   7.171   2.436
17199WAT     H151839   9.063   7.228   2.354
17199WAT     H251840   9.164   7.178   2.472
17200WAT      O51841   8.886   2.663   3.850
17200WAT     H151842   8.803   2.720   3.853
17200WAT     H251843   8.953   2.698   3.916
17201WAT      O51844   0.324   3.339   7.304
17201WAT     H151845   0.334   3.375   7.211
17201WAT     H251846   0.331   3.414   7.370
17202WAT      O51847   6.359   5.671   3.947
17202WAT     H151848   6.338   5.743   4.012
17202WAT     H251849   6.337   5.582   3.988
17203WAT      O51850   4.866   8.063   0.026
17203WAT     H151851   4.783   8.060  -0.030
17203WAT     H251852   4.946   8.071  -0.033
17204WAT      O51853   0.022   3.381   2.428
17204WAT     H151854   0.047   3.374   2.524
17204WAT     H251855  -0.064   3.334   2.412
17205WAT      O51856   2.354   4.888   7.212
17205WAT     H151857   2.352   4.988   7.215
17205WAT     H251858   2.261   4.853   7.225
17206WAT      O51859   8.956   7.379   2.631
17206WAT     H151860   8.989   7.323   2.555
17206WAT     H251861   8.925   7.467   2.596
17207WAT      O51862   7.365   0.287   4.204
17207WAT     H151863   7.273   0.326   4.204
17207WAT     H251864   7.387   0.256   4.112
17208WAT      O51865   7.394   5.148   2.694
17208WAT     H151866   7.480   5.189   2.664
17208WAT     H251867   7.357   5.090   2.621
17209WAT      O51868   6.582   0.720   0.950
17209WAT     H151869   6.649   0.646   0.939
17209WAT     H251870   6.620   0.805   0.911
17210WAT      O51871   8.656   0.394   7.909
17210WAT     H151872   8.735   0.379   7.968
17210WAT     H251873   8.673   0.473   7.850
17211WAT      O51874   5.717   3.088   9.667
17211WAT     H151875   5.637   3.088   9.607
17211WAT     H251876   5.694   3.134   9.753
17212WAT      O51877   9.400   6.121   7.161
17212WAT     H151878   9.375   6.150   7.254
17212WAT     H251879   9.343   6.044   7.134
17213WAT      O51880   8.125   9.799   1.277
17213WAT     H151881   8.109   9.701   1.278
17213WAT     H251882   8.213   9.819   1.320
17214WAT      O51883   3.634   0.866   6.807
17214WAT     H151884   3.689   0.930   6.861
17214WAT     H251885   3.653   0.881   6.710
17215WAT      O51886   1.927   5.823   0.605
17215WAT     H151887   1.946   5.911   0.648
17215WAT     H251888   1.953   5.827   0.508
17216WAT      O51889   0.503   0.629   7.023
17216WAT     H151890   0.556   0.627   7.108
17216WAT     H251891   0.564   0.614   6.945
17217WAT      O51892   9.793   6.033   2.623
17217WAT     H151893   9.775   6.104   2.691
17217WAT     H251894   9.858   5.967   2.660
17218WAT      O51895   9.369   9.165   6.406
17218WAT     H151896   9.332   9.128   6.491
17218WAT     H251897   9.294   9.195   6.347
17219WAT      O51898   1.855   6.506   2.237
17219WAT     H151899   1.924   6.442   2.268
17219WAT     H251900   1.869   6.526   2.140
17220WAT      O51901   3.394   5.052   7.810
17220WAT     H151902   3.350   5.083   7.895
17220WAT     H251903   3.487   5.022   7.830
17221WAT      O51904   1.820   4.719   9.495
17221WAT     H151905   1.871   4.716   9.581
17221WAT     H251906   1.856   4.792   9.437
17222WAT      O51907   4.519   1.445   1.168
17222WAT     H151908   4.468   1.498   1.236
17222WAT     H251909   4.489   1.473   1.076
17223WAT      O51910   2.236   6.819   8.555
17223WAT     H151911   2.309   6.771   8.604
17223WAT     H251912   2.178   6.867   8.621
17224WAT      O51913   3.522   1.984   3.493
17224WAT     H151914   3.564   2.071   3.518
17224WAT     H251915   3.572   1.909   3.536
17225WAT      O51916   9.049   5.112   0.674
17225WAT     H151917   9.036   5.014   0.689
17225WAT     H251918   9.146   5.134   0.676
17226WAT      O51919   6.278   7.744   3.999
17226WAT     H151920   6.368   7.743   3.956
17226WAT     H251921   6.281   7.800   4.081
17227WAT      O51922   5.492   5.050   3.578
17227WAT     H151923   5.462   5.135   3.536
17227WAT     H251924   5.534   4.992   3.508
17228WAT      O51925   2.972   4.425   8.304
17228WAT     H151926   2.990   4.462   8.213
17228WAT     H251927   2.879   4.389   8.307
17229WAT      O51928   8.963   7.887   6.700
17229WAT     H151929   8.988   7.984   6.708
17229WAT     H251930   9.044   7.830   6.717
17230WAT      O51931   7.448   3.124   3.024
17230WAT     H151932   7.468   3.065   2.946
17230WAT     H251933   7.357   3.163   3.014
17231WAT      O51934   1.600   4.050   8.302
17231WAT     H151935   1.619   4.097   8.388
17231WAT     H251936   1.594   4.117   8.228
17232WAT      O51937   9.037   0.440   3.587
17232WAT     H151938   8.975   0.434   3.666
17232WAT     H251939   9.098   0.518   3.599
17233WAT      O51940   0.461   1.247   0.543
17233WAT     H151941   0.454   1.224   0.445
17233WAT     H251942   0.372   1.234   0.586
17234WAT      O51943   2.283   6.908   8.276
17234WAT     H151944   2.198   6.889   8.326
17234WAT     H251945   2.315   6.824   8.232
17235WAT      O51946   9.601   0.440   1.286
17235WAT     H151947   9.681   0.395   1.327
17235WAT     H251948   9.617   0.455   1.189
17236WAT      O51949   2.352   0.700   3.776
17236WAT     H151950   2.289   0.721   3.851
17236WAT     H251951   2.299   0.681   3.693
17237WAT      O51952   2.507   2.474   5.740
17237WAT     H151953   2.511   2.526   5.825
17237WAT     H251954   2.430   2.411   5.743
17238WAT      O51955   0.995   0.393   9.110
17238WAT     H151956   0.953   0.304   9.088
17238WAT     H251957   0.938   0.466   9.072
17239WAT      O51958   7.047   6.745   4.115
17239WAT     H151959   6.979   6.677   4.085
17239WAT     H251960   7.132   6.732   4.065
17240WAT      O51961   6.623   2.646   5.213
17240WAT     H151962   6.545   2.590   5.186
17240WAT     H251963   6.592   2.717   5.277
17241WAT      O51964   5.616   5.137   8.503
17241WAT     H151965   5.563   5.130   8.588
17241WAT     H251966   5.605   5.229   8.465
17242WAT      O51967   8.584   7.318   9.175
17242WAT     H151968   8.499   7.266   9.188
17242WAT     H251969   8.619   7.302   9.083
17243WAT      O51970   5.959   2.084   7.689
17243WAT     H151971   5.987   2.121   7.778
17243WAT     H251972   5.944   2.159   7.625
17244WAT      O51973   4.574   8.651   9.369
17244WAT     H151974   4.588   8.659   9.468
17244WAT     H251975   4.552   8.557   9.346
17245WAT      O51976   4.940   4.226   8.577
17245WAT     H151977   4.883   4.305   8.555
17245WAT     H251978   4.936   4.159   8.503
17246WAT      O51979   2.504   6.305   7.623
17246WAT     H151980   2.571   6.240   7.657
17246WAT     H251981   2.478   6.281   7.529
17247WAT      O51982   6.024   0.633   7.740
17247WAT     H151983   5.960   0.674   7.674
17247WAT     H251984   6.103   0.596   7.691
17248WAT      O51985   7.805   2.311   9.780
17248WAT     H151986   7.776   2.370   9.855
17248WAT     H251987   7.726   2.290   9.722
17249WAT      O51988   3.024   0.383   8.780
17249WAT     H151989   3.080   0.300   8.772
17249WAT     H251990   3.077   0.455   8.825
17250WAT      O51991   4.826   8.800   2.026
17250WAT     H151992   4.901   8.738   2.003
17250WAT     H251993   4.860   8.872   2.085
17251WAT      O51994   4.752   9.586   0.470
17251WAT     H151995   4.687   9.624   0.405
17251WAT     H251996   4.777   9.493   0.443
17252WAT      O51997   6.717   0.618   0.244
17252WAT     H151998   6.697   0.703   0.293
17252WAT     H251999   6.791   0.570   0.290
17253WAT      O52000   4.280   3.083   6.359
17253WAT     H152001   4.341   3.091   6.279
17253WAT     H252002   4.212   3.157   6.355
17254WAT      O52003   9.220   4.544   9.784
17254WAT     H152004   9.307   4.590   9.802
17254WAT     H252005   9.238   4.449   9.758
17255WAT      O52006   6.215   5.106   0.574
17255WAT     H152007   6.225   5.053   0.490
17255WAT     H252008   6.231   5.203   0.554
17256WAT      O52009   9.246   8.526   1.835
17256WAT     H152010   9.220   8.440   1.879
17256WAT     H252011   9.295   8.583   1.901
17257WAT      O52012   1.283   8.007   1.825
17257WAT     H152013   1.226   7.954   1.888
17257WAT     H252014   1.256   8.103   1.829
17258WAT      O52015   1.985   4.244   3.007
17258WAT     H152016   2.045   4.236   3.087
17258WAT     H252017   2.022   4.190   2.932
17259WAT      O52018   7.277   9.140   7.287
17259WAT     H152019   7.221   9.165   7.208
17259WAT     H252020   7.367   9.181   7.279
17260WAT      O52021   3.042   8.209   1.038
17260WAT     H152022   3.130   8.249   1.014
17260WAT     H252023   3.033   8.120   0.995
17261WAT      O52024   8.714   2.446   4.269
17261WAT     H152025   8.772   2.422   4.190
17261WAT     H252026   8.709   2.545   4.277
17262WAT      O52027   6.961   1.727   9.796
17262WAT     H152028   7.004   1.696   9.880
17262WAT     H252029   6.875   1.678   9.782
17263WAT      O52030   9.088   2.767   6.713
17263WAT     H152031   9.111   2.696   6.779
17263WAT     H252032   9.173   2.810   6.680
17264WAT      O52033   2.591   8.040   4.592
17264WAT     H152034   2.594   8.136   4.621
17264WAT     H252035   2.651   7.986   4.651
17265WAT      O52036   0.828   7.138   4.296
17265WAT     H152037   0.833   7.195   4.214
17265WAT     H252038   0.887   7.178   4.367
17266WAT      O52039   0.220   0.986   2.147
17266WAT     H152040   0.172   1.062   2.191
17266WAT     H252041   0.198   0.901   2.194
17267WAT      O52042   8.930   9.510   9.532
17267WAT     H152043   8.876   9.501   9.448
17267WAT     H252044   8.877   9.560   9.600
17268WAT      O52045   9.198   9.841   7.926
17268WAT     H152046   9.192   9.746   7.895
17268WAT     H252047   9.141   9.899   7.869
17269WAT      O52048   0.394   0.704   9.750
17269WAT     H152049   0.416   0.783   9.693
17269WAT     H252050   0.431   0.622   9.708
17270WAT      O52051   1.557   9.157   4.834
17270WAT     H152052   1.507   9.109   4.906
17270WAT     H252053   1.624   9.218   4.875
17271WAT      O52054   3.122   1.595   0.886
17271WAT     H152055   3.057   1.601   0.810
17271WAT     H252056   3.147   1.500   0.900
17272WAT      O52057   5.039   4.841   3.519
17272WAT     H152058   4.997   4.764   3.567
17272WAT     H252059   4.968   4.898   3.478
17273WAT      O52060   8.261   8.028   2.563
17273WAT     H152061   8.344   8.011   2.616
17273WAT     H252062   8.214   7.941   2.545
17274WAT      O52063   8.197   4.691   4.320
17274WAT     H152064   8.132   4.745   4.267
17274WAT     H252065   8.281   4.677   4.268
17275WAT      O52066   2.757   9.845   3.253
17275WAT     H152067   2.798   9.867   3.341
17275WAT     H252068   2.738   9.747   3.248
17276WAT      O52069   0.969   9.477   4.329
17276WAT     H152070   0.931   9.512   4.414
17276WAT     H252071   1.067   9.497   4.326
17277WAT      O52072   2.223   3.163   6.360
17277WAT     H152073   2.201   3.065   6.366
17277WAT     H252074   2.320   3.177   6.379
17278WAT      O52075   9.691   3.345   2.722
17278WAT     H152076   9.745   3.267   2.691
17278WAT     H252077   9.640   3.319   2.805
17279WAT      O52078   3.927   5.762   8.895
17279WAT     H152079   4.016   5.784   8.853
17279WAT     H252080   3.921   5.806   8.984
17280WAT      O52081   9.451   3.856   1.896
17280WAT     H152082   9.382   3.886   1.962
17280WAT     H252083   9.412   3.785   1.838
17281WAT      O52084   4.209   5.833   4.951
17281WAT     H152085   4.267   5.801   5.026
17281WAT     H252086   4.132   5.769   4.940
17282WAT      O52087   8.194   2.151   1.142
17282WAT     H152088   8.190   2.051   1.131
17282WAT     H252089   8.120   2.194   1.091
17283WAT      O52090   6.580   2.164   3.608
17283WAT     H152091   6.596   2.133   3.702
17283WAT     H252092   6.493   2.126   3.574
17284WAT      O52093   7.158   1.674   7.876
17284WAT     H152094   7.129   1.593   7.927
17284WAT     H252095   7.250   1.659   7.840
17285WAT      O52096   9.604   5.492   8.129
17285WAT     H152097   9.692   5.456   8.098
17285WAT     H252098   9.611   5.591   8.142
17286WAT      O52099   5.145   2.163   7.706
17286WAT     H152100   5.176   2.136   7.798
17286WAT     H252101   5.114   2.259   7.709
17287WAT      O52102   6.883   3.254   4.113
17287WAT     H152103   6.967   3.292   4.075
17287WAT     H252104   6.821   3.230   4.038
17288WAT      O52105   3.769   7.072   3.139
17288WAT     H152106   3.776   7.143   3.209
17288WAT     H252107   3.684   7.085   3.087
17289WAT      O52108   5.098   7.262   4.786
17289WAT     H152109   5.112   7.163   4.792
17289WAT     H252110   5.183   7.306   4.757
17290WAT      O52111   3.900   4.561   7.871
17290WAT     H152112   3.934   4.636   7.814
17290WAT     H252113   3.842   4.501   7.816
17291WAT      O52114   9.119   7.522   0.107
17291WAT     H152115   9.034   7.522   0.054
17291WAT     H252116   9.183   7.457   0.066
17292WAT      O52117   4.838   2.357   6.154
17292WAT     H152118   4.810   2.288   6.087
17292WAT     H252119   4.795   2.337   6.242
17293WAT      O52120   1.982   3.308   2.923
17293WAT     H152121   2.035   3.372   2.979
17293WAT     H252122   1.953   3.231   2.980
17294WAT      O52123   3.668   1.541   1.647
17294WAT     H152124   3.589   1.561   1.590
17294WAT     H252125   3.682   1.616   1.712
17295WAT      O52126   5.828   7.933   6.946
17295WAT     H152127   5.895   7.862   6.927
17295WAT     H252128   5.737   7.901   6.918
17296WAT      O52129   5.916   8.509   9.340
17296WAT     H152130   6.006   8.489   9.377
17296WAT     H252131   5.904   8.608   9.333
17297WAT      O52132   0.783   9.366   5.320
17297WAT     H152133   0.797   9.460   5.351
17297WAT     H252134   0.733   9.366   5.234
17298WAT      O52135   7.953   2.529   8.195
17298WAT     H152136   7.878   2.585   8.159
17298WAT     H252137   7.915   2.454   8.249
17299WAT      O52138   3.288   9.567   5.910
17299WAT     H152139   3.315   9.475   5.882
17299WAT     H252140   3.201   9.591   5.865
17300WAT      O52141   5.192   4.329   0.952
17300WAT     H152142   5.201   4.345   1.050
17300WAT     H252143   5.167   4.415   0.907
17301WAT      O52144   4.258   3.252   5.877
17301WAT     H152145   4.191   3.280   5.809
17301WAT     H252146   4.339   3.216   5.831
17302WAT      O52147   8.834   2.142   0.997
17302WAT     H152148   8.784   2.207   1.055
17302WAT     H252149   8.908   2.100   1.049
17303WAT      O52150   1.491   6.058   7.445
17303WAT     H152151   1.590   6.065   7.448
17303WAT     H252152   1.460   6.057   7.350
17304WAT      O52153   7.414   9.832   9.564
17304WAT     H152154   7.490   9.874   9.513
17304WAT     H252155   7.414   9.866   9.658
17305WAT      O52156   8.130   2.648   7.268
17305WAT     H152157   8.034   2.670   7.288
17305WAT     H252158   8.140   2.549   7.262
17306WAT      O52159   2.496   4.050   6.542
17306WAT     H152160   2.473   4.009   6.454
17306WAT     H252161   2.424   4.114   6.569
17307WAT      O52162   6.732   1.172   2.052
17307WAT     H152163   6.684   1.120   1.981
17307WAT     H252164   6.810   1.219   2.011
17308WAT      O52165   6.813   6.615   8.597
17308WAT     H152166   6.723   6.598   8.636
17308WAT     H252167   6.865   6.676   8.657
17309WAT      O52168   3.765   8.839   2.922
17309WAT     H152169   3.718   8.824   2.835
17309WAT     H252170   3.864   8.841   2.907
17310WAT      O52171   2.301   5.221   6.346
17310WAT     H152172   2.205   5.192   6.345
17310WAT     H252173   2.305   5.321   6.338
17311WAT      O52174   4.598   2.884   7.212
17311WAT     H152175   4.677   2.943   7.229
17311WAT     H252176   4.554   2.912   7.126
17312WAT      O52177   1.986   5.751   6.843
17312WAT     H152178   1.919   5.762   6.770
17312WAT     H252179   2.077   5.773   6.809
17313WAT      O52180   9.436   8.582   4.516
17313WAT     H152181   9.534   8.602   4.514
17313WAT     H252182   9.386   8.663   4.547
17314WAT      O52183   0.188   9.325   3.020
17314WAT     H152184   0.122   9.396   3.046
17314WAT     H252185   0.210   9.269   3.099
17315WAT      O52186   5.679   0.336   9.187
17315WAT     H152187   5.667   0.268   9.260
17315WAT     H252188   5.746   0.405   9.217
17316WAT      O52189   0.053   2.540   1.477
17316WAT     H152190   0.114   2.482   1.531
17316WAT     H252191   0.102   2.621   1.447
17317WAT      O52192   1.633   6.774   4.511
17317WAT     H152193   1.624   6.697   4.448
17317WAT     H252194   1.722   6.770   4.555
17318WAT      O52195   4.978   8.508   5.474
17318WAT     H152196   5.068   8.549   5.491
17318WAT     H252197   4.971   8.421   5.522
17319WAT      O52198   0.655   5.352   8.983
17319WAT     H152199   0.595   5.363   8.904
17319WAT     H252200   0.695   5.441   9.006
17320WAT      O52201   9.090   1.815   8.876
17320WAT     H152202   9.040   1.746   8.928
17320WAT     H252203   9.158   1.770   8.818
17321WAT      O52204   3.981   6.531   4.339
17321WAT     H152205   3.891   6.547   4.380
17321WAT     H252206   4.029   6.618   4.330
17322WAT      O52207   4.300   0.619   1.400
17322WAT     H152208   4.365   0.627   1.476
17322WAT     H252209   4.236   0.696   1.404
17323WAT      O52210   2.991   3.021   8.856
17323WAT     H152211   3.075   3.060   8.820
17323WAT     H252212   2.948   2.964   8.786
17324WAT      O52213   2.700   6.439   9.223
17324WAT     H152214   2.779   6.480   9.268
17324WAT     H252215   2.731   6.373   9.154
17325WAT      O52216   4.184   6.700   5.435
17325WAT     H152217   4.108   6.749   5.393
17325WAT     H252218   4.186   6.606   5.401
17326WAT      O52219   6.284   4.667   2.821
17326WAT     H152220   6.284   4.603   2.898
17326WAT     H252221   6.190   4.692   2.797
17327WAT      O52222   6.971   1.325   8.406
17327WAT     H152223   7.009   1.282   8.488
17327WAT     H252224   7.043   1.333   8.337
17328WAT      O52225   7.178   8.562   7.895
17328WAT     H152226   7.142   8.655   7.899
17328WAT     H252227   7.135   8.506   7.966
17329WAT      O52228   7.627   0.579   9.414
17329WAT     H152229   7.676   0.517   9.352
17329WAT     H252230   7.630   0.543   9.507
17330WAT      O52231   6.906   7.875   6.829
17330WAT     H152232   6.987   7.837   6.784
17330WAT     H252233   6.897   7.833   6.920
17331WAT      O52234   2.227   3.415   8.556
17331WAT     H152235   2.188   3.377   8.472
17331WAT     H252236   2.169   3.489   8.589
17332WAT      O52237   0.230   8.487   1.777
17332WAT     H152238   0.266   8.550   1.708
17332WAT     H252239   0.197   8.539   1.856
17333WAT      O52240   0.050   3.906   2.993
17333WAT     H152241   0.146   3.920   3.017
17333WAT     H252242  -0.008   3.941   3.067
17334WAT      O52243   1.312   6.584   9.614
17334WAT     H152244   1.372   6.548   9.544
17334WAT     H252245   1.216   6.570   9.587
17335WAT      O52246   1.556   4.985   4.118
17335WAT     H152247   1.495   4.908   4.098
17335WAT     H252248   1.644   4.951   4.151
17336WAT      O52249   5.357   2.935   3.318
17336WAT     H152250   5.421   3.004   3.285
17336WAT     H252251   5.310   2.893   3.240
17337WAT      O52252   5.485   2.266   4.558
17337WAT     H152253   5.559   2.213   4.599
17337WAT     H252254   5.512   2.296   4.466
17338WAT      O52255   1.806   5.590   8.030
17338WAT     H152256   1.871   5.560   7.960
17338WAT     H252257   1.717   5.549   8.013
17339WAT      O52258   5.592   8.688   1.473
17339WAT     H152259   5.519   8.627   1.505
17339WAT     H252260   5.594   8.688   1.373
17340WAT      O52261   6.525   9.397   2.603
17340WAT     H152262   6.522   9.493   2.575
17340WAT     H252263   6.620   9.369   2.618
17341WAT      O52264   8.173   9.799   8.193
17341WAT     H152265   8.168   9.710   8.239
17341WAT     H252266   8.141   9.870   8.256
17342WAT      O52267   0.840   7.733   2.509
17342WAT     H152268   0.901   7.717   2.430
17342WAT     H252269   0.786   7.816   2.493
17343WAT      O52270   8.277   7.966   5.430
17343WAT     H152271   8.304   8.055   5.393
17343WAT     H252272   8.185   7.974   5.470
17344WAT      O52273   5.963   3.019   3.838
17344WAT     H152274   5.903   2.991   3.763
17344WAT     H252275   5.955   2.954   3.913
17345WAT      O52276   0.958   7.407   6.215
17345WAT     H152277   1.040   7.403   6.158
17345WAT     H252278   0.947   7.320   6.264
17346WAT      O52279   0.648   0.252   3.061
17346WAT     H152280   0.712   0.306   3.006
17346WAT     H252281   0.665   0.270   3.158
17347WAT      O52282   7.324   4.335   9.700
17347WAT     H152283   7.370   4.246   9.703
17347WAT     H252284   7.243   4.328   9.641
17348WAT      O52285   2.592   4.249   6.911
17348WAT     H152286   2.555   4.303   6.835
17348WAT     H252287   2.644   4.310   6.971
17349WAT      O52288   4.833   3.693   9.379
17349WAT     H152289   4.915   3.645   9.413
17349WAT     H252290   4.764   3.625   9.353
17350WAT      O52291   1.406   5.089   7.080
17350WAT     H152292   1.455   5.002   7.072
17350WAT     H252293   1.431   5.134   7.166
17351WAT      O52294   7.368   7.045   8.716
17351WAT     H152295   7.372   7.113   8.789
17351WAT     H252296   7.398   7.087   8.630
17352WAT      O52297   1.694   7.159   6.035
17352WAT     H152298   1.742   7.243   6.010
17352WAT     H252299   1.682   7.156   6.135
17353WAT      O52300   0.899   5.750   1.670
17353WAT     H152301   0.980   5.693   1.683
17353WAT     H252302   0.885   5.809   1.749
17354WAT      O52303   6.993   8.344   0.766
17354WAT     H152304   6.989   8.375   0.861
17354WAT     H252305   7.040   8.256   0.761
17355WAT      O52306   9.543   6.749   3.099
17355WAT     H152307   9.593   6.810   3.039
17355WAT     H252308   9.531   6.792   3.189
17356WAT      O52309   9.337   8.224   8.695
17356WAT     H152310   9.266   8.282   8.735
17356WAT     H252311   9.329   8.132   8.733
17357WAT      O52312   7.864   4.494   0.534
17357WAT     H152313   7.774   4.497   0.491
17357WAT     H252314   7.854   4.504   0.633
17358WAT      O52315   4.756   6.752   1.539
17358WAT     H152316   4.790   6.707   1.457
17358WAT     H252317   4.659   6.774   1.528
17359WAT      O52318   0.954   6.684   3.151
17359WAT     H152319   0.914   6.620   3.085
17359WAT     H252320   1.006   6.754   3.102
17360WAT      O52321   7.145   9.086   4.979
17360WAT     H152322   7.068   9.112   5.037
17360WAT     H252323   7.173   8.992   5.000
17361WAT      O52324   5.375   8.547   1.549
17361WAT     H152325   5.361   8.462   1.498
17361WAT     H252326   5.306   8.554   1.621
17362WAT      O52327   4.804   8.216   4.909
17362WAT     H152328   4.809   8.234   5.008
17362WAT     H252329   4.794   8.117   4.894
17363WAT      O52330   4.287   3.335   1.881
17363WAT     H152331   4.254   3.241   1.874
17363WAT     H252332   4.218   3.391   1.928
17364WAT      O52333   1.702   7.428   5.044
17364WAT     H152334   1.672   7.366   5.116
17364WAT     H252335   1.801   7.426   5.037
17365WAT      O52336   3.576   5.075   6.937
17365WAT     H152337   3.581   5.128   6.852
17365WAT     H252338   3.527   5.128   7.007
17366WAT      O52339   4.311   9.344   4.160
17366WAT     H152340   4.246   9.319   4.088
17366WAT     H252341   4.400   9.364   4.118
17367WAT      O52342   5.199   7.134   2.489
17367WAT     H152343   5.116   7.164   2.441
17367WAT     H252344   5.174   7.105   2.581
17368WAT      O52345   3.059   6.500   2.895
17368WAT     H152346   2.984   6.436   2.879
17368WAT     H252347   3.021   6.590   2.916
17369WAT      O52348   4.649   4.383   5.059
17369WAT     H152349   4.637   4.285   5.074
17369WAT     H252350   4.660   4.400   4.961
17370WAT      O52351   4.015   0.853   6.692
17370WAT     H152352   3.952   0.927   6.673
17370WAT     H252353   4.026   0.843   6.791
17371WAT      O52354   2.419   0.428   0.242
17371WAT     H152355   2.379   0.497   0.303
17371WAT     H252356   2.510   0.458   0.214
17372WAT      O52357   6.274   2.996   5.357
17372WAT     H152358   6.260   3.002   5.456
17372WAT     H252359   6.318   3.080   5.325
17373WAT      O52360   3.054   0.707   2.202
17373WAT     H152361   2.977   0.643   2.197
17373WAT     H252362   3.132   0.662   2.243
17374WAT      O52363   6.188   9.033   7.083
17374WAT     H152364   6.113   9.053   7.020
17374WAT     H252365   6.273   9.070   7.047
17375WAT      O52366   3.742   8.932   3.615
17375WAT     H152367   3.668   8.944   3.681
17375WAT     H252368   3.825   8.976   3.649
17376WAT      O52369   2.803   1.735   4.003
17376WAT     H152370   2.732   1.802   3.985
17376WAT     H252371   2.870   1.773   4.067
17377WAT      O52372   2.306   6.632   7.156
17377WAT     H152373   2.379   6.565   7.169
17377WAT     H252374   2.255   6.610   7.073
17378WAT      O52375   9.704   8.228   9.363
17378WAT     H152376   9.619   8.187   9.396
17378WAT     H252377   9.732   8.300   9.426
17379WAT      O52378   9.660   0.941   7.934
17379WAT     H152379   9.736   0.877   7.944
17379WAT     H252380   9.649   0.966   7.838
17380WAT      O52381   9.656   8.746   7.800
17380WAT     H152382   9.636   8.769   7.704
17380WAT     H252383   9.749   8.777   7.823
17381WAT      O52384   4.060   5.580   3.643
17381WAT     H152385   4.034   5.493   3.684
17381WAT     H252386   4.041   5.655   3.707
17382WAT      O52387   6.259   0.615   2.846
17382WAT     H152388   6.169   0.574   2.827
17382WAT     H252389   6.297   0.575   2.929
17383WAT      O52390   5.859   4.892   2.583
17383WAT     H152391   5.912   4.961   2.534
17383WAT     H252392   5.820   4.827   2.517
17384WAT      O52393   0.156   8.359   7.318
17384WAT     H152394   0.243   8.396   7.350
17384WAT     H252395   0.173   8.278   7.261
17385WAT      O52396   7.680   0.170   0.909
17385WAT     H152397   7.581   0.179   0.910
17385WAT     H252398   7.718   0.222   0.832
17386WAT      O52399   3.607   7.414   4.093
17386WAT     H152400   3.629   7.345   4.024
17386WAT     H252401   3.627   7.505   4.057
17387WAT      O52402   6.854   1.770   4.033
17387WAT     H152403   6.901   1.820   3.960
17387WAT     H252404   6.755   1.773   4.018
17388WAT      O52405   1.704   3.805   8.234
17388WAT     H152406   1.681   3.731   8.297
17388WAT     H252407   1.639   3.880   8.246
17389WAT      O52408   6.710   7.592   4.195
17389WAT     H152409   6.629   7.570   4.141
17389WAT     H252410   6.744   7.509   4.239
17390WAT      O52411   9.861   4.015   7.308
17390WAT     H152412   9.825   4.104   7.279
17390WAT     H252413   9.793   3.944   7.289
17391WAT      O52414   4.548   8.371   6.939
17391WAT     H152415   4.591   8.414   6.860
17391WAT     H252416   4.470   8.426   6.969
17392WAT      O52417   8.307   6.797   4.933
17392WAT     H152418   8.212   6.809   4.963
17392WAT     H252419   8.308   6.776   4.836
17393WAT      O52420   9.008   2.224   4.244
17393WAT     H152421   8.930   2.223   4.182
17393WAT     H252422   8.994   2.292   4.315
17394WAT      O52423   2.522   0.684   1.308
17394WAT     H152424   2.460   0.611   1.279
17394WAT     H252425   2.574   0.717   1.229
17395WAT      O52426   5.555   8.395   9.198
17395WAT     H152427   5.579   8.455   9.122
17395WAT     H252428   5.494   8.323   9.166
17396WAT      O52429   7.696   1.687   1.682
17396WAT     H152430   7.646   1.695   1.596
17396WAT     H252431   7.679   1.597   1.723
17397WAT      O52432   6.270   9.635   7.487
17397WAT     H152433   6.343   9.684   7.534
17397WAT     H252434   6.305   9.547   7.454
17398WAT      O52435   0.933   0.361   1.112
17398WAT     H152436   1.014   0.387   1.060
17398WAT     H252437   0.907   0.436   1.172
17399WAT      O52438   6.817   5.087   1.267
17399WAT     H152439   6.769   5.040   1.193
17399WAT     H252440   6.818   5.029   1.349
17400WAT      O52441   4.374   2.105   7.965
17400WAT     H152442   4.296   2.047   7.990
17400WAT     H252443   4.361   2.138   7.871
17401WAT      O52444   0.143   1.909   3.291
17401WAT     H152445   0.239   1.907   3.320
17401WAT     H252446   0.118   2.003   3.265
17402WAT      O52447   3.590   0.338   0.818
17402WAT     H152448   3.497   0.306   0.800
17402WAT     H252449   3.587   0.433   0.850
17403WAT      O52450   4.369   6.096   7.560
17403WAT     H152451   4.418   6.183   7.569
17403WAT     H252452   4.330   6.072   7.649
17404WAT      O52453   5.374   2.613   4.635
17404WAT     H152454   5.324   2.557   4.569
17404WAT     H252455   5.334   2.705   4.638
17405WAT      O52456   5.411   9.369   2.833
17405WAT     H152457   5.458   9.282   2.842
17405WAT     H252458   5.313   9.357   2.851
17406WAT      O52459   8.646   1.817   9.034
17406WAT     H152460   8.675   1.874   9.110
17406WAT     H252461   8.715   1.821   8.961
17407WAT      O52462   2.042   0.062   5.838
17407WAT     H152463   2.045   0.122   5.758
17407WAT     H252464   2.029   0.117   5.921
17408WAT      O52465   0.247   0.633   7.414
17408WAT     H152466   0.211   0.673   7.498
17408WAT     H252467   0.303   0.553   7.437
17409WAT      O52468   8.734   9.334   2.521
17409WAT     H152469   8.791   9.348   2.440
17409WAT     H252470   8.638   9.324   2.494
17410WAT      O52471   0.357   5.474   9.165
17410WAT     H152472   0.378   5.572   9.163
17410WAT     H252473   0.426   5.427   9.221
17411WAT      O52474   0.828   4.811   1.291
17411WAT     H152475   0.871   4.816   1.201
17411WAT     H252476   0.803   4.904   1.321
17412WAT      O52477   1.788   5.424   3.459
17412WAT     H152478   1.805   5.462   3.551
17412WAT     H252479   1.762   5.498   3.397
17413WAT      O52480   0.174   8.132   9.161
17413WAT     H152481   0.175   8.225   9.198
17413WAT     H252482   0.082   8.094   9.169
17414WAT      O52483   5.431   4.107   3.518
17414WAT     H152484   5.511   4.077   3.466
17414WAT     H252485   5.433   4.066   3.609
17415WAT      O52486   5.511   0.696   3.867
17415WAT     H152487   5.575   0.740   3.929
17415WAT     H252488   5.546   0.702   3.773
17416WAT      O52489   7.385   5.706   4.320
17416WAT     H152490   7.350   5.778   4.380
17416WAT     H252491   7.314   5.637   4.305
17417WAT      O52492   0.861   9.280   7.757
17417WAT     H152493   0.860   9.380   7.761
17417WAT     H252494   0.797   9.243   7.824
17418WAT      O52495   6.359   5.418   0.938
17418WAT     H152496   6.401   5.492   0.990
17418WAT     H252497   6.302   5.457   0.865
17419WAT      O52498   1.389   6.753   4.625
17419WAT     H152499   1.396   6.746   4.724
17419WAT     H252500   1.477   6.781   4.587
17420WAT      O52501   5.784   9.541   9.860
17420WAT     H152502   5.781   9.485   9.776
17420WAT     H252503   5.749   9.632   9.840
17421WAT      O52504   1.215   5.391   1.833
17421WAT     H152505   1.276   5.450   1.886
17421WAT     H252506   1.155   5.340   1.895
17422WAT      O52507   2.699   6.836   0.551
17422WAT     H152508   2.777   6.878   0.505
17422WAT     H252509   2.689   6.875   0.642
17423WAT      O52510   5.372   0.017   0.214
17423WAT     H152511   5.406   0.027   0.120
17423WAT     H252512   5.345   0.106   0.249
17424WAT      O52513   1.801   8.791   2.808
17424WAT     H152514   1.701   8.790   2.819
17424WAT     H252515   1.831   8.883   2.782
17425WAT      O52516   9.264   9.567   9.014
17425WAT     H152517   9.180   9.620   9.011
17425WAT     H252518   9.334   9.611   8.958
17426WAT      O52519   9.726   6.687   6.552
17426WAT     H152520   9.706   6.594   6.523
17426WAT     H252521   9.681   6.705   6.640
17427WAT      O52522   3.216   2.057   9.663
17427WAT     H152523   3.187   2.091   9.753
17427WAT     H252524   3.175   2.113   9.592
17428WAT      O52525   3.823   5.788   5.699
17428WAT     H152526   3.744   5.770   5.758
17428WAT     H252527   3.795   5.846   5.623
17429WAT      O52528   2.300   4.177   1.978
17429WAT     H152529   2.250   4.258   1.948
17429WAT     H252530   2.313   4.181   2.077
17430WAT      O52531   9.120   5.663   4.095
17430WAT     H152532   9.133   5.621   4.005
17430WAT     H252533   9.038   5.722   4.093
17431WAT      O52534   8.241   2.634   7.011
17431WAT     H152535   8.229   2.718   6.959
17431WAT     H252536   8.200   2.645   7.102
17432WAT      O52537   7.023   1.835   0.905
17432WAT     H152538   7.012   1.838   0.805
17432WAT     H252539   6.962   1.765   0.943
17433WAT      O52540   3.535   7.697   9.739
17433WAT     H152541   3.474   7.675   9.816
17433WAT     H252542   3.485   7.751   9.671
17434WAT      O52543   0.157   8.650   8.157
17434WAT     H152544   0.257   8.651   8.156
17434WAT     H252545   0.124   8.556   8.144
17435WAT      O52546   9.600   0.554   9.284
17435WAT     H152547   9.509   0.526   9.315
17435WAT     H252548   9.640   0.480   9.230
17436WAT      O52549   1.208   3.519   3.958
17436WAT     H152550   1.280   3.449   3.966
17436WAT     H252551   1.196   3.564   4.046
17437WAT      O52552   5.061   4.475   4.208
17437WAT     H152553   5.051   4.571   4.234
17437WAT     H252554   4.998   4.455   4.133
17438WAT      O52555   3.220   8.430   5.654
17438WAT     H152556   3.297   8.379   5.691
17438WAT     H252557   3.253   8.513   5.608
17439WAT      O52558   6.508   1.341   0.717
17439WAT     H152559   6.504   1.272   0.644
17439WAT     H252560   6.575   1.313   0.786
17440WAT      O52561   7.029   2.112   0.883
17440WAT     H152562   7.038   2.154   0.793
17440WAT     H252563   6.991   2.020   0.874
17441WAT      O52564   6.350   4.811   6.482
17441WAT     H152565   6.271   4.842   6.430
17441WAT     H252566   6.433   4.853   6.445
17442WAT      O52567   2.332   8.397   0.056
17442WAT     H152568   2.379   8.410   0.143
17442WAT     H252569   2.247   8.449   0.056
17443WAT      O52570   6.749   6.528   6.126
17443WAT     H152571   6.664   6.493   6.085
17443WAT     H252572   6.772   6.473   6.206
17444WAT      O52573   8.586   1.682   9.614
17444WAT     H152574   8.582   1.760   9.676
17444WAT     H252575   8.496   1.668   9.572
17445WAT      O52576   7.521   8.733   7.245
17445WAT     H152577   7.582   8.789   7.188
17445WAT     H252578   7.458   8.682   7.187
17446WAT      O52579   4.882   4.140   5.929
17446WAT     H152580   4.820   4.152   5.852
17446WAT     H252581   4.831   4.104   6.008
17447WAT      O52582   8.949   6.431   6.472
17447WAT     H152583   8.952   6.523   6.433
17447WAT     H252584   9.006   6.370   6.417
17448WAT      O52585   1.949   8.146   1.222
17448WAT     H152586   1.871   8.205   1.199
17448WAT     H252587   1.953   8.134   1.321
17449WAT      O52588   5.636   5.606   3.065
17449WAT     H152589   5.723   5.586   3.110
17449WAT     H252590   5.562   5.555   3.109
17450WAT      O52591   4.256   5.095   3.585
17450WAT     H152592   4.296   5.044   3.509
17450WAT     H252593   4.254   5.193   3.562
17451WAT      O52594   8.149   8.121   1.175
17451WAT     H152595   8.175   8.025   1.179
17451WAT     H252596   8.082   8.141   1.247
17452WAT      O52597   7.095   4.798   2.886
17452WAT     H152598   7.189   4.826   2.865
17452WAT     H252599   7.070   4.719   2.830
17453WAT      O52600   6.155   3.568   2.321
17453WAT     H152601   6.215   3.494   2.290
17453WAT     H252602   6.194   3.610   2.403
17454WAT      O52603   5.984   5.172   8.815
17454WAT     H152604   6.016   5.194   8.723
17454WAT     H252605   5.887   5.192   8.822
17455WAT      O52606   6.865   1.963   9.070
17455WAT     H152607   6.861   2.047   9.018
17455WAT     H252608   6.794   1.963   9.140
17456WAT      O52609   4.580   7.967   2.371
17456WAT     H152610   4.650   7.897   2.359
17456WAT     H252611   4.524   7.973   2.288
17457WAT      O52612   7.319   7.407   8.508
17457WAT     H152613   7.322   7.461   8.592
17457WAT     H252614   7.225   7.405   8.473
17458WAT      O52615   3.343   5.703   1.918
17458WAT     H152616   3.308   5.612   1.941
17458WAT     H252617   3.268   5.762   1.890
17459WAT      O52618   1.692   2.166   7.264
17459WAT     H152619   1.712   2.080   7.310
17459WAT     H252620   1.598   2.194   7.284
17460WAT      O52621   4.427   1.380   1.992
17460WAT     H152622   4.509   1.336   1.956
17460WAT     H252623   4.351   1.364   1.929
17461WAT      O52624   7.682   3.516   6.588
17461WAT     H152625   7.696   3.444   6.656
17461WAT     H252626   7.746   3.503   6.512
17462WAT      O52627   4.192   9.825   4.945
17462WAT     H152628   4.271   9.886   4.948
17462WAT     H252629   4.213   9.741   4.994
17463WAT      O52630   2.606   9.024   4.200
17463WAT     H152631   2.521   9.064   4.167
17463WAT     H252632   2.603   9.015   4.299
17464WAT      O52633   8.219   7.829   8.981
17464WAT     H152634   8.227   7.806   9.078
17464WAT     H252635   8.310   7.825   8.939
17465WAT      O52636   2.086   1.509   2.685
17465WAT     H152637   2.171   1.462   2.661
17465WAT     H252638   2.009   1.450   2.662
17466WAT      O52639   6.563   9.704   1.842
17466WAT     H152640   6.562   9.758   1.926
17466WAT     H252641   6.484   9.642   1.842
17467WAT      O52642   7.686   1.515   0.039
17467WAT     H152643   7.642   1.449  -0.022
17467WAT     H252644   7.618   1.581   0.070
17468WAT      O52645   4.640   1.940   8.649
17468WAT     H152646   4.724   1.888   8.663
17468WAT     H252647   4.562   1.885   8.681
17469WAT      O52648   7.140   7.846   4.795
17469WAT     H152649   7.134   7.814   4.701
17469WAT     H252650   7.087   7.930   4.805
17470WAT      O52651   3.006   2.094   7.887
17470WAT     H152652   2.968   2.044   7.964
17470WAT     H252653   2.932   2.130   7.830
17471WAT      O52654   0.607   6.259   1.491
17471WAT     H152655   0.633   6.208   1.572
17471WAT     H252656   0.522   6.222   1.454
17472WAT      O52657   0.567   1.983   0.989
17472WAT     H152658   0.498   2.055   0.989
17472WAT     H252659   0.652   2.017   0.949
17473WAT      O52660   1.286   2.248   3.950
17473WAT     H152661   1.348   2.324   3.972
17473WAT     H252662   1.319   2.164   3.991
17474WAT      O52663   9.776   6.714   2.129
17474WAT     H152664   9.767   6.658   2.212
17474WAT     H252665   9.864   6.760   2.130
17475WAT      O52666   8.210   6.628   4.736
17475WAT     H152667   8.138   6.697   4.746
17475WAT     H252668   8.269   6.653   4.659
17476WAT      O52669   1.140   6.144   8.181
17476WAT     H152670   1.209   6.211   8.153
17476WAT     H252671   1.167   6.102   8.267
17477WAT      O52672   3.509   1.490   2.870
17477WAT     H152673   3.472   1.427   2.938
17477WAT     H252674   3.502   1.448   2.779
17478WAT      O52675   0.048   1.778   3.978
17478WAT     H152676   0.046   1.858   4.038
17478WAT     H252677   0.006   1.700   4.025
17479WAT      O52678   6.347   7.835   0.418
17479WAT     H152679   6.310   7.878   0.335
17479WAT     H252680   6.355   7.737   0.404
17480WAT      O52681   5.859   9.513   7.749
17480WAT     H152682   5.866   9.422   7.708
17480WAT     H252683   5.910   9.515   7.835
17481WAT      O52684   5.918   6.765   5.900
17481WAT     H152685   5.883   6.828   5.969
17481WAT     H252686   6.017   6.757   5.909
17482WAT      O52687   4.896   9.836   0.747
17482WAT     H152688   4.921   9.833   0.650
17482WAT     H252689   4.933   9.756   0.793
17483WAT      O52690   8.702   2.887   8.116
17483WAT     H152691   8.738   2.969   8.071
17483WAT     H252692   8.608   2.870   8.086
17484WAT      O52693   4.893   4.051   8.364
17484WAT     H152694   4.848   3.992   8.431
17484WAT     H252695   4.835   4.061   8.284
17485WAT      O52696   8.122   9.174   4.853
17485WAT     H152697   8.143   9.143   4.945
17485WAT     H252698   8.194   9.144   4.790
17486WAT      O52699   0.836   9.195   8.194
17486WAT     H152700   0.924   9.148   8.200
17486WAT     H252701   0.790   9.191   8.283
17487WAT      O52702   0.631   8.733   5.248
17487WAT     H152703   0.706   8.666   5.245
17487WAT     H252704   0.545   8.687   5.268
17488WAT      O52705   2.425   5.608   5.193
17488WAT     H152706   2.490   5.684   5.183
17488WAT     H252707   2.456   5.548   5.267
17489WAT      O52708   0.083   7.203   4.834
17489WAT     H152709   0.084   7.303   4.825
17489WAT     H252710   0.129   7.177   4.919
17490WAT      O52711   1.397   5.230   0.182
17490WAT     H152712   1.361   5.292   0.112
17490WAT     H252713   1.400   5.137   0.146
17491WAT      O52714   9.000   8.066   5.293
17491WAT     H152715   8.922   8.026   5.339
17491WAT     H252716   9.072   8.086   5.360
17492WAT      O52717   6.991   8.849   8.461
17492WAT     H152718   6.926   8.909   8.506
17492WAT     H252719   6.951   8.813   8.377
17493WAT      O52720   6.040   4.671   3.502
17493WAT     H152721   6.031   4.608   3.426
17493WAT     H252722   6.127   4.720   3.495
17494WAT      O52723   9.198   1.101   2.603
17494WAT     H152724   9.208   1.023   2.665
17494WAT     H252725   9.164   1.069   2.515
17495WAT      O52726   9.278   5.797   1.942
17495WAT     H152727   9.202   5.769   1.883
17495WAT     H252728   9.305   5.890   1.919
17496WAT      O52729   1.804   1.196   9.048
17496WAT     H152730   1.718   1.211   9.000
17496WAT     H252731   1.802   1.106   9.093
17497WAT      O52732   1.924   4.885   4.933
17497WAT     H152733   1.857   4.951   4.968
17497WAT     H252734   1.923   4.803   4.991
17498WAT      O52735   1.725   1.076   7.359
17498WAT     H152736   1.819   1.041   7.366
17498WAT     H252737   1.664   1.004   7.327
17499WAT      O52738   8.955   8.260   3.010
17499WAT     H152739   8.952   8.273   3.109
17499WAT     H252740   8.947   8.162   2.989
17500WAT      O52741   4.955   4.949   0.849
17500WAT     H152742   4.963   4.989   0.758
17500WAT     H252743   4.961   4.849   0.842
17501WAT      O52744   7.332   5.006   7.233
17501WAT     H152745   7.338   5.105   7.216
17501WAT     H252746   7.305   4.960   7.149
17502WAT      O52747   7.185   9.648   2.303
17502WAT     H152748   7.092   9.646   2.338
17502WAT     H252749   7.215   9.743   2.293
17503WAT      O52750   4.195   3.943   7.274
17503WAT     H152751   4.210   3.969   7.370
17503WAT     H252752   4.192   3.844   7.267
17504WAT      O52753   2.330   8.496   2.843
17504WAT     H152754   2.308   8.590   2.817
17504WAT     H252755   2.246   8.442   2.845
17505WAT      O52756   9.222   0.417   5.862
17505WAT     H152757   9.207   0.348   5.791
17505WAT     H252758   9.180   0.504   5.834
17506WAT      O52759   0.487   9.019   8.890
17506WAT     H152760   0.527   8.964   8.816
17506WAT     H252761   0.406   8.973   8.926
17507WAT      O52762   0.549   6.824   1.757
17507WAT     H152763   0.611   6.887   1.712
17507WAT     H252764   0.518   6.755   1.691
17508WAT      O52765   9.501   6.403   8.551
17508WAT     H152766   9.433   6.355   8.496
17508WAT     H252767   9.593   6.379   8.519
17509WAT      O52768   2.449   4.142   2.674
17509WAT     H152769   2.516   4.217   2.672
17509WAT     H252770   2.387   4.155   2.750
17510WAT      O52771   3.540   6.441   6.611
17510WAT     H152772   3.626   6.487   6.634
17510WAT     H252773   3.501   6.400   6.693
17511WAT      O52774   4.184   6.388   0.288
17511WAT     H152775   4.234   6.408   0.372
17511WAT     H252776   4.218   6.445   0.214
17512WAT      O52777   5.079   8.580   4.246
17512WAT     H152778   5.153   8.644   4.226
17512WAT     H252779   5.033   8.556   4.160
17513WAT      O52780   8.830   7.593   9.484
17513WAT     H152781   8.891   7.650   9.539
17513WAT     H252782   8.847   7.497   9.504
17514WAT      O52783   6.211   4.847   1.974
17514WAT     H152784   6.267   4.896   1.907
17514WAT     H252785   6.188   4.909   2.049
17515WAT      O52786   0.620   3.937   3.733
17515WAT     H152787   0.687   3.925   3.660
17515WAT     H252788   0.544   3.872   3.719
17516WAT      O52789   8.736   3.700   2.378
17516WAT     H152790   8.636   3.696   2.377
17516WAT     H252791   8.773   3.608   2.389
17517WAT      O52792   3.548   2.622   7.290
17517WAT     H152793   3.508   2.568   7.365
17517WAT     H252794   3.490   2.702   7.273
17518WAT      O52795   4.151   6.783   6.604
17518WAT     H152796   4.085   6.738   6.664
17518WAT     H252797   4.212   6.840   6.659
17519WAT      O52798   0.339   3.637   8.574
17519WAT     H152799   0.243   3.628   8.546
17519WAT     H252800   0.347   3.711   8.641
17520WAT      O52801   9.643   1.850   2.312
17520WAT     H152802   9.633   1.752   2.329
17520WAT     H252803   9.721   1.866   2.252
17521WAT      O52804   8.606   7.719   5.709
17521WAT     H152805   8.608   7.780   5.629
17521WAT     H252806   8.595   7.624   5.678
17522WAT      O52807   8.477   2.978   9.449
17522WAT     H152808   8.428   2.894   9.470
17522WAT     H252809   8.574   2.965   9.466
17523WAT      O52810   3.194   0.632   7.114
17523WAT     H152811   3.185   0.602   7.019
17523WAT     H252812   3.136   0.711   7.130
17524WAT      O52813   0.113   8.483   3.236
17524WAT     H152814   0.066   8.411   3.185
17524WAT     H252815   0.101   8.571   3.188
17525WAT      O52816   5.009   0.631   8.608
17525WAT     H152817   5.013   0.554   8.672
17525WAT     H252818   4.926   0.623   8.553
17526WAT      O52819   4.773   2.686   3.823
17526WAT     H152820   4.769   2.710   3.920
17526WAT     H252821   4.777   2.587   3.813
17527WAT      O52822   1.915   2.774   1.761
17527WAT     H152823   1.826   2.731   1.778
17527WAT     H252824   1.939   2.833   1.838
17528WAT      O52825   2.990   5.857   9.206
17528WAT     H152826   3.080   5.896   9.228
17528WAT     H252827   2.947   5.910   9.133
17529WAT      O52828   6.976   5.241   2.857
17529WAT     H152829   6.900   5.225   2.794
17529WAT     H252830   6.993   5.159   2.911
17530WAT      O52831   2.298   6.740   0.581
17530WAT     H152832   2.372   6.676   0.560
17530WAT     H252833   2.336   6.832   0.592
17531WAT      O52834   2.610   8.054   9.705
17531WAT     H152835   2.579   7.966   9.671
17531WAT     H252836   2.694   8.081   9.657
17532WAT      O52837   9.402   1.091   2.327
17532WAT     H152838   9.443   1.049   2.246
17532WAT     H252839   9.303   1.083   2.322
17533WAT      O52840   7.875   6.157   0.897
17533WAT     H152841   7.893   6.061   0.917
17533WAT     H252842   7.839   6.166   0.804
17534WAT      O52843   9.575   2.244   4.705
17534WAT     H152844   9.513   2.174   4.740
17534WAT     H252845   9.669   2.211   4.711
17535WAT      O52846   7.909   6.218   5.559
17535WAT     H152847   7.848   6.277   5.507
17535WAT     H252848   7.864   6.188   5.643
17536WAT      O52849   8.995   0.512   8.467
17536WAT     H152850   8.975   0.433   8.409
17536WAT     H252851   8.993   0.595   8.411
17537WAT      O52852   9.244   7.094   3.135
17537WAT     H152853   9.238   7.132   3.042
17537WAT     H252854   9.312   7.146   3.187
17538WAT      O52855   3.011   5.925   9.693
17538WAT     H152856   2.987   5.955   9.785
17538WAT     H252857   2.932   5.881   9.650
17539WAT      O52858   9.796   9.780   9.151
17539WAT     H152859   9.720   9.747   9.208
17539WAT     H252860   9.854   9.841   9.205
17540WAT      O52861   0.363   6.134   1.426
17540WAT     H152862   0.322   6.073   1.358
17540WAT     H252863   0.293   6.192   1.466
17541WAT      O52864   7.243   4.476   9.232
17541WAT     H152865   7.305   4.405   9.265
17541WAT     H252866   7.236   4.549   9.301
17542WAT      O52867   3.858   5.534   5.614
17542WAT     H152868   3.928   5.529   5.543
17542WAT     H252869   3.844   5.630   5.641
17543WAT      O52870   6.145   4.418   6.703
17543WAT     H152871   6.051   4.426   6.672
17543WAT     H252872   6.180   4.507   6.730
17544WAT      O52873   1.161   0.475   7.783
17544WAT     H152874   1.185   0.524   7.699
17544WAT     H252875   1.098   0.530   7.837
17545WAT      O52876   6.524   4.812   3.730
17545WAT     H152877   6.541   4.766   3.817
17545WAT     H252878   6.462   4.889   3.744
17546WAT      O52879   3.754   5.266   1.671
17546WAT     H152880   3.664   5.311   1.663
17546WAT     H252881   3.790   5.246   1.580
17547WAT      O52882   3.186   8.864   3.183
17547WAT     H152883   3.243   8.786   3.210
17547WAT     H252884   3.101   8.862   3.236
17548WAT      O52885   3.124   6.310   3.438
17548WAT     H152886   3.131   6.231   3.499
17548WAT     H252887   3.055   6.292   3.368
17549WAT      O52888   4.682   1.522   1.676
17549WAT     H152889   4.598   1.573   1.692
17549WAT     H252890   4.761   1.580   1.696
17550WAT      O52891   0.091   7.762   9.390
17550WAT     H152892   0.165   7.712   9.345
17550WAT     H252893   0.007   7.751   9.336
17551WAT      O52894   1.369   0.843   9.359
17551WAT     H152895   1.358   0.920   9.422
17551WAT     H252896   1.340   0.759   9.403
17552WAT      O52897   1.833   1.820   5.583
17552WAT     H152898   1.852   1.864   5.671
17552WAT     H252899   1.738   1.835   5.558
17553WAT      O52900   9.145   4.703   5.086
17553WAT     H152901   9.136   4.802   5.098
17553WAT     H252902   9.126   4.679   4.990
17554WAT      O52903   7.213   3.179   0.190
17554WAT     H152904   7.191   3.120   0.113
17554WAT     H252905   7.312   3.191   0.196
17555WAT      O52906   0.196   9.171   4.710
17555WAT     H152907   0.120   9.224   4.747
17555WAT     H252908   0.266   9.233   4.675
17556WAT      O52909   7.906   1.975   7.995
17556WAT     H152910   7.999   2.008   8.012
17556WAT     H252911   7.842   2.051   8.001
17557WAT      O52912   7.853   1.833   9.415
17557WAT     H152913   7.935   1.782   9.392
17557WAT     H252914   7.818   1.802   9.503
17558WAT      O52915   3.121   4.432   5.366
17558WAT     H152916   3.197   4.495   5.383
17558WAT     H252917   3.110   4.372   5.445
17559WAT      O52918   4.849   5.743   3.766
17559WAT     H152919   4.777   5.729   3.698
17559WAT     H252920   4.844   5.670   3.835
17560WAT      O52921   3.066   8.237   9.686
17560WAT     H152922   3.044   8.288   9.769
17560WAT     H252923   2.984   8.190   9.653
17561WAT      O52924   3.463   0.216   6.221
17561WAT     H152925   3.497   0.178   6.308
17561WAT     H252926   3.490   0.155   6.146
17562WAT      O52927   7.223   9.653   1.747
17562WAT     H152928   7.191   9.620   1.836
17562WAT     H252929   7.157   9.718   1.710
17563WAT      O52930   4.950   5.922   2.557
17563WAT     H152931   4.978   5.828   2.574
17563WAT     H252932   4.950   5.940   2.459
17564WAT      O52933   0.890   7.933   9.266
17564WAT     H152934   0.797   7.961   9.245
17564WAT     H252935   0.894   7.834   9.275
17565WAT      O52936   9.021   7.013   0.435
17565WAT     H152937   9.040   6.916   0.422
17565WAT     H252938   8.988   7.052   0.349
17566WAT      O52939   6.463   6.452   4.554
17566WAT     H152940   6.468   6.409   4.644
17566WAT     H252941   6.552   6.492   4.531
17567WAT      O52942   5.926   3.660   4.022
17567WAT     H152943   5.992   3.647   3.948
17567WAT     H252944   5.914   3.574   4.072
17568WAT      O52945   6.415   6.819   7.987
17568WAT     H152946   6.503   6.774   8.001
17568WAT     H252947   6.399   6.885   8.060
17569WAT      O52948   7.284   7.531   1.615
17569WAT     H152949   7.277   7.527   1.714
17569WAT     H252950   7.372   7.571   1.589
17570WAT      O52951   4.554   2.190   6.410
17570WAT     H152952   4.627   2.258   6.424
17570WAT     H252953   4.563   2.151   6.319
17571WAT      O52954   8.696   3.260   8.616
17571WAT     H152955   8.607   3.301   8.637
17571WAT     H252956   8.769   3.323   8.642
17572WAT      O52957   9.441   4.042   6.339
17572WAT     H152958   9.350   4.033   6.298
17572WAT     H252959   9.457   3.966   6.403
17573WAT      O52960   2.233   3.245   2.815
17573WAT     H152961   2.286   3.287   2.889
17573WAT     H252962   2.138   3.275   2.822
17574WAT      O52963   0.749   2.021   5.427
17574WAT     H152964   0.769   2.011   5.330
17574WAT     H252965   0.761   2.117   5.453
17575WAT      O52966   1.952   4.215   2.451
17575WAT     H152967   1.906   4.216   2.363
17575WAT     H252968   2.040   4.263   2.444
17576WAT      O52969   8.164   7.857   8.589
17576WAT     H152970   8.113   7.928   8.637
17576WAT     H252971   8.262   7.868   8.609
17577WAT      O52972   0.037   4.562   2.348
17577WAT     H152973  -0.024   4.538   2.424
17577WAT     H252974   0.123   4.510   2.358
17578WAT      O52975   7.197   9.775   7.779
17578WAT     H152976   7.207   9.683   7.743
17578WAT     H252977   7.102   9.791   7.807
17579WAT      O52978   9.171   3.557   0.059
17579WAT     H152979   9.256   3.512   0.087
17579WAT     H252980   9.183   3.596  -0.032
17580WAT      O52981   9.246   2.491   7.401
17580WAT     H152982   9.236   2.528   7.493
17580WAT     H252983   9.221   2.394   7.401
17581WAT      O52984   2.674   8.985   6.159
17581WAT     H152985   2.696   8.973   6.256
17581WAT     H252986   2.640   9.078   6.144
17582WAT      O52987   7.850   2.184   8.625
17582WAT     H152988   7.896   2.251   8.682
17582WAT     H252989   7.879   2.092   8.652
17583WAT      O52990   4.415   8.166   3.709
17583WAT     H152991   4.336   8.113   3.739
17583WAT     H252992   4.404   8.191   3.613
17584WAT      O52993   1.601   5.325   5.787
17584WAT     H152994   1.700   5.313   5.781
17584WAT     H252995   1.555   5.249   5.741
17585WAT      O52996   3.661   9.643   6.313
17585WAT     H152997   3.736   9.581   6.289
17585WAT     H252998   3.667   9.726   6.257
17586WAT      O52999   0.293   7.590   6.279
17586WAT     H153000   0.232   7.535   6.336
17586WAT     H253001   0.316   7.538   6.196
17587WAT      O53002   5.308   2.076   0.354
17587WAT     H153003   5.328   2.174   0.342
17587WAT     H253004   5.380   2.022   0.311
17588WAT      O53005   0.969   7.252   4.473
17588WAT     H153006   0.985   7.350   4.464
17588WAT     H253007   0.982   7.224   4.568
17589WAT      O53008   1.727   9.709   5.264
17589WAT     H153009   1.776   9.706   5.351
17589WAT     H253010   1.756   9.789   5.211
17590WAT      O53011   2.065   7.978   0.529
17590WAT     H153012   2.053   8.025   0.441
17590WAT     H253013   1.979   7.934   0.554
17591WAT      O53014   5.579   2.467   2.912
17591WAT     H153015   5.642   2.410   2.964
17591WAT     H253016   5.505   2.498   2.972
17592WAT      O53017   3.406   7.055   8.052
17592WAT     H153018   3.503   7.064   8.028
17592WAT     H253019   3.353   7.122   8.001
17593WAT      O53020   7.315   8.825   5.772
17593WAT     H153021   7.348   8.752   5.833
17593WAT     H253022   7.384   8.897   5.766
17594WAT      O53023   1.432   4.585   9.328
17594WAT     H153024   1.383   4.572   9.242
17594WAT     H253025   1.385   4.652   9.385
17595WAT      O53026   2.962   8.104   4.565
17595WAT     H153027   2.960   8.004   4.569
17595WAT     H253028   2.953   8.134   4.470
17596WAT      O53029   4.508   0.173   2.187
17596WAT     H153030   4.518   0.075   2.174
17596WAT     H253031   4.536   0.222   2.104
17597WAT      O53032   9.344   7.801   0.125
17597WAT     H153033   9.275   7.782   0.195
17597WAT     H253034   9.300   7.843   0.045
17598WAT      O53035   6.408   0.378   8.968
17598WAT     H153036   6.379   0.292   9.010
17598WAT     H253037   6.330   0.419   8.920
17599WAT      O53038   8.194   1.476   5.023
17599WAT     H153039   8.213   1.407   4.952
17599WAT     H253040   8.280   1.518   5.051
17600WAT      O53041   3.602   1.680   3.255
17600WAT     H153042   3.667   1.754   3.271
17600WAT     H253043   3.635   1.597   3.300
17601WAT      O53044   9.096   3.106   2.799
17601WAT     H153045   9.040   3.086   2.719
17601WAT     H253046   9.180   3.153   2.771
17602WAT      O53047   9.094   4.599   9.417
17602WAT     H153048   9.056   4.578   9.507
17602WAT     H253049   9.193   4.580   9.417
17603WAT      O53050   0.752   5.761   1.017
17603WAT     H153051   0.837   5.711   1.001
17603WAT     H253052   0.676   5.697   1.025
17604WAT      O53053   4.137   8.860   1.220
17604WAT     H153054   4.172   8.954   1.222
17604WAT     H253055   4.038   8.861   1.228
17605WAT      O53056   7.725   1.645   2.591
17605WAT     H153057   7.654   1.681   2.652
17605WAT     H253058   7.718   1.690   2.502
17606WAT      O53059   1.455   5.005   0.003
17606WAT     H153060   1.509   5.046  -0.070
17606WAT     H253061   1.503   4.926   0.040
17607WAT      O53062   3.123   7.405   8.101
17607WAT     H153063   3.055   7.433   8.034
17607WAT     H253064   3.126   7.305   8.106
17608WAT      O53065   6.011   5.137   7.909
17608WAT     H153066   6.074   5.209   7.939
17608WAT     H253067   6.020   5.125   7.810
17609WAT      O53068   3.837   3.455   6.721
17609WAT     H153069   3.754   3.453   6.665
17609WAT     H253070   3.915   3.423   6.667
17610WAT      O53071   1.558   7.548   6.438
17610WAT     H153072   1.594   7.586   6.523
17610WAT     H253073   1.591   7.454   6.428
17611WAT      O53074   6.246   2.613   8.819
17611WAT     H153075   6.275   2.640   8.911
17611WAT     H253076   6.269   2.686   8.755
17612WAT      O53077   3.270   6.876   8.773
17612WAT     H153078   3.316   6.823   8.703
17612WAT     H253079   3.189   6.920   8.735
17613WAT      O53080   8.234   0.505   0.848
17613WAT     H153081   8.168   0.432   0.864
17613WAT     H253082   8.239   0.564   0.928
17614WAT      O53083   8.563   7.977   2.650
17614WAT     H153084   8.513   7.973   2.737
17614WAT     H253085   8.580   7.884   2.618
17615WAT      O53086   7.138   4.142   9.017
17615WAT     H153087   7.131   4.101   8.926
17615WAT     H253088   7.132   4.241   9.009
17616WAT      O53089   4.054   6.681   4.045
17616WAT     H153090   3.955   6.679   4.029
17616WAT     H253091   4.089   6.587   4.045
17617WAT      O53092   4.232   3.149   3.342
17617WAT     H153093   4.137   3.174   3.320
17617WAT     H253094   4.294   3.196   3.279
17618WAT      O53095   8.052   6.719   9.090
17618WAT     H153096   8.117   6.711   9.015
17618WAT     H253097   8.077   6.796   9.148
17619WAT      O53098   3.783   8.087   1.756
17619WAT     H153099   3.839   8.049   1.683
17619WAT     H253100   3.699   8.034   1.765
17620WAT      O53101   9.249   3.716   1.479
17620WAT     H153102   9.300   3.732   1.394
17620WAT     H253103   9.228   3.804   1.522
17621WAT      O53104   4.494   3.760   9.573
17621WAT     H153105   4.473   3.731   9.479
17621WAT     H253106   4.569   3.706   9.609
17622WAT      O53107   9.237   3.820   7.189
17622WAT     H153108   9.142   3.793   7.174
17622WAT     H253109   9.298   3.752   7.148
17623WAT      O53110   0.258   7.778   3.460
17623WAT     H153111   0.315   7.764   3.541
17623WAT     H253112   0.294   7.855   3.408
17624WAT      O53113   4.450   3.774   6.676
17624WAT     H153114   4.538   3.739   6.642
17624WAT     H253115   4.411   3.708   6.741
17625WAT      O53116   6.718   1.228   0.314
17625WAT     H153117   6.786   1.267   0.376
17625WAT     H253118   6.718   1.278   0.228
17626WAT      O53119   9.137   3.761   7.757
17626WAT     H153120   9.045   3.720   7.755
17626WAT     H253121   9.175   3.753   7.850
17627WAT      O53122   6.143   8.315   6.247
17627WAT     H153123   6.149   8.224   6.288
17627WAT     H253124   6.060   8.360   6.278
17628WAT      O53125   6.724   6.258   4.337
17628WAT     H153126   6.646   6.203   4.366
17628WAT     H253127   6.785   6.273   4.415
17629WAT      O53128   7.828   0.640   9.791
17629WAT     H153129   7.920   0.600   9.784
17629WAT     H253130   7.765   0.589   9.733
17630WAT      O53131   7.860   2.345   4.242
17630WAT     H153132   7.927   2.271   4.247
17630WAT     H253133   7.839   2.364   4.146
17631WAT      O53134   5.832   6.117   9.627
17631WAT     H153135   5.903   6.106   9.557
17631WAT     H253136   5.875   6.135   9.715
17632WAT      O53137   5.215   5.961   3.384
17632WAT     H153138   5.188   6.030   3.450
17632WAT     H253139   5.312   5.938   3.396
17633WAT      O53140   6.137   7.908   4.992
17633WAT     H153141   6.054   7.953   5.024
17633WAT     H253142   6.166   7.839   5.059
17634WAT      O53143   8.526   4.651   8.982
17634WAT     H153144   8.606   4.612   9.026
17634WAT     H253145   8.516   4.613   8.890
17635WAT      O53146   6.176   3.674   8.312
17635WAT     H153147   6.262   3.709   8.350
17635WAT     H253148   6.100   3.731   8.342
17636WAT      O53149   8.357   6.759   7.293
17636WAT     H153150   8.412   6.842   7.306
17636WAT     H253151   8.418   6.680   7.287
17637WAT      O53152   6.530   3.990   2.485
17637WAT     H153153   6.524   4.075   2.432
17637WAT     H253154   6.579   3.921   2.432
17638WAT      O53155   9.617   6.936   2.177
17638WAT     H153156   9.660   6.966   2.263
17638WAT     H253157   9.661   6.853   2.145
17639WAT      O53158   2.838   4.265   1.892
17639WAT     H153159   2.855   4.276   1.990
17639WAT     H253160   2.839   4.168   1.868
17640WAT      O53161   7.353   8.855   2.967
17640WAT     H153162   7.284   8.861   2.895
17640WAT     H253163   7.352   8.763   3.006
17641WAT      O53164   4.846   8.709   6.063
17641WAT     H153165   4.899   8.657   6.130
17641WAT     H253166   4.755   8.669   6.053
17642WAT      O53167   3.197   0.369   5.294
17642WAT     H153168   3.169   0.274   5.301
17642WAT     H253169   3.292   0.378   5.326
17643WAT      O53170   2.714   6.533   0.765
17643WAT     H153171   2.766   6.525   0.850
17643WAT     H253172   2.774   6.568   0.693
17644WAT      O53173   3.863   1.885   8.664
17644WAT     H153174   3.884   1.888   8.762
17644WAT     H253175   3.895   1.969   8.620
17645WAT      O53176   7.605   8.321   2.532
17645WAT     H153177   7.558   8.233   2.534
17645WAT     H253178   7.542   8.392   2.501
17646WAT      O53179   6.942   3.262   7.908
17646WAT     H153180   6.916   3.168   7.886
17646WAT     H253181   7.019   3.261   7.972
17647WAT      O53182   7.062   4.351   8.615
17647WAT     H153183   7.156   4.384   8.625
17647WAT     H253184   7.014   4.408   8.547
17648WAT      O53185   6.117   1.550   1.541
17648WAT     H153186   6.034   1.494   1.534
17648WAT     H253187   6.092   1.641   1.575
17649WAT      O53188   3.665   4.069   2.588
17649WAT     H153189   3.609   4.054   2.670
17649WAT     H253190   3.755   4.104   2.615
17650WAT      O53191   0.551   7.427   2.480
17650WAT     H153192   0.608   7.444   2.561
17650WAT     H253193   0.456   7.419   2.508
17651WAT      O53194   3.500   5.715   3.626
17651WAT     H153195   3.571   5.666   3.674
17651WAT     H253196   3.538   5.759   3.545
17652WAT      O53197   0.922   8.643   5.590
17652WAT     H153198   0.969   8.729   5.612
17652WAT     H253199   0.840   8.636   5.647
17653WAT      O53200   8.500   3.466   3.488
17653WAT     H153201   8.544   3.517   3.561
17653WAT     H253202   8.448   3.528   3.430
17654WAT      O53203   0.222   3.218   6.684
17654WAT     H153204   0.184   3.185   6.598
17654WAT     H253205   0.148   3.248   6.744
17655WAT      O53206   1.476   3.584   3.849
17655WAT     H153207   1.407   3.580   3.777
17655WAT     H253208   1.516   3.494   3.862
17656WAT      O53209   1.430   9.271   8.274
17656WAT     H153210   1.520   9.264   8.317
17656WAT     H253211   1.416   9.194   8.212
17657WAT      O53212   0.971   7.515   4.751
17657WAT     H153213   1.057   7.476   4.784
17657WAT     H253214   0.947   7.595   4.806
17658WAT      O53215   4.350   2.429   6.201
17658WAT     H153216   4.309   2.478   6.278
17658WAT     H253217   4.423   2.484   6.161
17659WAT      O53218   4.685   0.063   9.779
17659WAT     H153219   4.716   0.026   9.691
17659WAT     H253220   4.687  -0.009   9.848
17660WAT      O53221   6.460   6.558   0.577
17660WAT     H153222   6.550   6.537   0.537
17660WAT     H253223   6.432   6.483   0.637
17661WAT      O53224   6.993   7.007   8.643
17661WAT     H153225   6.928   7.083   8.649
17661WAT     H253226   7.086   7.043   8.651
17662WAT      O53227   1.543   8.801   5.158
17662WAT     H153228   1.624   8.849   5.191
17662WAT     H253229   1.502   8.852   5.083
17663WAT      O53230   5.951   5.693   9.257
17663WAT     H153231   5.909   5.605   9.234
17663WAT     H253232   5.984   5.738   9.173
17664WAT      O53233   4.661   8.499   1.914
17664WAT     H153234   4.754   8.474   1.943
17664WAT     H253235   4.657   8.597   1.895
17665WAT      O53236   2.681   1.442   6.394
17665WAT     H153237   2.676   1.351   6.353
17665WAT     H253238   2.625   1.505   6.342
17666WAT      O53239   2.208   6.355   6.470
17666WAT     H153240   2.292   6.309   6.443
17666WAT     H253241   2.140   6.288   6.498
17667WAT      O53242   0.678   0.767   6.151
17667WAT     H153243   0.725   0.720   6.076
17667WAT     H253244   0.581   0.777   6.128
17668WAT      O53245   0.713   3.788   6.965
17668WAT     H153246   0.647   3.731   6.917
17668WAT     H253247   0.792   3.804   6.906
17669WAT      O53248   0.675   1.330   3.183
17669WAT     H153249   0.736   1.307   3.106
17669WAT     H253250   0.640   1.422   3.171
17670WAT      O53251   0.314   6.779   4.421
17670WAT     H153252   0.268   6.690   4.423
17670WAT     H253253   0.378   6.783   4.345
17671WAT      O53254   6.394   6.746   7.282
17671WAT     H153255   6.372   6.783   7.192
17671WAT     H253256   6.323   6.773   7.347
17672WAT      O53257   3.373   8.019   4.986
17672WAT     H153258   3.367   8.118   5.001
17672WAT     H253259   3.301   7.990   4.923
17673WAT      O53260   8.158   2.402   0.459
17673WAT     H153261   8.068   2.365   0.481
17673WAT     H253262   8.223   2.327   0.451
17674WAT      O53263   9.787   4.521   2.594
17674WAT     H153264   9.843   4.504   2.675
17674WAT     H253265   9.732   4.603   2.607
17675WAT      O53266   7.013   7.809   8.833
17675WAT     H153267   6.913   7.812   8.837
17675WAT     H253268   7.044   7.718   8.861
17676WAT      O53269   7.083   4.413   3.888
17676WAT     H153270   7.152   4.343   3.866
17676WAT     H253271   7.127   4.502   3.898
17677WAT      O53272   5.671   8.653   4.028
17677WAT     H153273   5.648   8.714   3.952
17677WAT     H253274   5.589   8.608   4.061
17678WAT      O53275   3.599   6.737   6.235
17678WAT     H153276   3.664   6.717   6.309
17678WAT     H253277   3.642   6.799   6.169
17679WAT      O53278   4.077   2.628   7.163
17679WAT     H153279   4.072   2.646   7.065
17679WAT     H253280   3.998   2.574   7.191
17680WAT      O53281   0.404   9.818   6.059
17680WAT     H153282   0.378   9.828   6.155
17680WAT     H253283   0.336   9.761   6.013
17681WAT      O53284   8.493   3.981   2.594
17681WAT     H153285   8.518   4.018   2.505
17681WAT     H253286   8.428   4.042   2.639
17682WAT      O53287   9.143   5.177   4.812
17682WAT     H153288   9.215   5.218   4.757
17682WAT     H253289   9.065   5.154   4.753
17683WAT      O53290   9.092   9.211   2.237
17683WAT     H153291   9.170   9.244   2.183
17683WAT     H253292   9.119   9.207   2.333
17684WAT      O53293   3.004   2.647   0.632
17684WAT     H153294   3.047   2.618   0.717
17684WAT     H253295   2.938   2.719   0.651
17685WAT      O53296   9.892   4.873   1.830
17685WAT     H153297   9.941   4.954   1.862
17685WAT     H253298   9.801   4.871   1.872
17686WAT      O53299   9.226   8.452   6.737
17686WAT     H153300   9.127   8.436   6.747
17686WAT     H253301   9.272   8.365   6.724
17687WAT      O53302   3.810   9.759   4.694
17687WAT     H153303   3.786   9.662   4.696
17687WAT     H253304   3.909   9.768   4.680
17688WAT      O53305   9.311   1.788   8.413
17688WAT     H153306   9.336   1.884   8.423
17688WAT     H253307   9.394   1.732   8.410
17689WAT      O53308   7.192   4.998   3.327
17689WAT     H153309   7.281   5.031   3.296
17689WAT     H253310   7.120   5.046   3.277
17690WAT      O53311   8.541   2.133   7.261
17690WAT     H153312   8.499   2.190   7.192
17690WAT     H253313   8.541   2.038   7.231
17691WAT      O53314   4.549   9.643   1.726
17691WAT     H153315   4.543   9.623   1.629
17691WAT     H253316   4.638   9.614   1.761
17692WAT      O53317   4.904   2.666   9.803
17692WAT     H153318   4.992   2.626   9.776
17692WAT     H253319   4.915   2.715   9.889
17693WAT      O53320   8.198   5.558   6.000
17693WAT     H153321   8.246   5.606   5.926
17693WAT     H253322   8.120   5.613   6.030
17694WAT      O53323   9.254   5.226   5.563
17694WAT     H153324   9.256   5.146   5.624
17694WAT     H253325   9.342   5.275   5.569
17695WAT      O53326   1.995   5.890   5.281
17695WAT     H153327   2.076   5.876   5.224
17695WAT     H253328   1.994   5.822   5.354
17696WAT      O53329   7.299   6.106   4.770
17696WAT     H153330   7.333   6.067   4.684
17696WAT     H253331   7.228   6.047   4.808
17697WAT      O53332   5.766   7.337   4.534
17697WAT     H153333   5.711   7.413   4.501
17697WAT     H253334   5.720   7.251   4.512
17698WAT      O53335   3.100   6.868   9.216
17698WAT     H153336   3.030   6.895   9.150
17698WAT     H253337   3.085   6.773   9.243
17699WAT      O53338   1.785   9.428   3.558
17699WAT     H153339   1.854   9.357   3.543
17699WAT     H253340   1.714   9.392   3.618
17700WAT      O53341   3.197   2.243   5.095
17700WAT     H153342   3.265   2.215   5.162
17700WAT     H253343   3.135   2.310   5.136
17701WAT      O53344   5.505   2.220   1.158
17701WAT     H153345   5.593   2.176   1.138
17701WAT     H253346   5.487   2.216   1.256
17702WAT      O53347   6.650   0.277   0.458
17702WAT     H153348   6.670   0.196   0.513
17702WAT     H253349   6.721   0.289   0.389
17703WAT      O53350   1.569   4.836   5.194
17703WAT     H153351   1.635   4.902   5.158
17703WAT     H253352   1.494   4.885   5.239
17704WAT      O53353   4.032   1.581   1.388
17704WAT     H153354   4.124   1.591   1.349
17704WAT     H253355   3.997   1.671   1.414
17705WAT      O53356   5.573   4.160   8.119
17705WAT     H153357   5.615   4.177   8.208
17705WAT     H253358   5.544   4.247   8.079
17706WAT      O53359   0.662   8.045   4.180
17706WAT     H153360   0.758   8.046   4.207
17706WAT     H253361   0.637   8.135   4.145
17707WAT      O53362   8.870   9.387   2.285
17707WAT     H153363   8.949   9.342   2.244
17707WAT     H253364   8.848   9.470   2.234
17708WAT      O53365   5.484   3.713   0.709
17708WAT     H153366   5.490   3.620   0.746
17708WAT     H253367   5.561   3.730   0.648
17709WAT      O53368   4.907   7.797   0.809
17709WAT     H153369   4.843   7.865   0.773
17709WAT     H253370   4.997   7.813   0.770
17710WAT      O53371   5.706   9.048   5.414
17710WAT     H153372   5.705   8.989   5.334
17710WAT     H253373   5.613   9.054   5.452
17711WAT      O53374   2.654   7.486   8.758
17711WAT     H153375   2.557   7.503   8.744
17711WAT     H253376   2.674   7.389   8.742
17712WAT      O53377   4.106   8.570   0.497
17712WAT     H153378   4.040   8.614   0.558
17712WAT     H253379   4.172   8.519   0.551
17713WAT      O53380   1.571   1.495   7.935
17713WAT     H153381   1.606   1.563   7.871
17713WAT     H253382   1.532   1.418   7.884
17714WAT      O53383   4.699   0.538   7.581
17714WAT     H153384   4.783   0.587   7.603
17714WAT     H253385   4.660   0.501   7.665
17715WAT      O53386   4.385   5.681   9.770
17715WAT     H153387   4.454   5.622   9.729
17715WAT     H253388   4.426   5.769   9.795
17716WAT      O53389   4.482   2.337   0.619
17716WAT     H153390   4.428   2.320   0.537
17716WAT     H253391   4.557   2.270   0.623
17717WAT      O53392   2.386   0.543   5.983
17717WAT     H153393   2.455   0.516   5.916
17717WAT     H253394   2.373   0.642   5.979
17718WAT      O53395   3.866   4.575   3.468
17718WAT     H153396   3.839   4.487   3.506
17718WAT     H253397   3.838   4.648   3.530
17719WAT      O53398   4.612   0.553   2.518
17719WAT     H153399   4.620   0.458   2.489
17719WAT     H253400   4.603   0.557   2.618
17720WAT      O53401   7.750   6.314   7.326
17720WAT     H153402   7.743   6.215   7.330
17720WAT     H253403   7.817   6.345   7.394
17721WAT      O53404   7.974   2.197   7.439
17721WAT     H153405   8.070   2.208   7.463
17721WAT     H253406   7.932   2.130   7.501
17722WAT      O53407   2.221   1.198   7.213
17722WAT     H153408   2.209   1.114   7.160
17722WAT     H253409   2.238   1.175   7.309
17723WAT      O53410   7.346   5.753   6.008
17723WAT     H153411   7.281   5.753   5.932
17723WAT     H253412   7.438   5.773   5.974
17724WAT      O53413   4.566   2.447   2.203
17724WAT     H153414   4.618   2.372   2.163
17724WAT     H253415   4.564   2.524   2.139
17725WAT      O53416   9.082   9.408   9.807
17725WAT     H153417   9.080   9.412   9.707
17725WAT     H253418   9.165   9.360   9.837
17726WAT      O53419   6.228   0.115   0.470
17726WAT     H153420   6.302   0.145   0.409
17726WAT     H253421   6.174   0.045   0.424
17727WAT      O53422   1.783   3.425   3.506
17727WAT     H153423   1.797   3.337   3.461
17727WAT     H253424   1.768   3.495   3.437
17728WAT      O53425   6.423   1.289   7.610
17728WAT     H153426   6.521   1.279   7.593
17728WAT     H253427   6.407   1.293   7.709
17729WAT      O53428   2.690   0.511   0.135
17729WAT     H153429   2.742   0.556   0.063
17729WAT     H253430   2.722   0.543   0.224
17730WAT      O53431   9.315   0.659   6.046
17730WAT     H153432   9.261   0.664   5.962
17730WAT     H253433   9.394   0.599   6.032
17731WAT      O53434   3.340   0.926   1.803
17731WAT     H153435   3.299   0.864   1.870
17731WAT     H253436   3.282   0.930   1.722
17732WAT      O53437   6.160   2.887   0.269
17732WAT     H153438   6.256   2.892   0.239
17732WAT     H253439   6.154   2.917   0.364
17733WAT      O53440   2.956   8.899   3.315
17733WAT     H153441   2.899   8.939   3.244
17733WAT     H253442   2.898   8.857   3.385
17734WAT      O53443   6.310   5.447   2.953
17734WAT     H153444   6.340   5.541   2.938
17734WAT     H253445   6.391   5.387   2.958
17735WAT      O53446   0.550   8.316   5.703
17735WAT     H153447   0.621   8.372   5.661
17735WAT     H253448   0.467   8.319   5.647
17736WAT      O53449   3.578   7.176   6.804
17736WAT     H153450   3.478   7.176   6.809
17736WAT     H253451   3.615   7.237   6.874
17737WAT      O53452   2.846   2.950   2.362
17737WAT     H153453   2.798   3.009   2.427
17737WAT     H253454   2.920   2.903   2.409
17738WAT      O53455   8.090   6.125   4.369
17738WAT     H153456   8.162   6.096   4.432
17738WAT     H253457   8.122   6.205   4.317
17739WAT      O53458   1.105   3.303   6.294
17739WAT     H153459   1.118   3.341   6.202
17739WAT     H253460   1.127   3.373   6.362
17740WAT      O53461   6.946   6.636   3.055
17740WAT     H153462   7.003   6.575   3.111
17740WAT     H253463   6.863   6.587   3.028
17741WAT      O53464   6.271   9.254   8.083
17741WAT     H153465   6.318   9.283   8.166
17741WAT     H253466   6.301   9.311   8.006
17742WAT      O53467   6.392   0.206   7.254
17742WAT     H153468   6.466   0.161   7.303
17742WAT     H253469   6.382   0.164   7.163
17743WAT      O53470   8.203   9.179   1.707
17743WAT     H153471   8.190   9.086   1.740
17743WAT     H253472   8.174   9.184   1.611
17744WAT      O53473   2.980   9.618   2.544
17744WAT     H153474   2.998   9.688   2.476
17744WAT     H253475   3.013   9.530   2.510
17745WAT      O53476   2.776   5.420   7.738
17745WAT     H153477   2.692   5.374   7.767
17745WAT     H253478   2.817   5.370   7.661
17746WAT      O53479   2.386   0.568   5.302
17746WAT     H153480   2.298   0.521   5.292
17746WAT     H253481   2.376   0.663   5.271
17747WAT      O53482   1.796   2.311   2.268
17747WAT     H153483   1.880   2.260   2.252
17747WAT     H253484   1.803   2.362   2.353
17748WAT      O53485   2.998   5.541   6.188
17748WAT     H153486   2.911   5.493   6.181
17748WAT     H253487   3.048   5.509   6.269
17749WAT      O53488   1.082   6.275   4.648
17749WAT     H153489   1.118   6.361   4.613
17749WAT     H253490   1.119   6.258   4.740
17750WAT      O53491   3.964   4.371   6.407
17750WAT     H153492   3.888   4.419   6.451
17750WAT     H253493   3.930   4.290   6.360
17751WAT      O53494   2.274   9.632   3.315
17751WAT     H153495   2.196   9.601   3.261
17751WAT     H253496   2.251   9.631   3.412
17752WAT      O53497   8.228   2.270   4.537
17752WAT     H153498   8.144   2.224   4.510
17752WAT     H253499   8.206   2.361   4.574
17753WAT      O53500   2.556   8.509   1.319
17753WAT     H153501   2.528   8.422   1.279
17753WAT     H253502   2.490   8.538   1.388
17754WAT      O53503   9.201   5.305   1.247
17754WAT     H153504   9.139   5.382   1.234
17754WAT     H253505   9.295   5.339   1.255
17755WAT      O53506   3.010   0.624   3.677
17755WAT     H153507   3.047   0.531   3.671
17755WAT     H253508   2.986   0.656   3.586
17756WAT      O53509   3.199   8.254   8.481
17756WAT     H153510   3.228   8.261   8.386
17756WAT     H253511   3.112   8.204   8.486
17757WAT      O53512   4.103   0.189   5.364
17757WAT     H153513   4.103   0.136   5.449
17757WAT     H253514   4.048   0.142   5.296
17758WAT      O53515   6.551   9.081   3.357
17758WAT     H153516   6.520   8.987   3.370
17758WAT     H253517   6.647   9.081   3.327
17759WAT      O53518   1.319   6.396   8.480
17759WAT     H153519   1.375   6.356   8.407
17759WAT     H253520   1.376   6.454   8.538
17760WAT      O53521   5.566   5.913   0.429
17760WAT     H153522   5.503   5.981   0.466
17760WAT     H253523   5.527   5.871   0.347
17761WAT      O53524   5.757   0.008   7.145
17761WAT     H153525   5.697   0.024   7.066
17761WAT     H253526   5.847  -0.021   7.113
17762WAT      O53527   0.018   7.676   3.510
17762WAT     H153528  -0.058   7.712   3.457
17762WAT     H253529   0.104   7.706   3.470
17763WAT      O53530   1.546   0.154   4.504
17763WAT     H153531   1.512   0.117   4.590
17763WAT     H253532   1.519   0.095   4.429
17764WAT      O53533   5.914   0.506   4.322
17764WAT     H153534   5.959   0.534   4.407
17764WAT     H253535   5.831   0.455   4.343
17765WAT      O53536   1.821   1.175   0.250
17765WAT     H153537   1.800   1.225   0.335
17765WAT     H253538   1.920   1.160   0.244
17766WAT      O53539   8.469   2.050   9.572
17766WAT     H153540   8.477   2.149   9.583
17766WAT     H253541   8.515   2.004   9.648
17767WAT      O53542   2.771   1.574   2.861
17767WAT     H153543   2.857   1.624   2.876
17767WAT     H253544   2.732   1.548   2.950
17768WAT      O53545   9.710   1.709   8.834
17768WAT     H153546   9.615   1.716   8.865
17768WAT     H253547   9.716   1.641   8.760
17769WAT      O53548   5.623   8.523   6.780
17769WAT     H153549   5.619   8.563   6.689
17769WAT     H253550   5.563   8.572   6.842
17770WAT      O53551   8.714   3.941   0.084
17770WAT     H153552   8.688   4.031   0.119
17770WAT     H253553   8.802   3.914   0.122
17771WAT      O53554   4.412   3.015   3.929
17771WAT     H153555   4.451   2.960   3.855
17771WAT     H253556   4.365   2.955   3.994
17772WAT      O53557   1.048   8.418   2.600
17772WAT     H153558   0.973   8.358   2.574
17772WAT     H253559   1.056   8.493   2.534
17773WAT      O53560   9.325   1.487   2.801
17773WAT     H153561   9.370   1.500   2.712
17773WAT     H253562   9.237   1.442   2.787
17774WAT      O53563   4.842   2.046   6.025
17774WAT     H153564   4.921   1.985   6.031
17774WAT     H253565   4.840   2.090   5.935
17775WAT      O53566   2.068   8.399   5.705
17775WAT     H153567   2.051   8.382   5.802
17775WAT     H253568   1.997   8.457   5.668
17776WAT      O53569   5.797   6.857   1.531
17776WAT     H153570   5.724   6.792   1.513
17776WAT     H253571   5.848   6.874   1.446
17777WAT      O53572   2.941   3.857   0.187
17777WAT     H153573   2.905   3.931   0.245
17777WAT     H253574   2.889   3.853   0.102
17778WAT      O53575   7.493   6.935   0.354
17778WAT     H153576   7.530   6.894   0.438
17778WAT     H253577   7.417   6.996   0.377
17779WAT      O53578   9.528   1.766   5.071
17779WAT     H153579   9.506   1.669   5.062
17779WAT     H253580   9.451   1.820   5.038
17780WAT      O53581   5.692   0.573   5.990
17780WAT     H153582   5.739   0.530   6.068
17780WAT     H253583   5.615   0.515   5.962
17781WAT      O53584   8.982   4.549   5.256
17781WAT     H153585   9.041   4.622   5.222
17781WAT     H253586   9.028   4.461   5.245
17782WAT      O53587   9.464   5.217   6.935
17782WAT     H153588   9.549   5.239   6.888
17782WAT     H253589   9.441   5.121   6.920
17783WAT      O53590   4.655   9.420   9.161
17783WAT     H153591   4.622   9.368   9.240
17783WAT     H253592   4.679   9.357   9.088
17784WAT      O53593   1.959   5.714   5.482
17784WAT     H153594   1.905   5.630   5.490
17784WAT     H253595   2.011   5.730   5.566
17785WAT      O53596   3.691   3.428   1.353
17785WAT     H153597   3.694   3.329   1.364
17785WAT     H253598   3.702   3.472   1.442
17786WAT      O53599   9.615   1.792   8.527
17786WAT     H153600   9.575   1.852   8.596
17786WAT     H253601   9.649   1.709   8.570
17787WAT      O53602   7.312   0.928   4.049
17787WAT     H153603   7.356   0.938   3.960
17787WAT     H253604   7.371   0.970   4.119
17788WAT      O53605   4.303   6.969   5.093
17788WAT     H153606   4.248   6.917   5.027
17788WAT     H253607   4.400   6.957   5.071
17789WAT      O53608   1.393   5.188   1.270
17789WAT     H153609   1.296   5.169   1.287
17789WAT     H253610   1.403   5.282   1.239
17790WAT      O53611   4.479   8.672   7.047
17790WAT     H153612   4.400   8.617   7.072
17790WAT     H253613   4.479   8.690   6.949
17791WAT      O53614   9.674   6.826   4.459
17791WAT     H153615   9.739   6.902   4.449
17791WAT     H253616   9.623   6.815   4.374
17792WAT      O53617   3.063   0.444   5.674
17792WAT     H153618   3.027   0.503   5.747
17792WAT     H253619   3.022   0.470   5.587
17793WAT      O53620   2.671   5.432   1.614
17793WAT     H153621   2.603   5.505   1.623
17793WAT     H253622   2.626   5.344   1.628
17794WAT      O53623   1.549   2.326   2.159
17794WAT     H153624   1.473   2.366   2.211
17794WAT     H253625   1.620   2.295   2.222
17795WAT      O53626   4.602   4.192   6.529
17795WAT     H153627   4.655   4.216   6.447
17795WAT     H253628   4.581   4.274   6.581
17796WAT      O53629   2.782   7.292   8.367
17796WAT     H153630   2.704   7.342   8.328
17796WAT     H253631   2.865   7.346   8.356
17797WAT      O53632   4.764   2.430   8.681
17797WAT     H153633   4.715   2.346   8.704
17797WAT     H253634   4.707   2.486   8.621
17798WAT      O53635   3.426   3.833   7.957
17798WAT     H153636   3.440   3.740   7.990
17798WAT     H253637   3.329   3.857   7.963
17799WAT      O53638   0.216   8.098   6.479
17799WAT     H153639   0.159   8.090   6.561
17799WAT     H253640   0.158   8.124   6.402
17800WAT      O53641   7.354   4.562   3.009
17800WAT     H153642   7.352   4.480   3.065
17800WAT     H253643   7.358   4.643   3.068
17801WAT      O53644   8.441   9.578   9.102
17801WAT     H153645   8.357   9.594   9.154
17801WAT     H253646   8.499   9.512   9.149
17802WAT      O53647   6.227   9.497   0.284
17802WAT     H153648   6.170   9.579   0.277
17802WAT     H253649   6.248   9.463   0.192
17803WAT      O53650   4.390   5.727   5.893
17803WAT     H153651   4.348   5.680   5.815
17803WAT     H253652   4.429   5.814   5.862
17804WAT      O53653   1.029   8.961   0.023
17804WAT     H153654   1.034   9.060   0.012
17804WAT     H253655   1.120   8.921   0.014
17805WAT      O53656   3.236   9.049   7.251
17805WAT     H153657   3.173   9.120   7.220
17805WAT     H253658   3.242   8.978   7.181
17806WAT      O53659   0.531   4.527   8.778
17806WAT     H153660   0.517   4.621   8.745
17806WAT     H253661   0.516   4.463   8.702
17807WAT      O53662   6.445   0.253   5.917
17807WAT     H153663   6.441   0.154   5.913
17807WAT     H253664   6.530   0.282   5.962
17808WAT      O53665   4.511   5.016   5.269
17808WAT     H153666   4.472   5.008   5.361
17808WAT     H253667   4.588   4.953   5.261
17809WAT      O53668   0.679   4.629   4.859
17809WAT     H153669   0.661   4.665   4.767
17809WAT     H253670   0.756   4.678   4.899
17810WAT      O53671   9.499   2.839   7.237
17810WAT     H153672   9.407   2.800   7.236
17810WAT     H253673   9.514   2.886   7.324
17811WAT      O53674   5.829   2.295   8.417
17811WAT     H153675   5.754   2.362   8.418
17811WAT     H253676   5.805   2.220   8.355
17812WAT      O53677   2.576   6.833   0.262
17812WAT     H153678   2.566   6.806   0.358
17812WAT     H253679   2.634   6.914   0.256
17813WAT      O53680   2.679   7.226   5.110
17813WAT     H153681   2.639   7.184   5.029
17813WAT     H253682   2.625   7.307   5.135
17814WAT      O53683   6.055   2.890   4.912
17814WAT     H153684   6.030   2.899   5.008
17814WAT     H253685   5.983   2.929   4.855
17815WAT      O53686   1.628   4.625   2.771
17815WAT     H153687   1.597   4.530   2.770
17815WAT     H253688   1.565   4.681   2.718
17816WAT      O53689   8.379   6.619   9.818
17816WAT     H153690   8.296   6.595   9.769
17816WAT     H253691   8.407   6.542   9.876
17817WAT      O53692   3.911   6.219   3.404
17817WAT     H153693   3.996   6.267   3.427
17817WAT     H253694   3.833   6.278   3.424
17818WAT      O53695   9.632   5.302   2.132
17818WAT     H153696   9.628   5.392   2.177
17818WAT     H253697   9.583   5.307   2.045
17819WAT      O53698   6.318   6.419   2.162
17819WAT     H153699   6.290   6.510   2.192
17819WAT     H253700   6.415   6.405   2.184
17820WAT      O53701   7.275   8.292   5.986
17820WAT     H153702   7.181   8.260   5.996
17820WAT     H253703   7.338   8.218   6.009
17821WAT      O53704   7.655   9.706   3.656
17821WAT     H153705   7.663   9.693   3.557
17821WAT     H253706   7.644   9.617   3.701
17822WAT      O53707   2.925   6.592   3.339
17822WAT     H153708   2.881   6.651   3.272
17822WAT     H253709   3.024   6.604   3.334
17823WAT      O53710   9.344   7.626   1.485
17823WAT     H153711   9.393   7.539   1.494
17823WAT     H253712   9.247   7.610   1.505
17824WAT      O53713   4.516   6.217   5.282
17824WAT     H153714   4.449   6.264   5.225
17824WAT     H253715   4.477   6.132   5.316
17825WAT      O53716   2.544   4.117   0.955
17825WAT     H153717   2.576   4.040   1.009
17825WAT     H253718   2.487   4.176   1.012
17826WAT      O53719   1.239   3.773   7.207
17826WAT     H153720   1.295   3.727   7.138
17826WAT     H253721   1.145   3.783   7.172
17827WAT      O53722   9.690   2.681   3.984
17827WAT     H153723   9.611   2.737   4.009
17827WAT     H253724   9.675   2.641   3.893
17828WAT      O53725   8.131   8.002   9.220
17828WAT     H153726   8.114   7.913   9.262
17828WAT     H253727   8.087   8.006   9.130
17829WAT      O53728   0.454   3.301   6.179
17829WAT     H153729   0.517   3.224   6.175
17829WAT     H253730   0.362   3.270   6.154
17830WAT      O53731   0.431   7.149   3.284
17830WAT     H153732   0.429   7.187   3.377
17830WAT     H253733   0.496   7.073   3.281
17831WAT      O53734   7.812   7.409   5.375
17831WAT     H153735   7.768   7.453   5.296
17831WAT     H253736   7.825   7.312   5.356
17832WAT      O53737   2.716   7.003   5.717
17832WAT     H153738   2.645   7.012   5.787
17832WAT     H253739   2.680   6.951   5.639
17833WAT      O53740   4.562   4.799   5.933
17833WAT     H153741   4.545   4.821   6.029
17833WAT     H253742   4.615   4.715   5.927
17834WAT      O53743   6.751   5.436   7.104
17834WAT     H153744   6.690   5.369   7.145
17834WAT     H253745   6.731   5.527   7.141
17835WAT      O53746   7.046   6.839   5.707
17835WAT     H153747   6.986   6.840   5.627
17835WAT     H253748   7.062   6.744   5.735
17836WAT      O53749   1.730   8.708   3.832
17836WAT     H153750   1.695   8.802   3.837
17836WAT     H253751   1.825   8.710   3.800
17837WAT      O53752   4.883   1.916   5.251
17837WAT     H153753   4.961   1.896   5.191
17837WAT     H253754   4.835   1.997   5.217
17838WAT      O53755   8.317   4.476   5.523
17838WAT     H153756   8.276   4.388   5.544
17838WAT     H253757   8.365   4.470   5.435
17839WAT      O53758   4.351   3.591   3.195
17839WAT     H153759   4.356   3.515   3.260
17839WAT     H253760   4.257   3.602   3.164
17840WAT      O53761   4.553   6.480   7.945
17840WAT     H153762   4.596   6.433   7.868
17840WAT     H253763   4.495   6.554   7.910
17841WAT      O53764   8.117   4.582   7.365
17841WAT     H153765   8.187   4.629   7.311
17841WAT     H253766   8.031   4.579   7.314
17842WAT      O53767   2.054   5.324   8.976
17842WAT     H153768   2.000   5.377   8.910
17842WAT     H253769   2.140   5.296   8.933
17843WAT      O53770   0.660   3.546   1.774
17843WAT     H153771   0.737   3.482   1.773
17843WAT     H253772   0.602   3.527   1.853
17844WAT      O53773   8.613   6.955   9.356
17844WAT     H153774   8.657   6.907   9.432
17844WAT     H253775   8.539   6.899   9.319
17845WAT      O53776   0.724   3.554   4.329
17845WAT     H153777   0.669   3.600   4.399
17845WAT     H253778   0.804   3.512   4.373
17846WAT      O53779   9.080   1.330   5.960
17846WAT     H153780   8.984   1.338   5.987
17846WAT     H253781   9.088   1.340   5.861
17847WAT      O53782   9.361   8.366   7.567
17847WAT     H153783   9.435   8.306   7.598
17847WAT     H253784   9.326   8.333   7.479
17848WAT      O53785   7.317   6.317   7.140
17848WAT     H153786   7.287   6.222   7.133
17848WAT     H253787   7.297   6.352   7.232
17849WAT      O53788   7.048   1.483   7.219
17849WAT     H153789   7.093   1.507   7.133
17849WAT     H253790   7.108   1.423   7.272
17850WAT      O53791   8.909   2.199   1.475
17850WAT     H153792   8.924   2.285   1.427
17850WAT     H253793   8.814   2.194   1.506
17851WAT      O53794   4.677   4.806   3.311
17851WAT     H153795   4.694   4.709   3.331
17851WAT     H253796   4.690   4.822   3.213
17852WAT      O53797   0.244   4.781   1.514
17852WAT     H153798   0.219   4.837   1.435
17852WAT     H253799   0.308   4.710   1.485
17853WAT      O53800   4.055   2.218   6.602
17853WAT     H153801   4.150   2.237   6.576
17853WAT     H253802   4.054   2.172   6.691
17854WAT      O53803   9.660   5.032   4.132
17854WAT     H153804   9.637   4.983   4.047
17854WAT     H253805   9.589   5.013   4.200
17855WAT      O53806   8.212   8.997   2.911
17855WAT     H153807   8.247   9.012   2.819
17855WAT     H253808   8.285   9.011   2.978
17856WAT      O53809   6.456   1.335   2.390
17856WAT     H153810   6.390   1.373   2.325
17856WAT     H253811   6.472   1.403   2.462
17857WAT      O53812   7.094   5.464   0.718
17857WAT     H153813   7.040   5.541   0.754
17857WAT     H253814   7.141   5.419   0.794
17858WAT      O53815   6.182   1.416   4.315
17858WAT     H153816   6.152   1.506   4.284
17858WAT     H253817   6.260   1.426   4.377
17859WAT      O53818   3.949   0.419   4.604
17859WAT     H153819   3.907   0.349   4.663
17859WAT     H253820   3.951   0.385   4.510
17860WAT      O53821   4.985   4.132   3.938
17860WAT     H153822   4.913   4.103   3.875
17860WAT     H253823   4.977   4.080   4.023
17861WAT      O53824   1.003   8.953   2.876
17861WAT     H153825   0.912   8.918   2.853
17861WAT     H253826   1.027   8.924   2.969
17862WAT      O53827   5.921   8.423   8.271
17862WAT     H153828   6.019   8.405   8.276
17862WAT     H253829   5.887   8.400   8.179
17863WAT      O53830   9.529   4.065   6.032
17863WAT     H153831   9.559   4.073   6.127
17863WAT     H253832   9.446   4.119   6.018
17864WAT      O53833   0.732   7.517   2.662
17864WAT     H153834   0.785   7.433   2.673
17864WAT     H253835   0.785   7.582   2.606
17865WAT      O53836   8.667   5.553   0.676
17865WAT     H153837   8.732   5.629   0.684
17865WAT     H253838   8.587   5.583   0.624
17866WAT      O53839   1.198   3.532   8.017
17866WAT     H153840   1.242   3.595   7.952
17866WAT     H253841   1.243   3.443   8.013
17867WAT      O53842   9.474   6.554   2.833
17867WAT     H153843   9.378   6.572   2.811
17867WAT     H253844   9.485   6.544   2.932
17868WAT      O53845   5.437   8.991   5.971
17868WAT     H153846   5.518   8.981   6.028
17868WAT     H253847   5.433   9.083   5.933
17869WAT      O53848   4.589   4.389   7.440
17869WAT     H153849   4.606   4.312   7.378
17869WAT     H253850   4.558   4.468   7.387
17870WAT      O53851   0.877   1.940   7.320
17870WAT     H153852   0.815   2.006   7.276
17870WAT     H253853   0.836   1.907   7.405
17871WAT      O53854   3.095   4.831   2.263
17871WAT     H153855   3.061   4.900   2.199
17871WAT     H253856   3.195   4.827   2.258
17872WAT      O53857   9.453   3.318   8.457
17872WAT     H153858   9.517   3.369   8.400
17872WAT     H253859   9.430   3.231   8.414
17873WAT      O53860   3.466   2.202   5.803
17873WAT     H153861   3.530   2.183   5.878
17873WAT     H253862   3.446   2.301   5.802
17874WAT      O53863   7.898   8.098   1.724
17874WAT     H153864   7.819   8.041   1.701
17874WAT     H253865   7.982   8.046   1.709
17875WAT      O53866   0.921   6.569   1.384
17875WAT     H153867   0.891   6.569   1.480
17875WAT     H253868   0.880   6.647   1.337
17876WAT      O53869   2.792   6.733   7.177
17876WAT     H153870   2.801   6.818   7.230
17876WAT     H253871   2.751   6.662   7.235
17877WAT      O53872   1.261   0.048   1.930
17877WAT     H153873   1.208   0.131   1.951
17877WAT     H253874   1.354   0.074   1.905
17878WAT      O53875   9.800   5.580   8.349
17878WAT     H153876   9.836   5.487   8.346
17878WAT     H253877   9.803   5.620   8.257
17879WAT      O53878   5.277   8.825   2.588
17879WAT     H153879   5.227   8.739   2.578
17879WAT     H253880   5.217   8.895   2.627
17880WAT      O53881   8.140   3.274   4.630
17880WAT     H153882   8.227   3.323   4.639
17880WAT     H253883   8.158   3.179   4.604
17881WAT      O53884   2.656   4.897   5.590
17881WAT     H153885   2.619   4.990   5.587
17881WAT     H253886   2.678   4.866   5.497
17882WAT      O53887   9.452   0.871   3.509
17882WAT     H153888   9.464   0.950   3.570
17882WAT     H253889   9.462   0.787   3.562
17883WAT      O53890   7.803   5.946   3.738
17883WAT     H153891   7.719   5.924   3.688
17883WAT     H253892   7.841   6.032   3.704
17884WAT      O53893   1.902   7.351   7.072
17884WAT     H153894   1.946   7.400   6.997
17884WAT     H253895   1.922   7.253   7.064
17885WAT      O53896   8.507   5.493   8.065
17885WAT     H153897   8.481   5.402   8.032
17885WAT     H253898   8.585   5.485   8.127
17886WAT      O53899   7.726   4.198   9.576
17886WAT     H153900   7.725   4.173   9.479
17886WAT     H253901   7.786   4.277   9.590
17887WAT      O53902   1.250   4.320   6.794
17887WAT     H153903   1.278   4.387   6.863
17887WAT     H253904   1.159   4.286   6.816
17888WAT      O53905   1.986   6.898   1.586
17888WAT     H153906   1.993   6.826   1.656
17888WAT     H253907   1.984   6.856   1.496
17889WAT      O53908   3.023   7.421   7.374
17889WAT     H153909   3.054   7.368   7.294
17889WAT     H253910   3.062   7.381   7.457
17890WAT      O53911   5.594   9.678   1.973
17890WAT     H153912   5.686   9.642   1.956
17890WAT     H253913   5.577   9.680   2.072
17891WAT      O53914   9.465   1.705   8.967
17891WAT     H153915   9.451   1.737   9.060
17891WAT     H253916   9.429   1.612   8.957
17892WAT      O53917   9.094   6.754   0.427
17892WAT     H153918   9.181   6.732   0.384
17892WAT     H253919   9.025   6.687   0.401
17893WAT      O53920   2.995   7.360   9.055
17893WAT     H153921   2.904   7.354   9.096
17893WAT     H253922   3.010   7.453   9.022
17894WAT      O53923   6.410   2.592   7.696
17894WAT     H153924   6.482   2.566   7.631
17894WAT     H253925   6.452   2.624   7.781
17895WAT      O53926   9.703   6.291   4.358
17895WAT     H153927   9.796   6.320   4.377
17895WAT     H253928   9.639   6.353   4.403
17896WAT      O53929   7.145   2.120   7.819
17896WAT     H153930   7.195   2.203   7.844
17896WAT     H253931   7.114   2.127   7.725
17897WAT      O53932   4.267   7.926   2.760
17897WAT     H153933   4.246   7.842   2.710
17897WAT     H253934   4.316   7.989   2.699
17898WAT      O53935   6.513   7.481   0.861
17898WAT     H153936   6.454   7.543   0.809
17898WAT     H253937   6.606   7.518   0.864
17899WAT      O53938   8.437   0.412   7.293
17899WAT     H153939   8.408   0.321   7.265
17899WAT     H253940   8.446   0.415   7.393
17900WAT      O53941   7.699   1.194   3.571
17900WAT     H153942   7.716   1.098   3.594
17900WAT     H253943   7.600   1.210   3.565
17901WAT      O53944   4.092   2.877   1.979
17901WAT     H153945   4.139   2.965   1.969
17901WAT     H253946   4.081   2.856   2.076
17902WAT      O53947   1.221   6.156   3.284
17902WAT     H153948   1.159   6.079   3.301
17902WAT     H253949   1.187   6.237   3.332
17903WAT      O53950   8.736   0.412   1.394
17903WAT     H153951   8.724   0.458   1.482
17903WAT     H253952   8.725   0.479   1.320
17904WAT      O53953   5.383   7.551   2.451
17904WAT     H153954   5.408   7.594   2.538
17904WAT     H253955   5.414   7.456   2.450
17905WAT      O53956   4.132   6.168   5.425
17905WAT     H153957   4.075   6.107   5.478
17905WAT     H253958   4.214   6.119   5.393
17906WAT      O53959   6.271   1.832   5.089
17906WAT     H153960   6.255   1.881   5.004
17906WAT     H253961   6.304   1.740   5.069
17907WAT      O53962   4.452   0.983   4.588
17907WAT     H153963   4.450   1.082   4.577
17907WAT     H253964   4.381   0.955   4.654
17908WAT      O53965   5.909   2.338   4.622
17908WAT     H153966   5.825   2.331   4.676
17908WAT     H253967   5.894   2.298   4.532
17909WAT      O53968   3.703   3.997   8.231
17909WAT     H153969   3.655   4.061   8.172
17909WAT     H253970   3.662   3.998   8.322
17910WAT      O53971   5.814   8.912   3.906
17910WAT     H153972   5.886   8.967   3.949
17910WAT     H253973   5.855   8.858   3.832
17911WAT      O53974   4.466   4.609   5.092
17911WAT     H153975   4.421   4.611   5.181
17911WAT     H253976   4.558   4.570   5.102
17912WAT      O53977   0.380   1.224   3.250
17912WAT     H153978   0.444   1.155   3.214
17912WAT     H253979   0.393   1.310   3.200
17913WAT      O53980   0.411   5.091   4.445
17913WAT     H153981   0.400   5.051   4.354
17913WAT     H253982   0.382   5.186   4.443
17914WAT      O53983   1.382   1.163   6.567
17914WAT     H153984   1.383   1.064   6.582
17914WAT     H253985   1.430   1.209   6.642
17915WAT      O53986   9.472   4.344   3.915
17915WAT     H153987   9.499   4.310   4.005
17915WAT     H253988   9.542   4.406   3.880
17916WAT      O53989   4.512   3.589   0.092
17916WAT     H153990   4.438   3.554   0.035
17916WAT     H253991   4.581   3.517   0.105
17917WAT      O53992   0.102   1.982   5.121
17917WAT     H153993   0.112   2.006   5.217
17917WAT     H253994   0.043   1.902   5.113
17918WAT      O53995   2.065   7.202   5.807
17918WAT     H153996   1.969   7.176   5.812
17918WAT     H253997   2.073   7.292   5.764
17919WAT      O53998   1.738   1.263   4.499
17919WAT     H153999   1.797   1.232   4.574
17919WAT     H254000   1.795   1.298   4.425
17920WAT      O54001   2.717   3.684   1.109
17920WAT     H154002   2.659   3.655   1.033
17920WAT     H254003   2.674   3.657   1.196
17921WAT      O54004   6.470   9.126   3.614
17921WAT     H154005   6.557   9.080   3.632
17921WAT     H254006   6.461   9.142   3.516
17922WAT      O54007   8.818   3.445   1.350
17922WAT     H154008   8.793   3.429   1.255
17922WAT     H254009   8.751   3.506   1.392
17923WAT      O54010   2.459   2.960   9.445
17923WAT     H154011   2.398   2.977   9.368
17923WAT     H254012   2.513   2.877   9.428
17924WAT      O54013   7.280   4.094   1.421
17924WAT     H154014   7.339   4.023   1.382
17924WAT     H254015   7.215   4.053   1.484
17925WAT      O54016   8.279   1.959   9.415
17925WAT     H154017   8.340   2.009   9.477
17925WAT     H254018   8.292   1.861   9.428
17926WAT      O54019   4.006   0.049   6.938
17926WAT     H154020   4.059  -0.030   6.970
17926WAT     H254021   3.925   0.017   6.888
17927WAT      O54022   6.493   7.372   2.280
17927WAT     H154023   6.414   7.343   2.333
17927WAT     H254024   6.510   7.308   2.205
17928WAT      O54025   2.681   4.003   5.877
17928WAT     H154026   2.628   4.022   5.959
17928WAT     H254027   2.772   3.970   5.903
17929WAT      O54028   7.444   5.410   0.467
17929WAT     H154029   7.492   5.420   0.555
17929WAT     H254030   7.396   5.495   0.446
17930WAT      O54031   7.713   7.226   3.029
17930WAT     H154032   7.779   7.271   2.968
17930WAT     H254033   7.620   7.246   2.998
17931WAT      O54034   2.978   1.164   9.351
17931WAT     H154035   2.907   1.196   9.287
17931WAT     H254036   3.048   1.235   9.360
17932WAT      O54037   9.542   6.801   6.380
17932WAT     H154038   9.481   6.739   6.330
17932WAT     H254039   9.620   6.749   6.414
17933WAT      O54040   3.996   1.755   5.131
17933WAT     H154041   4.087   1.771   5.171
17933WAT     H254042   3.938   1.709   5.198
17934WAT      O54043   7.234   2.929   6.820
17934WAT     H154044   7.179   2.904   6.740
17934WAT     H254045   7.230   3.028   6.832
17935WAT      O54046   8.493   3.602   5.672
17935WAT     H154047   8.451   3.649   5.750
17935WAT     H254048   8.541   3.521   5.704
17936WAT      O54049   7.615   8.137   8.577
17936WAT     H154050   7.561   8.215   8.607
17936WAT     H254051   7.657   8.093   8.656
17937WAT      O54052   0.367   2.256   2.178
17937WAT     H154053   0.302   2.250   2.103
17937WAT     H254054   0.329   2.210   2.258
17938WAT      O54055   7.607   3.045   5.893
17938WAT     H154056   7.650   2.959   5.867
17938WAT     H254057   7.600   3.050   5.992
17939WAT      O54058   4.091   6.990   7.938
17939WAT     H154059   4.188   7.013   7.933
17939WAT     H254060   4.080   6.892   7.952
17940WAT      O54061   5.114   6.367   5.957
17940WAT     H154062   5.194   6.345   6.013
17940WAT     H254063   5.067   6.447   5.995
17941WAT      O54064   9.260   3.970   9.113
17941WAT     H154065   9.184   4.028   9.141
17941WAT     H254066   9.312   4.014   9.039
17942WAT      O54067   8.069   7.587   0.319
17942WAT     H154068   8.057   7.637   0.233
17942WAT     H254069   7.986   7.596   0.374
17943WAT      O54070   5.885   2.310   5.797
17943WAT     H154071   5.968   2.356   5.828
17943WAT     H254072   5.876   2.223   5.844
17944WAT      O54073   2.026   2.167   4.528
17944WAT     H154074   2.022   2.072   4.558
17944WAT     H254075   1.944   2.189   4.476
17945WAT      O54076   0.114   5.139   2.291
17945WAT     H154077   0.063   5.158   2.375
17945WAT     H254078   0.051   5.134   2.214
17946WAT      O54079   4.871   0.921   0.833
17946WAT     H154080   4.965   0.910   0.864
17946WAT     H254081   4.863   0.892   0.737
17947WAT      O54082   7.558   7.732   9.473
17947WAT     H154083   7.489   7.804   9.466
17947WAT     H254084   7.648   7.774   9.483
17948WAT      O54085   2.905   4.614   9.262
17948WAT     H154086   3.002   4.620   9.238
17948WAT     H254087   2.852   4.593   9.180
17949WAT      O54088   8.886   7.033   2.543
17949WAT     H154089   8.961   7.085   2.501
17949WAT     H254090   8.829   6.993   2.471
17950WAT      O54091   1.657   3.634   5.683
17950WAT     H154092   1.743   3.649   5.731
17950WAT     H254093   1.600   3.716   5.692
17951WAT      O54094   5.829   7.721   3.312
17951WAT     H154095   5.847   7.806   3.362
17951WAT     H254096   5.909   7.662   3.316
17952WAT      O54097   9.703   7.124   0.233
17952WAT     H154098   9.725   7.029   0.213
17952WAT     H254099   9.743   7.150   0.321
17953WAT      O54100   2.775   6.379   3.373
17953WAT     H154101   2.830   6.461   3.389
17953WAT     H254102   2.834   6.304   3.344
17954WAT      O54103   7.935   3.736   9.191
17954WAT     H154104   8.021   3.740   9.241
17954WAT     H254105   7.866   3.794   9.235
17955WAT      O54106   7.855   2.342   8.375
17955WAT     H154107   7.866   2.278   8.451
17955WAT     H254108   7.777   2.314   8.319
17956WAT      O54109   5.968   0.732   5.919
17956WAT     H154110   5.936   0.647   5.877
17956WAT     H254111   6.068   0.733   5.921
17957WAT      O54112   7.111   0.577   6.241
17957WAT     H154113   7.121   0.497   6.300
17957WAT     H254114   7.199   0.623   6.230
17958WAT      O54115   9.339   5.927   6.931
17958WAT     H154116   9.265   5.885   6.879
17958WAT     H254117   9.400   5.976   6.869
17959WAT      O54118   7.787   4.795   9.823
17959WAT     H154119   7.862   4.841   9.871
17959WAT     H254120   7.726   4.752   9.889
17960WAT      O54121   4.349   4.511   2.421
17960WAT     H154122   4.276   4.577   2.440
17960WAT     H254123   4.308   4.422   2.398
17961WAT      O54124   5.513   7.465   8.453
17961WAT     H154125   5.491   7.422   8.366
17961WAT     H254126   5.611   7.458   8.471
17962WAT      O54127   4.593   4.294   8.381
17962WAT     H154128   4.528   4.351   8.329
17962WAT     H254129   4.644   4.237   8.317
17963WAT      O54130   7.980   4.257   2.762
17963WAT     H154131   7.986   4.356   2.773
17963WAT     H254132   8.071   4.221   2.742
17964WAT      O54133   1.639   7.139   8.840
17964WAT     H154134   1.687   7.053   8.828
17964WAT     H254135   1.683   7.210   8.785
17965WAT      O54136   0.048   9.543   3.115
17965WAT     H154137   0.013   9.578   3.028
17965WAT     H254138  -0.022   9.550   3.185
17966WAT      O54139   2.619   3.827   1.904
17966WAT     H154140   2.565   3.805   1.823
17966WAT     H254141   2.577   3.785   1.984
17967WAT      O54142   4.986   6.569   3.682
17967WAT     H154143   5.042   6.496   3.721
17967WAT     H254144   4.891   6.558   3.714
17968WAT      O54145   1.442   9.234   5.193
17968WAT     H154146   1.476   9.164   5.255
17968WAT     H254147   1.515   9.299   5.172
17969WAT      O54148   7.577   8.339   6.255
17969WAT     H154149   7.642   8.336   6.179
17969WAT     H254150   7.625   8.360   6.340
17970WAT      O54151   3.559   8.696   2.122
17970WAT     H154152   3.618   8.673   2.199
17970WAT     H254153   3.602   8.665   2.037
17971WAT      O54154   4.221   9.231   6.442
17971WAT     H154155   4.155   9.156   6.446
17971WAT     H254156   4.301   9.208   6.498
17972WAT      O54157   9.204   0.962   3.858
17972WAT     H154158   9.212   0.912   3.944
17972WAT     H254159   9.156   0.905   3.791
17973WAT      O54160   3.839   1.223   0.292
17973WAT     H154161   3.835   1.257   0.386
17973WAT     H254162   3.890   1.138   0.289
17974WAT      O54163   1.810   0.793   1.512
17974WAT     H154164   1.743   0.719   1.505
17974WAT     H254165   1.801   0.839   1.600
17975WAT      O54166   4.880   1.232   9.695
17975WAT     H154167   4.803   1.255   9.635
17975WAT     H254168   4.894   1.307   9.760
17976WAT      O54169   8.822   0.233   1.751
17976WAT     H154170   8.840   0.162   1.683
17976WAT     H254171   8.909   0.270   1.784
17977WAT      O54172   0.851   9.160   7.486
17977WAT     H154173   0.866   9.204   7.574
17977WAT     H254174   0.778   9.091   7.495
17978WAT      O54175   6.579   0.267   0.884
17978WAT     H154176   6.491   0.281   0.838
17978WAT     H254177   6.648   0.325   0.843
17979WAT      O54178   0.699   6.951   0.389
17979WAT     H154179   0.688   6.882   0.461
17979WAT     H254180   0.628   7.021   0.398
17980WAT      O54181   2.043   2.195   8.834
17980WAT     H154182   1.978   2.162   8.903
17980WAT     H254183   2.013   2.167   8.743
17981WAT      O54184   2.310   4.456   6.993
17981WAT     H154185   2.278   4.500   6.909
17981WAT     H254186   2.236   4.401   7.032
17982WAT      O54187   2.135   7.452   6.756
17982WAT     H154188   2.044   7.434   6.721
17982WAT     H254189   2.190   7.497   6.686
17983WAT      O54190   4.519   5.436   7.751
17983WAT     H154191   4.579   5.380   7.694
17983WAT     H254192   4.567   5.460   7.836
17984WAT      O54193   7.705   1.379   1.956
17984WAT     H154194   7.620   1.417   1.992
17984WAT     H254195   7.685   1.327   1.873
17985WAT      O54196   1.490   2.881   5.456
17985WAT     H154197   1.511   2.869   5.553
17985WAT     H254198   1.425   2.956   5.445
17986WAT      O54199   0.845   1.774   4.618
17986WAT     H154200   0.756   1.777   4.572
17986WAT     H254201   0.850   1.849   4.684
17987WAT      O54202   0.961   4.622   2.717
17987WAT     H154203   1.045   4.658   2.676
17987WAT     H254204   0.911   4.696   2.761
17988WAT      O54205   4.123   9.598   7.854
17988WAT     H154206   4.061   9.654   7.799
17988WAT     H254207   4.160   9.524   7.798
17989WAT      O54208   5.952   5.727   6.245
17989WAT     H154209   5.881   5.792   6.220
17989WAT     H254210   5.953   5.651   6.180
17990WAT      O54211   5.405   1.226   4.526
17990WAT     H154212   5.497   1.266   4.520
17990WAT     H254213   5.370   1.238   4.619
17991WAT      O54214   3.343   1.758   1.728
17991WAT     H154215   3.419   1.711   1.773
17991WAT     H254216   3.261   1.752   1.784
17992WAT      O54217   7.897   8.087   5.987
17992WAT     H154218   7.833   8.152   6.027
17992WAT     H254219   7.945   8.038   6.060
17993WAT      O54220   0.583   0.486   6.291
17993WAT     H154221   0.620   0.396   6.311
17993WAT     H254222   0.628   0.524   6.210
17994WAT      O54223   8.728   7.967   4.923
17994WAT     H154224   8.790   7.899   4.884
17994WAT     H254225   8.778   8.023   4.989
17995WAT      O54226   8.969   9.670   1.684
17995WAT     H154227   8.988   9.715   1.597
17995WAT     H254228   9.054   9.656   1.734
17996WAT      O54229   3.405   7.607   0.736
17996WAT     H154230   3.456   7.528   0.769
17996WAT     H254231   3.307   7.588   0.740
17997WAT      O54232   3.792   0.581   5.077
17997WAT     H154233   3.845   0.658   5.042
17997WAT     H254234   3.796   0.505   5.012
17998WAT      O54235   4.203   1.064   0.835
17998WAT     H154236   4.161   1.124   0.904
17998WAT     H254237   4.284   1.021   0.874
17999WAT      O54238   6.586   5.358   6.090
17999WAT     H154239   6.651   5.306   6.146
17999WAT     H254240   6.493   5.330   6.112
18000WAT      O54241   6.929   8.429   8.982
18000WAT     H154242   6.968   8.521   8.976
18000WAT     H254243   6.890   8.415   9.073
18001WAT      O54244   3.464   6.635   3.497
18001WAT     H154245   3.370   6.604   3.511
18001WAT     H254246   3.518   6.561   3.456
18002WAT      O54247   9.158   5.541   7.341
18002WAT     H154248   9.111   5.454   7.324
18002WAT     H254249   9.251   5.537   7.303
18003WAT      O54250   2.649   0.143   9.705
18003WAT     H154251   2.639   0.184   9.615
18003WAT     H254252   2.718   0.193   9.758
18004WAT      O54253   0.393   7.621   4.075
18004WAT     H154254   0.467   7.579   4.128
18004WAT     H254255   0.389   7.579   3.984
18005WAT      O54256   9.021   0.564   6.809
18005WAT     H154257   9.111   0.590   6.842
18005WAT     H254258   9.030   0.498   6.734
18006WAT      O54259   8.369   7.851   8.155
18006WAT     H154260   8.394   7.931   8.209
18006WAT     H254261   8.382   7.870   8.058
18007WAT      O54262   8.672   2.886   8.414
18007WAT     H154263   8.669   2.856   8.318
18007WAT     H254264   8.677   2.986   8.417
18008WAT      O54265   9.880   1.926   9.669
18008WAT     H154266   9.852   1.919   9.573
18008WAT     H254267   9.820   1.870   9.725
18009WAT      O54268   2.022   2.522   7.259
18009WAT     H154269   1.929   2.540   7.289
18009WAT     H254270   2.056   2.599   7.204
18010WAT      O54271   6.476   8.868   8.832
18010WAT     H154272   6.421   8.899   8.754
18010WAT     H254273   6.435   8.900   8.917
18011WAT      O54274   1.337   6.770   5.137
18011WAT     H154275   1.282   6.825   5.199
18011WAT     H254276   1.308   6.674   5.143
18012WAT      O54277   4.120   1.459   5.188
18012WAT     H154278   4.159   1.377   5.229
18012WAT     H254279   4.172   1.483   5.106
18013WAT      O54280   0.658   5.886   2.210
18013WAT     H154281   0.735   5.822   2.209
18013WAT     H254282   0.576   5.839   2.244
18014WAT      O54283   8.411   8.447   0.542
18014WAT     H154284   8.325   8.397   0.535
18014WAT     H254285   8.430   8.468   0.638
18015WAT      O54286   3.344   7.444   5.972
18015WAT     H154287   3.367   7.354   5.936
18015WAT     H254288   3.244   7.452   5.981
18016WAT      O54289   1.320   4.765   9.483
18016WAT     H154290   1.399   4.826   9.493
18016WAT     H254291   1.252   4.808   9.425
18017WAT      O54292   9.391   0.691   5.617
18017WAT     H154293   9.470   0.695   5.679
18017WAT     H254294   9.394   0.768   5.554
18018WAT      O54295   8.078   3.582   7.966
18018WAT     H154296   8.127   3.496   7.953
18018WAT     H254297   8.117   3.652   7.905
18019WAT      O54298   0.728   3.401   8.500
18019WAT     H154299   0.686   3.351   8.424
18019WAT     H254300   0.827   3.391   8.496
18020WAT      O54301   1.506   2.943   3.021
18020WAT     H154302   1.516   2.888   3.105
18020WAT     H254303   1.453   3.025   3.042
18021WAT      O54304   5.637   9.301   0.255
18021WAT     H154305   5.691   9.316   0.338
18021WAT     H254306   5.608   9.390   0.218
18022WAT      O54307   6.405   8.901   1.228
18022WAT     H154308   6.466   8.936   1.157
18022WAT     H254309   6.377   8.976   1.287
18023WAT      O54310   0.030   5.959   6.957
18023WAT     H154311  -0.046   6.012   6.995
18023WAT     H254312   0.009   5.861   6.966
18024WAT      O54313   2.354   0.960   3.473
18024WAT     H154314   2.438   0.914   3.446
18024WAT     H254315   2.280   0.893   3.479
18025WAT      O54316   3.043   5.343   2.837
18025WAT     H154317   3.091   5.374   2.755
18025WAT     H254318   2.981   5.268   2.813
18026WAT      O54319   3.578   3.628   6.159
18026WAT     H154320   3.544   3.606   6.251
18026WAT     H254321   3.514   3.689   6.113
18027WAT      O54322   4.001   9.389   6.387
18027WAT     H154323   4.073   9.319   6.379
18027WAT     H254324   3.923   9.350   6.435
18028WAT      O54325   9.349   1.677   7.599
18028WAT     H154326   9.318   1.732   7.521
18028WAT     H254327   9.330   1.727   7.684
18029WAT      O54328   8.027   5.976   1.966
18029WAT     H154329   7.947   5.976   2.027
18029WAT     H254330   8.080   6.059   1.981
18030WAT      O54331   1.051   1.499   9.843
18030WAT     H154332   1.004   1.587   9.857
18030WAT     H254333   1.116   1.484   9.917
18031WAT      O54334   8.346   9.095   8.425
18031WAT     H154335   8.365   9.001   8.453
18031WAT     H254336   8.284   9.095   8.347
18032WAT      O54337   4.334   7.028   1.955
18032WAT     H154338   4.237   7.011   1.943
18032WAT     H254339   4.348   7.117   2.000
18033WAT      O54340   0.048   0.608   0.144
18033WAT     H154341   0.048   0.549   0.063
18033WAT     H254342   0.129   0.587   0.200
18034WAT      O54343   6.265   5.682   6.589
18034WAT     H154344   6.247   5.780   6.577
18034WAT     H254345   6.295   5.643   6.502
18035WAT      O54346   9.529   9.262   0.343
18035WAT     H154347   9.464   9.186   0.352
18035WAT     H254348   9.623   9.226   0.347
18036WAT      O54349   2.465   7.693   1.119
18036WAT     H154350   2.521   7.670   1.039
18036WAT     H254351   2.368   7.687   1.095
18037WAT      O54352   4.535   5.412   0.911
18037WAT     H154353   4.506   5.508   0.911
18037WAT     H254354   4.594   5.395   0.832
18038WAT      O54355   4.977   5.759   4.612
18038WAT     H154356   5.016   5.755   4.705
18038WAT     H254357   4.878   5.746   4.616
18039WAT      O54358   1.045   1.246   1.666
18039WAT     H154359   1.076   1.311   1.596
18039WAT     H254360   1.042   1.292   1.755
18040WAT      O54361   3.099   4.914   1.782
18040WAT     H154362   3.007   4.876   1.785
18040WAT     H254363   3.164   4.842   1.759
18041WAT      O54364   2.140   9.485   4.861
18041WAT     H154365   2.148   9.578   4.825
18041WAT     H254366   2.230   9.444   4.872
18042WAT      O54367   3.559   1.121   5.898
18042WAT     H154368   3.577   1.023   5.888
18042WAT     H254369   3.496   1.136   5.974
18043WAT      O54370   8.607   9.338   8.774
18043WAT     H154371   8.555   9.258   8.804
18043WAT     H254372   8.690   9.345   8.829
18044WAT      O54373   1.587   1.679   7.304
18044WAT     H154374   1.588   1.766   7.254
18044WAT     H254375   1.677   1.638   7.301
18045WAT      O54376   5.788   5.816   6.705
18045WAT     H154377   5.864   5.820   6.639
18045WAT     H254378   5.760   5.721   6.717
18046WAT      O54379   7.849   0.071   4.795
18046WAT     H154380   7.919   0.003   4.771
18046WAT     H254381   7.849   0.086   4.894
18047WAT      O54382   7.467   2.180   9.401
18047WAT     H154383   7.396   2.120   9.363
18047WAT     H254384   7.556   2.152   9.367
18048WAT      O54385   8.923   1.715   1.048
18048WAT     H154386   8.854   1.777   1.085
18048WAT     H254387   9.006   1.766   1.026
18049WAT      O54388   0.191   8.029   5.545
18049WAT     H154389   0.175   8.088   5.624
18049WAT     H254390   0.289   8.012   5.534
18050WAT      O54391   6.934   2.178   6.253
18050WAT     H154392   7.014   2.235   6.270
18050WAT     H254393   6.869   2.188   6.328
18051WAT      O54394   3.384   0.036   1.985
18051WAT     H154395   3.417   0.118   2.032
18051WAT     H254396   3.431   0.028   1.897
18052WAT      O54397   5.147   8.857   0.317
18052WAT     H154398   5.214   8.835   0.246
18052WAT     H254399   5.194   8.891   0.398
18053WAT      O54400   4.848   9.698   4.845
18053WAT     H154401   4.793   9.714   4.764
18053WAT     H254402   4.789   9.700   4.926
18054WAT      O54403   0.885   2.456   4.240
18054WAT     H154404   0.891   2.385   4.310
18054WAT     H254405   0.796   2.501   4.245
18055WAT      O54406   1.792   4.626   4.827
18055WAT     H154407   1.786   4.548   4.889
18055WAT     H254408   1.834   4.704   4.874
18056WAT      O54409   9.077   4.861   9.125
18056WAT     H154410   9.000   4.917   9.154
18056WAT     H254411   9.088   4.867   9.026
18057WAT      O54412   1.226   1.604   6.737
18057WAT     H154413   1.144   1.553   6.708
18057WAT     H254414   1.198   1.683   6.793
18058WAT      O54415   2.957   6.445   4.880
18058WAT     H154416   3.003   6.529   4.852
18058WAT     H254417   2.927   6.394   4.799
18059WAT      O54418   7.928   4.242   8.737
18059WAT     H154419   7.968   4.222   8.827
18059WAT     H254420   7.962   4.330   8.705
18060WAT      O54421   0.175   0.915   4.560
18060WAT     H154422   0.134   0.823   4.558
18060WAT     H254423   0.187   0.947   4.466
18061WAT      O54424   3.015   1.894   7.162
18061WAT     H154425   3.045   1.801   7.140
18061WAT     H254426   2.929   1.890   7.214
18062WAT      O54427   6.219   4.997   0.816
18062WAT     H154428   6.231   5.031   0.723
18062WAT     H254429   6.176   5.067   0.872
18063WAT      O54430   8.018   7.923   1.443
18063WAT     H154431   8.036   8.019   1.467
18063WAT     H254432   8.100   7.884   1.400
18064WAT      O54433   6.676   0.310   6.082
18064WAT     H154434   6.664   0.355   6.170
18064WAT     H254435   6.732   0.228   6.094
18065WAT      O54436   1.779   2.650   9.478
18065WAT     H154437   1.809   2.684   9.388
18065WAT     H254438   1.744   2.727   9.532
18066WAT      O54439   7.566   2.558   5.698
18066WAT     H154440   7.624   2.610   5.760
18066WAT     H254441   7.574   2.595   5.606
18067WAT      O54442   4.183   7.891   1.719
18067WAT     H154443   4.254   7.854   1.778
18067WAT     H254444   4.198   7.989   1.706
18068WAT      O54445   3.919   6.088   3.650
18068WAT     H154446   3.931   6.106   3.552
18068WAT     H254447   4.003   6.113   3.699
18069WAT      O54448   3.637   8.741   3.141
18069WAT     H154449   3.677   8.791   3.217
18069WAT     H254450   3.691   8.757   3.058
18070WAT      O54451   1.722   7.349   5.676
18070WAT     H154452   1.763   7.405   5.747
18070WAT     H254453   1.761   7.257   5.679
18071WAT      O54454   5.100   8.568   6.029
18071WAT     H154455   5.105   8.662   5.995
18071WAT     H254456   5.125   8.567   6.126
18072WAT      O54457   2.972   0.998   3.640
18072WAT     H154458   2.992   0.947   3.724
18072WAT     H254459   3.054   1.046   3.610
18073WAT      O54460   6.960   4.221   9.324
18073WAT     H154461   6.974   4.215   9.225
18073WAT     H254462   7.001   4.141   9.368
18074WAT      O54463   3.096   1.054   3.937
18074WAT     H154464   3.070   0.962   3.906
18074WAT     H254465   3.194   1.056   3.958
18075WAT      O54466   2.771   0.415   6.862
18075WAT     H154467   2.840   0.429   6.934
18075WAT     H254468   2.696   0.360   6.899
18076WAT      O54469   7.374   2.133   2.402
18076WAT     H154470   7.348   2.226   2.375
18076WAT     H254471   7.292   2.076   2.410
18077WAT      O54472   8.944   9.149   4.325
18077WAT     H154473   8.971   9.235   4.369
18077WAT     H254474   8.949   9.159   4.226
18078WAT      O54475   4.462   8.316   2.902
18078WAT     H154476   4.487   8.250   2.973
18078WAT     H254477   4.529   8.310   2.827
18079WAT      O54478   8.709   6.799   4.795
18079WAT     H154479   8.649   6.753   4.861
18079WAT     H254480   8.783   6.844   4.845
18080WAT      O54481   1.841   7.896   5.140
18080WAT     H154482   1.914   7.845   5.186
18080WAT     H254483   1.842   7.873   5.042
18081WAT      O54484   6.987   2.536   1.694
18081WAT     H154485   6.903   2.520   1.746
18081WAT     H254486   6.998   2.634   1.677
18082WAT      O54487   7.279   7.166   6.688
18082WAT     H154488   7.344   7.182   6.613
18082WAT     H254489   7.190   7.142   6.650
18083WAT      O54490   2.609   0.752   5.578
18083WAT     H154491   2.608   0.851   5.585
18083WAT     H254492   2.666   0.724   5.502
18084WAT      O54493   4.925   0.108   6.180
18084WAT     H154494   4.830   0.089   6.157
18084WAT     H254495   4.930   0.139   6.275
18085WAT      O54496   8.342   5.021   4.873
18085WAT     H154497   8.343   4.939   4.815
18085WAT     H254498   8.266   5.079   4.846
18086WAT      O54499   5.406   2.943   7.969
18086WAT     H154500   5.312   2.909   7.977
18086WAT     H254501   5.420   2.981   7.877
18087WAT      O54502   0.426   5.543   7.803
18087WAT     H154503   0.426   5.475   7.877
18087WAT     H254504   0.467   5.628   7.835
18088WAT      O54505   5.467   1.886   6.954
18088WAT     H154506   5.486   1.977   6.989
18088WAT     H254507   5.371   1.863   6.971
18089WAT      O54508   0.139   3.594   6.656
18089WAT     H154509   0.204   3.546   6.596
18089WAT     H254510   0.187   3.628   6.736
18090WAT      O54511   4.505   4.711   7.334
18090WAT     H154512   4.593   4.724   7.290
18090WAT     H254513   4.435   4.695   7.265
18091WAT      O54514   0.127   4.557   1.085
18091WAT     H154515   0.189   4.633   1.068
18091WAT     H254516   0.083   4.529   0.999
18092WAT      O54517   3.251   5.691   3.553
18092WAT     H154518   3.343   5.703   3.590
18092WAT     H254519   3.225   5.595   3.560
18093WAT      O54520   5.337   4.251   1.678
18093WAT     H154521   5.268   4.311   1.638
18093WAT     H254522   5.312   4.229   1.772
18094WAT      O54523   0.439   7.585   8.095
18094WAT     H154524   0.537   7.566   8.093
18094WAT     H254525   0.404   7.590   8.002
18095WAT      O54526   3.229   8.798   0.464
18095WAT     H154527   3.148   8.817   0.408
18095WAT     H254528   3.284   8.727   0.419
18096WAT      O54529   9.223   3.279   7.167
18096WAT     H154530   9.165   3.333   7.228
18096WAT     H254531   9.239   3.329   7.082
18097WAT      O54532   9.500   9.656   9.837
18097WAT     H154533   9.584   9.709   9.828
18097WAT     H254534   9.451   9.684   9.919
18098WAT      O54535   8.070   9.648   0.243
18098WAT     H154536   7.977   9.621   0.218
18098WAT     H254537   8.134   9.573   0.222
18099WAT      O54538   0.122   1.881   0.864
18099WAT     H154539   0.056   1.866   0.790
18099WAT     H254540   0.108   1.813   0.936
18100WAT      O54541   1.678   3.829   1.738
18100WAT     H154542   1.612   3.866   1.673
18100WAT     H254543   1.665   3.730   1.746
18101WAT      O54544   3.011   9.222   5.239
18101WAT     H154545   2.968   9.134   5.224
18101WAT     H254546   3.001   9.279   5.157
18102WAT      O54547   5.311   1.425   9.169
18102WAT     H154548   5.242   1.434   9.098
18102WAT     H254549   5.398   1.464   9.138
18103WAT      O54550   3.700   1.299   8.814
18103WAT     H154551   3.680   1.219   8.757
18103WAT     H254552   3.763   1.360   8.765
18104WAT      O54553   6.958   9.277   6.541
18104WAT     H154554   6.928   9.338   6.614
18104WAT     H254555   7.021   9.325   6.480
18105WAT      O54556   0.397   3.448   4.533
18105WAT     H154557   0.366   3.396   4.454
18105WAT     H254558   0.372   3.400   4.618
18106WAT      O54559   1.662   0.760   4.329
18106WAT     H154560   1.582   0.708   4.360
18106WAT     H254561   1.744   0.723   4.371
18107WAT      O54562   6.249   8.079   1.333
18107WAT     H154563   6.266   8.004   1.396
18107WAT     H254564   6.260   8.166   1.380
18108WAT      O54565   0.977   9.260   8.544
18108WAT     H154566   1.057   9.304   8.505
18108WAT     H254567   0.978   9.162   8.521
18109WAT      O54568   1.450   0.039   4.726
18109WAT     H154569   1.365   0.092   4.723
18109WAT     H254570   1.432  -0.055   4.696
18110WAT      O54571   3.125   8.186   4.784
18110WAT     H154572   3.158   8.277   4.759
18110WAT     H254573   3.072   8.148   4.708
18111WAT      O54574   8.278   1.117   7.485
18111WAT     H154575   8.352   1.183   7.491
18111WAT     H254576   8.307   1.038   7.431
18112WAT      O54577   5.546   7.492   5.123
18112WAT     H154578   5.604   7.411   5.130
18112WAT     H254579   5.476   7.488   5.195
18113WAT      O54580   6.639   4.546   6.859
18113WAT     H154581   6.590   4.473   6.907
18113WAT     H254582   6.682   4.508   6.777
18114WAT      O54583   8.814   7.740   0.405
18114WAT     H154584   8.842   7.768   0.313
18114WAT     H254585   8.853   7.651   0.426
18115WAT      O54586   2.547   2.216   1.298
18115WAT     H154587   2.463   2.228   1.245
18115WAT     H254588   2.582   2.123   1.284
18116WAT      O54589   7.168   1.612   8.310
18116WAT     H154590   7.182   1.614   8.409
18116WAT     H254591   7.218   1.688   8.267
18117WAT      O54592   7.772   3.478   7.103
18117WAT     H154593   7.858   3.512   7.067
18117WAT     H254594   7.729   3.549   7.159
18118WAT      O54595   1.996   2.597   3.607
18118WAT     H154596   1.938   2.677   3.590
18118WAT     H254597   1.983   2.530   3.535
18119WAT      O54598   6.049   4.943   1.161
18119WAT     H154599   5.989   4.867   1.135
18119WAT     H254600   6.010   5.029   1.129
18120WAT      O54601   2.692   7.415   6.261
18120WAT     H154602   2.788   7.444   6.260
18120WAT     H254603   2.672   7.363   6.178
18121WAT      O54604   5.470   2.124   4.932
18121WAT     H154605   5.538   2.091   4.866
18121WAT     H254606   5.382   2.137   4.886
18122WAT      O54607   5.154   2.559   3.295
18122WAT     H154608   5.123   2.541   3.202
18122WAT     H254609   5.076   2.553   3.358
18123WAT      O54610   3.039   6.943   2.355
18123WAT     H154611   3.034   6.942   2.255
18123WAT     H254612   2.971   7.008   2.391
18124WAT      O54613   4.740   2.382   6.425
18124WAT     H154614   4.821   2.434   6.452
18124WAT     H254615   4.659   2.441   6.433
18125WAT      O54616   4.062   7.393   7.347
18125WAT     H154617   4.114   7.377   7.264
18125WAT     H254618   3.982   7.449   7.326
18126WAT      O54619   3.500   2.511   8.873
18126WAT     H154620   3.561   2.514   8.793
18126WAT     H254621   3.507   2.422   8.917
18127WAT      O54622   2.034   6.056   0.419
18127WAT     H154623   1.966   6.003   0.368
18127WAT     H254624   2.113   5.998   0.440
18128WAT      O54625   5.016   5.525   3.199
18128WAT     H154626   5.009   5.578   3.284
18128WAT     H254627   5.072   5.574   3.133
18129WAT      O54628   3.741   1.434   3.217
18129WAT     H154629   3.802   1.464   3.143
18129WAT     H254630   3.792   1.427   3.302
18130WAT      O54631   5.226   7.077   6.992
18130WAT     H154632   5.240   7.040   7.084
18130WAT     H254633   5.300   7.046   6.932
18131WAT      O54634   5.957   0.113   5.932
18131WAT     H154635   5.870   0.112   5.883
18131WAT     H254636   5.946   0.162   6.018
18132WAT      O54637   7.769   1.550   6.411
18132WAT     H154638   7.783   1.510   6.320
18132WAT     H254639   7.673   1.539   6.437
18133WAT      O54640   3.956   5.793   6.095
18133WAT     H154641   3.882   5.727   6.084
18133WAT     H254642   3.981   5.799   6.192
18134WAT      O54643   1.212   5.488   7.956
18134WAT     H154644   1.285   5.516   7.893
18134WAT     H254645   1.153   5.566   7.975
18135WAT      O54646   4.425   1.340   3.851
18135WAT     H154647   4.459   1.415   3.909
18135WAT     H254648   4.499   1.276   3.833
18136WAT      O54649   1.921   6.282   5.837
18136WAT     H154650   1.857   6.356   5.817
18136WAT     H254651   2.014   6.312   5.815
18137WAT      O54652   7.467   0.686   8.476
18137WAT     H154653   7.564   0.708   8.475
18137WAT     H254654   7.434   0.677   8.381
18138WAT      O54655   4.558   4.419   5.493
18138WAT     H154656   4.529   4.475   5.570
18138WAT     H254657   4.482   4.361   5.463
18139WAT      O54658   8.061   9.212   0.192
18139WAT     H154659   8.088   9.136   0.133
18139WAT     H254660   7.980   9.185   0.245
18140WAT      O54661   1.657   5.019   7.828
18140WAT     H154662   1.604   5.103   7.834
18140WAT     H254663   1.737   5.025   7.888
18141WAT      O54664   0.215   8.305   8.690
18141WAT     H154665   0.125   8.335   8.660
18141WAT     H254666   0.218   8.205   8.693
18142WAT      O54667   8.658   0.249   0.303
18142WAT     H154668   8.645   0.291   0.213
18142WAT     H254669   8.642   0.317   0.374
18143WAT      O54670   2.391   8.847   2.148
18143WAT     H154671   2.402   8.921   2.081
18143WAT     H254672   2.465   8.851   2.214
18144WAT      O54673   1.038   9.470   2.588
18144WAT     H154674   1.080   9.386   2.554
18144WAT     H254675   1.007   9.525   2.510
18145WAT      O54676   9.357   0.436   9.350
18145WAT     H154677   9.401   0.399   9.432
18145WAT     H254678   9.270   0.479   9.375
18146WAT      O54679   0.656   4.463   3.347
18146WAT     H154680   0.588   4.533   3.324
18146WAT     H254681   0.625   4.412   3.427
18147WAT      O54682   1.832   5.093   8.025
18147WAT     H154683   1.873   5.164   8.082
18147WAT     H254684   1.804   5.016   8.082
18148WAT      O54685   3.001   8.624   6.936
18148WAT     H154686   2.964   8.617   6.844
18148WAT     H254687   2.947   8.690   6.989
18149WAT      O54688   6.069   4.517   6.081
18149WAT     H154689   6.128   4.496   6.159
18149WAT     H254690   5.975   4.527   6.112
18150WAT      O54691   5.133   8.146   0.806
18150WAT     H154692   5.219   8.114   0.767
18150WAT     H254693   5.112   8.094   0.889
18151WAT      O54694   0.492   0.035   0.922
18151WAT     H154695   0.506  -0.064   0.916
18151WAT     H254696   0.434   0.055   1.001
18152WAT      O54697   5.344   3.477   0.098
18152WAT     H154698   5.378   3.385   0.081
18152WAT     H254699   5.282   3.476   0.176
18153WAT      O54700   7.563   6.461   6.476
18153WAT     H154701   7.472   6.468   6.434
18153WAT     H254702   7.577   6.367   6.509
18154WAT      O54703   1.840   2.582   8.973
18154WAT     H154704   1.883   2.667   9.005
18154WAT     H254705   1.746   2.601   8.945
18155WAT      O54706   2.397   8.183   8.417
18155WAT     H154707   2.464   8.254   8.398
18155WAT     H254708   2.430   8.096   8.381
18156WAT      O54709   6.559   6.351   9.491
18156WAT     H154710   6.469   6.380   9.457
18156WAT     H254711   6.563   6.251   9.491
18157WAT      O54712   2.057   8.907   8.606
18157WAT     H154713   2.151   8.940   8.596
18157WAT     H254714   2.019   8.939   8.693
18158WAT      O54715   6.138   4.218   5.054
18158WAT     H154716   6.193   4.256   5.129
18158WAT     H254717   6.054   4.179   5.092
18159WAT      O54718   6.326   6.140   7.752
18159WAT     H154719   6.236   6.153   7.795
18159WAT     H254720   6.331   6.193   7.667
18160WAT      O54721   6.376   7.027   2.312
18160WAT     H154722   6.337   7.020   2.220
18160WAT     H254723   6.338   7.107   2.358
18161WAT      O54724   4.514   9.827   8.310
18161WAT     H154725   4.575   9.903   8.333
18161WAT     H254726   4.561   9.764   8.248
18162WAT      O54727   5.274   8.377   0.599
18162WAT     H154728   5.330   8.456   0.577
18162WAT     H254729   5.313   8.328   0.676
18163WAT      O54730   5.165   9.620   7.337
18163WAT     H154731   5.255   9.585   7.312
18163WAT     H254732   5.175   9.710   7.379
18164WAT      O54733   0.752   3.961   3.475
18164WAT     H154734   0.756   3.863   3.456
18164WAT     H254735   0.720   4.009   3.393
18165WAT      O54736   4.141   2.900   3.378
18165WAT     H154737   4.163   2.984   3.328
18165WAT     H254738   4.134   2.921   3.476
18166WAT      O54739   8.007   0.964   0.235
18166WAT     H154740   8.019   0.865   0.241
18166WAT     H254741   7.923   0.990   0.283
18167WAT      O54742   7.514   0.161   7.273
18167WAT     H154743   7.502   0.259   7.291
18167WAT     H254744   7.462   0.108   7.340
18168WAT      O54745   1.071   2.056   4.797
18168WAT     H154746   1.122   2.131   4.840
18168WAT     H254747   1.120   1.970   4.813
18169WAT      O54748   4.493   3.945   1.044
18169WAT     H154749   4.450   3.864   1.006
18169WAT     H254750   4.424   4.002   1.088
18170WAT      O54751   5.377   5.458   8.848
18170WAT     H154752   5.313   5.418   8.914
18170WAT     H254753   5.469   5.462   8.889
18171WAT      O54754   3.079   9.425   2.775
18171WAT     H154755   3.033   9.503   2.733
18171WAT     H254756   3.026   9.342   2.757
18172WAT      O54757   9.269   2.936   2.958
18172WAT     H154758   9.365   2.910   2.954
18172WAT     H254759   9.243   2.980   2.872
18173WAT      O54760   3.757   4.999   4.095
18173WAT     H154761   3.799   5.018   4.007
18173WAT     H254762   3.800   5.055   4.166
18174WAT      O54763   9.014   1.288   4.619
18174WAT     H154764   8.956   1.364   4.589
18174WAT     H254765   9.034   1.229   4.541
18175WAT      O54766   9.874   8.266   2.249
18175WAT     H154767   9.950   8.295   2.308
18175WAT     H254768   9.825   8.346   2.215
18176WAT      O54769   5.672   7.669   5.408
18176WAT     H154770   5.613   7.723   5.348
18176WAT     H254771   5.629   7.581   5.427
18177WAT      O54772   3.626   7.409   2.967
18177WAT     H154773   3.725   7.408   2.982
18177WAT     H254774   3.601   7.341   2.899
18178WAT      O54775   3.507   0.894   8.660
18178WAT     H154776   3.566   0.814   8.653
18178WAT     H254777   3.450   0.900   8.578
18179WAT      O54778   9.376   5.824   2.330
18179WAT     H154779   9.458   5.872   2.298
18179WAT     H254780   9.295   5.865   2.287
18180WAT      O54781   8.681   9.144   6.762
18180WAT     H154782   8.721   9.055   6.783
18180WAT     H254783   8.587   9.147   6.795
18181WAT      O54784   2.426   5.155   7.265
18181WAT     H154785   2.341   5.199   7.293
18181WAT     H254786   2.503   5.199   7.310
18182WAT      O54787   4.264   8.104   0.865
18182WAT     H154788   4.276   8.072   0.959
18182WAT     H254789   4.178   8.069   0.829
18183WAT      O54790   9.466   4.295   2.473
18183WAT     H154791   9.559   4.270   2.502
18183WAT     H254792   9.421   4.214   2.434
18184WAT      O54793   4.434   0.141   5.839
18184WAT     H154794   4.399   0.053   5.807
18184WAT     H254795   4.529   0.152   5.810
18185WAT      O54796   4.543   5.359   8.420
18185WAT     H154797   4.606   5.301   8.368
18185WAT     H254798   4.594   5.410   8.489
18186WAT      O54799   9.745   3.945   6.314
18186WAT     H154800   9.763   4.037   6.280
18186WAT     H254801   9.781   3.877   6.249
18187WAT      O54802   4.642   6.572   5.666
18187WAT     H154803   4.675   6.564   5.760
18187WAT     H254804   4.698   6.639   5.617
18188WAT      O54805   5.099   6.194   0.271
18188WAT     H154806   5.032   6.211   0.344
18188WAT     H254807   5.081   6.105   0.229
18189WAT      O54808   3.151   9.147   2.565
18189WAT     H154809   3.199   9.147   2.653
18189WAT     H254810   3.205   9.097   2.497
18190WAT      O54811   1.861   1.250   4.051
18190WAT     H154812   1.777   1.196   4.048
18190WAT     H254813   1.838   1.347   4.041
18191WAT      O54814   7.699   5.845   8.378
18191WAT     H154815   7.727   5.928   8.426
18191WAT     H254816   7.714   5.857   8.280
18192WAT      O54817   7.538   1.601   3.165
18192WAT     H154818   7.491   1.531   3.219
18192WAT     H254819   7.496   1.607   3.074
18193WAT      O54820   1.679   8.488   8.126
18193WAT     H154821   1.758   8.535   8.086
18193WAT     H254822   1.680   8.392   8.100
18194WAT      O54823   5.990   0.908   6.998
18194WAT     H154824   5.903   0.876   7.035
18194WAT     H254825   6.016   0.851   6.920
18195WAT      O54826   8.726   1.924   8.793
18195WAT     H154827   8.804   1.865   8.771
18195WAT     H254828   8.710   1.989   8.719
18196WAT      O54829   6.239   9.644   9.680
18196WAT     H154830   6.140   9.648   9.671
18196WAT     H254831   6.271   9.554   9.650
18197WAT      O54832   3.617   0.921   4.770
18197WAT     H154833   3.652   0.831   4.794
18197WAT     H254834   3.694   0.984   4.759
18198WAT      O54835   2.579   4.254   6.236
18198WAT     H154836   2.497   4.299   6.200
18198WAT     H254837   2.576   4.157   6.214
18199WAT      O54838   9.647   4.045   3.055
18199WAT     H154839   9.702   3.994   3.122
18199WAT     H254840   9.563   3.995   3.037
18200WAT      O54841   5.118   4.568   3.900
18200WAT     H154842   5.100   4.661   3.932
18200WAT     H254843   5.049   4.506   3.937
18201WAT      O54844   9.255   0.777   6.689
18201WAT     H154845   9.291   0.741   6.775
18201WAT     H254846   9.251   0.704   6.621
18202WAT      O54847   9.170   3.602   8.416
18202WAT     H154848   9.205   3.596   8.509
18202WAT     H254849   9.105   3.678   8.410
18203WAT      O54850   2.905   9.197   8.139
18203WAT     H154851   2.986   9.254   8.153
18203WAT     H254852   2.912   9.115   8.195
18204WAT      O54853   2.695   8.126   0.790
18204WAT     H154854   2.761   8.073   0.844
18204WAT     H254855   2.729   8.220   0.781
18205WAT      O54856   7.621   3.627   0.178
18205WAT     H154857   7.557   3.551   0.169
18205WAT     H254858   7.682   3.630   0.099
18206WAT      O54859   3.865   1.331   7.139
18206WAT     H154860   3.779   1.291   7.107
18206WAT     H254861   3.873   1.318   7.238
18207WAT      O54862   4.507   9.534   1.485
18207WAT     H154863   4.578   9.552   1.418
18207WAT     H254864   4.488   9.436   1.489
18208WAT      O54865   7.658   7.537   2.817
18208WAT     H154866   7.743   7.485   2.811
18208WAT     H254867   7.601   7.499   2.889
18209WAT      O54868   1.618   7.827   5.496
18209WAT     H154869   1.550   7.892   5.462
18209WAT     H254870   1.637   7.759   5.425
18210WAT      O54871   2.149   4.136   8.904
18210WAT     H154872   2.171   4.060   8.842
18210WAT     H254873   2.074   4.109   8.964
18211WAT      O54874   1.123   8.769   1.393
18211WAT     H154875   1.115   8.862   1.430
18211WAT     H254876   1.206   8.727   1.429
18212WAT      O54877   0.949   3.637   9.351
18212WAT     H154878   1.042   3.614   9.323
18212WAT     H254879   0.885   3.612   9.278
18213WAT      O54880   7.002   2.009   6.635
18213WAT     H154881   6.918   2.062   6.634
18213WAT     H254882   6.982   1.913   6.615
18214WAT      O54883   9.084   4.879   4.124
18214WAT     H154884   9.031   4.884   4.209
18214WAT     H254885   9.121   4.970   4.103
18215WAT      O54886   9.102   3.228   0.183
18215WAT     H154887   9.107   3.282   0.267
18215WAT     H254888   9.037   3.153   0.196
18216WAT      O54889   2.416   7.707   0.438
18216WAT     H154890   2.490   7.756   0.483
18216WAT     H254891   2.442   7.688   0.343
18217WAT      O54892   2.970   4.632   1.205
18217WAT     H154893   2.981   4.543   1.250
18217WAT     H254894   3.009   4.627   1.113
18218WAT      O54895   1.675   0.572   5.264
18218WAT     H154896   1.684   0.596   5.361
18218WAT     H254897   1.698   0.475   5.251
18219WAT      O54898   3.520   0.381   5.129
18219WAT     H154899   3.511   0.479   5.115
18219WAT     H254900   3.514   0.360   5.227
18220WAT      O54901   2.801   2.856   6.615
18220WAT     H154902   2.742   2.795   6.669
18220WAT     H254903   2.885   2.873   6.665
18221WAT      O54904   1.779   7.833   2.217
18221WAT     H154905   1.700   7.894   2.222
18221WAT     H254906   1.859   7.878   2.257
18222WAT      O54907   4.171   0.413   2.009
18222WAT     H154908   4.145   0.509   2.021
18222WAT     H254909   4.095   0.354   2.035
18223WAT      O54910   2.394   5.986   8.036
18223WAT     H154911   2.402   6.036   7.950
18223WAT     H254912   2.317   6.021   8.089
18224WAT      O54913   2.212   1.245   6.575
18224WAT     H154914   2.229   1.183   6.651
18224WAT     H254915   2.289   1.244   6.512
18225WAT      O54916   4.769   6.470   8.132
18225WAT     H154917   4.701   6.515   8.074
18225WAT     H254918   4.741   6.375   8.149
18226WAT      O54919   2.417   2.163   2.892
18226WAT     H154920   2.403   2.128   2.799
18226WAT     H254921   2.498   2.222   2.894
18227WAT      O54922   1.087   5.054   8.664
18227WAT     H154923   1.018   5.107   8.614
18227WAT     H254924   1.142   5.116   8.720
18228WAT      O54925   5.522   3.108   8.155
18228WAT     H154926   5.533   3.061   8.242
18228WAT     H254927   5.481   3.045   8.088
18229WAT      O54928   9.254   1.331   4.349
18229WAT     H154929   9.301   1.271   4.285
18229WAT     H254930   9.156   1.310   4.348
18230WAT      O54931   3.397   1.124   2.084
18230WAT     H154932   3.397   1.203   2.023
18230WAT     H254933   3.303   1.090   2.095
18231WAT      O54934   0.944   2.334   2.200
18231WAT     H154935   0.986   2.335   2.109
18231WAT     H254936   0.847   2.314   2.191
18232WAT      O54937   8.685   9.215   0.984
18232WAT     H154938   8.671   9.209   1.083
18232WAT     H254939   8.739   9.297   0.963
18233WAT      O54940   4.384   8.473   5.905
18233WAT     H154941   4.454   8.417   5.860
18233WAT     H254942   4.329   8.520   5.836
18234WAT      O54943   7.292   8.690   2.308
18234WAT     H154944   7.278   8.688   2.209
18234WAT     H254945   7.224   8.750   2.350
18235WAT      O54946   5.284   2.528   5.383
18235WAT     H154947   5.227   2.601   5.346
18235WAT     H254948   5.342   2.564   5.456
18236WAT      O54949   6.757   6.521   1.436
18236WAT     H154950   6.691   6.457   1.398
18236WAT     H254951   6.714   6.611   1.445
18237WAT      O54952   1.694   7.474   9.771
18237WAT     H154953   1.774   7.530   9.791
18237WAT     H254954   1.628   7.483   9.846
18238WAT      O54955   0.816   6.417   4.194
18238WAT     H154956   0.885   6.477   4.234
18238WAT     H254957   0.766   6.466   4.122
18239WAT      O54958   0.074   8.760   4.583
18239WAT     H154959   0.134   8.789   4.509
18239WAT     H254960   0.038   8.840   4.631
18240WAT      O54961   2.124   8.298   7.810
18240WAT     H154962   2.045   8.269   7.863
18240WAT     H254963   2.205   8.247   7.840
18241WAT      O54964   8.916   4.020   8.775
18241WAT     H154965   8.957   4.093   8.830
18241WAT     H254966   8.988   3.967   8.730
18242WAT      O54967   7.276   3.687   8.702
18242WAT     H154968   7.218   3.622   8.652
18242WAT     H254969   7.285   3.656   8.797
18243WAT      O54970   4.013   9.205   8.069
18243WAT     H154971   3.974   9.297   8.062
18243WAT     H254972   4.032   9.170   7.978
18244WAT      O54973   4.330   7.376   6.517
18244WAT     H154974   4.368   7.331   6.436
18244WAT     H254975   4.260   7.441   6.488
18245WAT      O54976   7.838   0.161   9.458
18245WAT     H154977   7.746   0.184   9.425
18245WAT     H254978   7.861   0.068   9.430
18246WAT      O54979   2.952   4.176   5.384
18246WAT     H154980   2.900   4.236   5.323
18246WAT     H254981   2.942   4.082   5.354
18247WAT      O54982   5.631   5.105   0.587
18247WAT     H154983   5.646   5.202   0.569
18247WAT     H254984   5.697   5.051   0.534
18248WAT      O54985   2.204   1.850   5.440
18248WAT     H154986   2.143   1.793   5.496
18248WAT     H254987   2.267   1.791   5.389
18249WAT      O54988   0.416   5.894   4.581
18249WAT     H154989   0.417   5.896   4.681
18249WAT     H254990   0.398   5.986   4.546
18250WAT      O54991   6.887   8.228   8.791
18250WAT     H154992   6.955   8.154   8.792
18250WAT     H254993   6.918   8.303   8.849
18251WAT      O54994   1.046   7.163   7.275
18251WAT     H154995   1.143   7.156   7.252
18251WAT     H254996   1.035   7.222   7.355
18252WAT      O54997   4.629   8.440   9.008
18252WAT     H154998   4.551   8.413   9.064
18252WAT     H254999   4.614   8.409   8.914
18253WAT      O55000   6.624   2.368   7.916
18253WAT     H155001   6.553   2.360   7.846
18253WAT     H255002   6.707   2.321   7.885
18254WAT      O55003   8.024   3.768   1.226
18254WAT     H155004   8.029   3.752   1.127
18254WAT     H255005   8.109   3.811   1.257
18255WAT      O55006   6.173   3.144   2.074
18255WAT     H155007   6.080   3.176   2.054
18255WAT     H255008   6.239   3.211   2.041
18256WAT      O55009   9.409   1.188   0.727
18256WAT     H155010   9.347   1.249   0.777
18256WAT     H255011   9.362   1.152   0.646
18257WAT      O55012   5.622   1.257   4.699
18257WAT     H155013   5.714   1.217   4.697
18257WAT     H255014   5.576   1.230   4.783
18258WAT      O55015   8.871   5.692   0.909
18258WAT     H155016   8.838   5.761   0.973
18258WAT     H255017   8.871   5.729   0.817
18259WAT      O55018   1.204   1.950   5.345
18259WAT     H155019   1.299   1.983   5.342
18259WAT     H255020   1.184   1.915   5.437
18260WAT      O55021   2.298   2.748   0.377
18260WAT     H155022   2.358   2.730   0.455
18260WAT     H255023   2.203   2.754   0.408
18261WAT      O55024   3.813   7.706   2.119
18261WAT     H155025   3.818   7.800   2.151
18261WAT     H255026   3.782   7.705   2.023
18262WAT      O55027   3.929   4.727   7.646
18262WAT     H155028   3.831   4.734   7.633
18262WAT     H255029   3.968   4.661   7.582
18263WAT      O55030   2.563   0.527   8.108
18263WAT     H155031   2.494   0.570   8.165
18263WAT     H255032   2.551   0.556   8.013
18264WAT      O55033   8.193   0.716   4.176
18264WAT     H155034   8.198   0.742   4.272
18264WAT     H255035   8.126   0.775   4.130
18265WAT      O55036   2.376   7.716   3.336
18265WAT     H155037   2.302   7.778   3.360
18265WAT     H255038   2.349   7.622   3.357
18266WAT      O55039   0.555   0.436   1.726
18266WAT     H155040   0.460   0.465   1.723
18266WAT     H255041   0.580   0.414   1.821
18267WAT      O55042   7.220   0.354   3.538
18267WAT     H155043   7.168   0.437   3.554
18267WAT     H255044   7.273   0.363   3.453
18268WAT      O55045   9.666   1.493   0.088
18268WAT     H155046   9.626   1.468   0.177
18268WAT     H255047   9.593   1.506   0.022
18269WAT      O55048   5.500   5.250   2.544
18269WAT     H155049   5.492   5.152   2.525
18269WAT     H255050   5.420   5.298   2.510
18270WAT      O55051   1.144   0.751   3.079
18270WAT     H155052   1.112   0.663   3.116
18270WAT     H255053   1.244   0.755   3.086
18271WAT      O55054   8.895   9.071   2.107
18271WAT     H155055   8.970   9.131   2.132
18271WAT     H255056   8.853   9.103   2.022
18272WAT      O55057   2.751   7.997   3.843
18272WAT     H155058   2.844   8.020   3.872
18272WAT     H255059   2.689   8.001   3.921
18273WAT      O55060   9.818   9.592   3.855
18273WAT     H155061   9.797   9.513   3.797
18273WAT     H255062   9.795   9.676   3.806
18274WAT      O55063   0.904   2.103   7.576
18274WAT     H155064   0.992   2.061   7.597
18274WAT     H255065   0.834   2.033   7.568
18275WAT      O55066   3.950   4.323   8.220
18275WAT     H155067   3.887   4.257   8.261
18275WAT     H255068   3.977   4.291   8.129
18276WAT      O55069   1.615   8.018   0.814
18276WAT     H155070   1.575   8.104   0.845
18276WAT     H255071   1.712   8.016   0.837
18277WAT      O55072   7.882   4.581   6.758
18277WAT     H155073   7.962   4.567   6.700
18277WAT     H255074   7.859   4.678   6.762
18278WAT      O55075   4.920   4.402   3.951
18278WAT     H155076   4.958   4.311   3.934
18278WAT     H255077   4.820   4.395   3.957
18279WAT      O55078   6.518   7.948   3.581
18279WAT     H155079   6.554   7.867   3.536
18279WAT     H255080   6.590   7.992   3.635
18280WAT      O55081   0.215   3.853   6.374
18280WAT     H155082   0.167   3.824   6.291
18280WAT     H255083   0.313   3.837   6.363
18281WAT      O55084   2.247   5.810   7.143
18281WAT     H155085   2.168   5.770   7.189
18281WAT     H255086   2.279   5.748   7.072
18282WAT      O55087   1.084   0.253   7.604
18282WAT     H155088   1.133   0.261   7.518
18282WAT     H255089   1.128   0.310   7.674
18283WAT      O55090   9.513   1.828   5.370
18283WAT     H155091   9.553   1.793   5.286
18283WAT     H255092   9.553   1.917   5.392
18284WAT      O55093   8.242   6.350   0.372
18284WAT     H155094   8.242   6.384   0.466
18284WAT     H255095   8.229   6.427   0.309
18285WAT      O55096   0.298   3.328   0.379
18285WAT     H155097   0.253   3.286   0.300
18285WAT     H255098   0.261   3.289   0.463
18286WAT      O55099   1.770   0.641   2.097
18286WAT     H155100   1.690   0.698   2.116
18286WAT     H255101   1.763   0.604   2.004
18287WAT      O55102   4.261   4.329   7.885
18287WAT     H155103   4.321   4.285   7.952
18287WAT     H255104   4.205   4.398   7.930
18288WAT      O55105   1.243   6.950   8.887
18288WAT     H155106   1.182   6.882   8.847
18288WAT     H255107   1.256   6.930   8.984
18289WAT      O55108   2.825   9.465   0.167
18289WAT     H155109   2.761   9.537   0.194
18289WAT     H255110   2.853   9.480   0.072
18290WAT      O55111   8.991   6.032   9.273
18290WAT     H155112   9.052   6.111   9.278
18290WAT     H255113   9.040   5.955   9.231
18291WAT      O55114   2.365   3.182   8.887
18291WAT     H155115   2.325   3.180   8.795
18291WAT     H255116   2.401   3.092   8.910
18292WAT      O55117   6.023   1.918   0.158
18292WAT     H155118   6.119   1.890   0.167
18292WAT     H255119   6.016   1.990   0.089
18293WAT      O55120   0.335   0.085   7.686
18293WAT     H155121   0.339  -0.010   7.655
18293WAT     H255122   0.414   0.135   7.651
18294WAT      O55123   4.201   0.328   6.224
18294WAT     H155124   4.190   0.426   6.241
18294WAT     H255125   4.295   0.301   6.246
18295WAT      O55126   7.317   0.972   2.676
18295WAT     H155127   7.232   0.921   2.665
18295WAT     H255128   7.374   0.959   2.595
18296WAT      O55129   1.508   4.704   0.030
18296WAT     H155130   1.586   4.700  -0.032
18296WAT     H255131   1.428   4.662  -0.014
18297WAT      O55132   1.001   1.130   8.033
18297WAT     H155133   0.979   1.227   8.021
18297WAT     H255134   0.919   1.076   8.016
18298WAT      O55135   6.828   3.199   5.790
18298WAT     H155136   6.827   3.237   5.882
18298WAT     H255137   6.834   3.099   5.795
18299WAT      O55138   8.810   2.305   4.033
18299WAT     H155139   8.829   2.302   3.935
18299WAT     H255140   8.741   2.236   4.056
18300WAT      O55141   7.942   1.551   5.172
18300WAT     H155142   7.903   1.465   5.139
18300WAT     H255143   8.033   1.564   5.132
18301WAT      O55144   9.118   3.555   5.393
18301WAT     H155145   9.088   3.463   5.420
18301WAT     H255146   9.039   3.611   5.370
18302WAT      O55147   5.298   1.913   5.142
18302WAT     H155148   5.276   2.010   5.154
18302WAT     H255149   5.376   1.890   5.201
18303WAT      O55150   3.390   5.871   1.116
18303WAT     H155151   3.426   5.963   1.128
18303WAT     H255152   3.466   5.807   1.102
18304WAT      O55153   5.634   5.394   4.977
18304WAT     H155154   5.638   5.295   4.987
18304WAT     H255155   5.539   5.424   4.975
18305WAT      O55156   7.062   1.910   4.999
18305WAT     H155157   7.038   1.858   5.081
18305WAT     H255158   7.076   2.006   5.024
18306WAT      O55159   7.559   3.238   7.784
18306WAT     H155160   7.552   3.181   7.866
18306WAT     H255161   7.589   3.182   7.707
18307WAT      O55162   2.929   0.760   6.878
18307WAT     H155163   2.932   0.749   6.779
18307WAT     H255164   2.973   0.846   6.904
18308WAT      O55165   4.340   7.005   2.532
18308WAT     H155166   4.416   6.997   2.467
18308WAT     H255167   4.344   7.094   2.577
18309WAT      O55168   3.995   2.471   6.480
18309WAT     H155169   4.001   2.526   6.564
18309WAT     H255170   3.995   2.374   6.505
18310WAT      O55171   4.026   9.571   7.124
18310WAT     H155172   4.019   9.483   7.170
18310WAT     H255173   3.953   9.579   7.056
18311WAT      O55174   5.703   9.256   8.567
18311WAT     H155175   5.723   9.314   8.646
18311WAT     H255176   5.772   9.184   8.561
18312WAT      O55177   5.357   5.616   3.388
18312WAT     H155178   5.390   5.549   3.321
18312WAT     H255179   5.295   5.571   3.452
18313WAT      O55180   1.039   2.433   0.747
18313WAT     H155181   1.112   2.386   0.698
18313WAT     H255182   1.044   2.531   0.726
18314WAT      O55183   5.847   7.779   2.331
18314WAT     H155184   5.891   7.713   2.270
18314WAT     H255185   5.910   7.855   2.349
18315WAT      O55186   0.524   9.473   1.953
18315WAT     H155187   0.561   9.388   1.916
18315WAT     H255188   0.525   9.543   1.883
18316WAT      O55189   9.684   1.182   1.307
18316WAT     H155190   9.595   1.202   1.348
18316WAT     H255191   9.742   1.135   1.374
18317WAT      O55192   3.114   1.652   7.077
18317WAT     H155193   3.060   1.574   7.045
18317WAT     H255194   3.158   1.697   6.999
18318WAT      O55195   5.087   8.361   2.438
18318WAT     H155196   5.010   8.305   2.469
18318WAT     H255197   5.173   8.315   2.462
18319WAT      O55198   1.460   2.501   1.936
18319WAT     H155199   1.528   2.455   1.992
18319WAT     H255200   1.380   2.523   1.992
18320WAT      O55201   4.416   4.718   1.802
18320WAT     H155202   4.388   4.770   1.721
18320WAT     H255203   4.367   4.753   1.882
18321WAT      O55204   3.660   2.410   6.178
18321WAT     H155205   3.615   2.446   6.097
18321WAT     H255206   3.756   2.389   6.157
18322WAT      O55207   9.414   4.538   2.635
18322WAT     H155208   9.477   4.608   2.602
18322WAT     H255209   9.445   4.448   2.605
18323WAT      O55210   4.908   0.056   2.070
18323WAT     H155211   4.890   0.109   2.153
18323WAT     H255212   4.848  -0.023   2.066
18324WAT      O55213   8.713   9.185   1.934
18324WAT     H155214   8.679   9.276   1.909
18324WAT     H255215   8.678   9.118   1.869
18325WAT      O55216   0.505   3.239   8.718
18325WAT     H155217   0.596   3.265   8.751
18325WAT     H255218   0.479   3.300   8.643
18326WAT      O55219   7.119   6.982   2.841
18326WAT     H155220   7.021   6.995   2.855
18326WAT     H255221   7.145   7.021   2.753
18327WAT      O55222   2.328   7.430   2.394
18327WAT     H155223   2.287   7.370   2.325
18327WAT     H255224   2.355   7.516   2.351
18328WAT      O55225   3.990   1.119   2.264
18328WAT     H155226   4.063   1.059   2.296
18328WAT     H255227   3.921   1.130   2.336
18329WAT      O55228   2.953   5.666   7.021
18329WAT     H155229   2.876   5.671   7.085
18329WAT     H255230   2.963   5.753   6.973
18330WAT      O55231   9.885   0.542   6.724
18330WAT     H155232   9.858   0.613   6.659
18330WAT     H255233   9.914   0.585   6.809
18331WAT      O55234   2.976   1.843   4.177
18331WAT     H155235   3.055   1.791   4.209
18331WAT     H255236   3.006   1.926   4.131
18332WAT      O55237   2.337   3.955   4.068
18332WAT     H155238   2.249   3.929   4.029
18332WAT     H255239   2.403   3.973   3.995
18333WAT      O55240   7.050   2.573   6.267
18333WAT     H155241   6.956   2.608   6.273
18333WAT     H255242   7.096   2.615   6.189
18334WAT      O55243   4.134   5.326   2.852
18334WAT     H155244   4.120   5.264   2.930
18334WAT     H255245   4.142   5.273   2.768
18335WAT      O55246   5.523   3.371   0.483
18335WAT     H155247   5.595   3.314   0.444
18335WAT     H255248   5.533   3.465   0.449
18336WAT      O55249   3.864   1.682   6.567
18336WAT     H155250   3.844   1.634   6.482
18336WAT     H255251   3.830   1.776   6.562
18337WAT      O55252   2.478   7.910   6.709
18337WAT     H155253   2.425   7.950   6.634
18337WAT     H255254   2.423   7.841   6.756
18338WAT      O55255   3.366   8.754   1.937
18338WAT     H155256   3.295   8.684   1.928
18338WAT     H255257   3.415   8.741   2.023
18339WAT      O55258   2.953   2.194   4.298
18339WAT     H155259   2.973   2.286   4.265
18339WAT     H255260   2.859   2.170   4.274
18340WAT      O55261   0.670   3.239   1.812
18340WAT     H155262   0.615   3.253   1.730
18340WAT     H255263   0.762   3.277   1.798
18341WAT      O55264   6.670   7.809   3.408
18341WAT     H155265   6.754   7.801   3.461
18341WAT     H255266   6.663   7.732   3.344
18342WAT      O55267   2.717   2.602   2.009
18342WAT     H155268   2.641   2.544   1.978
18342WAT     H255269   2.686   2.661   2.083
18343WAT      O55270   5.847   5.453   9.187
18343WAT     H155271   5.883   5.367   9.152
18343WAT     H255272   5.837   5.447   9.286
18344WAT      O55273   3.703   9.294   6.216
18344WAT     H155274   3.775   9.295   6.286
18344WAT     H255275   3.717   9.371   6.154
18345WAT      O55276   4.665   4.452   0.596
18345WAT     H155277   4.649   4.362   0.637
18345WAT     H255278   4.698   4.515   0.667
18346WAT      O55279   8.711   2.554   8.295
18346WAT     H155280   8.616   2.582   8.314
18346WAT     H255281   8.766   2.564   8.377
18347WAT      O55282   8.802   6.549   6.212
18347WAT     H155283   8.704   6.533   6.223
18347WAT     H255284   8.843   6.473   6.162
18348WAT      O55285   1.224   6.754   4.406
18348WAT     H155286   1.192   6.848   4.403
18348WAT     H255287   1.291   6.744   4.480
18349WAT      O55288   8.295   9.005   0.268
18349WAT     H155289   8.355   9.079   0.238
18349WAT     H255290   8.344   8.918   0.262
18350WAT      O55291   0.822   1.037   9.051
18350WAT     H155292   0.861   1.006   9.138
18350WAT     H255293   0.843   0.971   8.979
18351WAT      O55294   0.729   8.113   5.314
18351WAT     H155295   0.786   8.102   5.395
18351WAT     H255296   0.651   8.172   5.335
18352WAT      O55297   8.263   3.883   6.116
18352WAT     H155298   8.276   3.804   6.177
18352WAT     H255299   8.176   3.872   6.068
18353WAT      O55300   7.441   7.402   2.953
18353WAT     H155301   7.423   7.384   3.050
18353WAT     H255302   7.430   7.317   2.901
18354WAT      O55303   4.403   4.271   3.778
18354WAT     H155304   4.497   4.302   3.765
18354WAT     H255305   4.392   4.237   3.871
18355WAT      O55306   4.451   0.425   6.556
18355WAT     H155307   4.428   0.376   6.640
18355WAT     H255308   4.395   0.508   6.549
18356WAT      O55309   2.870   5.147   9.691
18356WAT     H155310   2.859   5.214   9.765
18356WAT     H255311   2.950   5.171   9.637
18357WAT      O55312   1.954   6.216   9.413
18357WAT     H155313   1.898   6.236   9.493
18357WAT     H255314   1.972   6.301   9.363
18358WAT      O55315   4.199   1.258   3.736
18358WAT     H155316   4.280   1.299   3.777
18358WAT     H255317   4.223   1.167   3.700
18359WAT      O55318   0.667   3.370   2.759
18359WAT     H155319   0.674   3.301   2.687
18359WAT     H255320   0.724   3.448   2.735
18360WAT      O55321   3.216   2.622   3.646
18360WAT     H155322   3.195   2.530   3.612
18360WAT     H255323   3.228   2.685   3.569
18361WAT      O55324   4.474   8.742   0.457
18361WAT     H155325   4.543   8.771   0.523
18361WAT     H255326   4.388   8.788   0.476
18362WAT      O55327   7.513   5.658   7.995
18362WAT     H155328   7.444   5.717   7.953
18362WAT     H255329   7.479   5.564   7.999
18363WAT      O55330   5.422   3.749   3.610
18363WAT     H155331   5.432   3.822   3.678
18363WAT     H255332   5.372   3.783   3.530
18364WAT      O55333   0.337   0.960   1.195
18364WAT     H155334   0.347   0.915   1.106
18364WAT     H255335   0.371   0.900   1.267
18365WAT      O55336   3.985   1.385   0.919
18365WAT     H155337   3.944   1.425   1.001
18365WAT     H255338   4.013   1.291   0.938
18366WAT      O55339   6.906   5.854   1.167
18366WAT     H155340   6.949   5.795   1.098
18366WAT     H255341   6.829   5.903   1.126
18367WAT      O55342   0.464   5.736   9.126
18367WAT     H155343   0.487   5.756   9.031
18367WAT     H255344   0.546   5.707   9.175
18368WAT      O55345   9.194   6.585   5.486
18368WAT     H155346   9.259   6.519   5.523
18368WAT     H255347   9.109   6.581   5.538
18369WAT      O55348   3.438   5.873   6.323
18369WAT     H155349   3.391   5.961   6.327
18369WAT     H255350   3.533   5.885   6.352
18370WAT      O55351   4.114   9.710   3.816
18370WAT     H155352   4.174   9.761   3.754
18370WAT     H255353   4.127   9.612   3.800
18371WAT      O55354   7.014   1.845   0.203
18371WAT     H155355   7.073   1.797   0.268
18371WAT     H255356   7.070   1.888   0.133
18372WAT      O55357   1.972   6.341   3.034
18372WAT     H155358   1.939   6.385   3.118
18372WAT     H255359   2.056   6.291   3.054
18373WAT      O55360   4.390   9.277   9.790
18373WAT     H155361   4.479   9.323   9.791
18373WAT     H255362   4.399   9.185   9.827
18374WAT      O55363   1.409   6.414   2.885
18374WAT     H155364   1.496   6.383   2.924
18374WAT     H255365   1.333   6.370   2.932
18375WAT      O55366   1.100   7.413   1.145
18375WAT     H155367   1.113   7.372   1.054
18375WAT     H255368   1.132   7.508   1.143
18376WAT      O55369   5.024   8.234   4.520
18376WAT     H155370   4.945   8.268   4.571
18376WAT     H255371   5.000   8.225   4.423
18377WAT      O55372   2.811   1.335   2.747
18377WAT     H155373   2.796   1.358   2.651
18377WAT     H255374   2.797   1.416   2.803
18378WAT      O55375   2.359   3.000   3.598
18378WAT     H155376   2.405   3.008   3.687
18378WAT     H255377   2.413   3.050   3.529
18379WAT      O55378   1.984   0.396   7.748
18379WAT     H155379   2.039   0.397   7.665
18379WAT     H255380   1.893   0.358   7.727
18380WAT      O55381   8.006   0.134   6.673
18380WAT     H155382   8.037   0.194   6.600
18380WAT     H255383   8.024   0.177   6.761
18381WAT      O55384   3.335   0.295   8.649
18381WAT     H155385   3.338   0.199   8.675
18381WAT     H255386   3.328   0.352   8.731
18382WAT      O55387   8.317   4.140   8.646
18382WAT     H155388   8.368   4.209   8.698
18382WAT     H255389   8.279   4.072   8.709
18383WAT      O55390   1.939   8.833   5.076
18383WAT     H155391   1.912   8.895   5.002
18383WAT     H255392   1.991   8.756   5.039
18384WAT      O55393   8.399   4.330   3.314
18384WAT     H155394   8.317   4.308   3.261
18384WAT     H255395   8.471   4.263   3.294
18385WAT      O55396   4.272   3.085   8.464
18385WAT     H155397   4.314   3.000   8.433
18385WAT     H255398   4.172   3.076   8.460
18386WAT      O55399   8.595   0.177   1.329
18386WAT     H155400   8.551   0.192   1.240
18386WAT     H255401   8.659   0.251   1.348
18387WAT      O55402   1.438   8.358   8.777
18387WAT     H155403   1.391   8.312   8.702
18387WAT     H255404   1.374   8.416   8.826
18388WAT      O55405   8.635   8.321   6.445
18388WAT     H155406   8.730   8.348   6.430
18388WAT     H255407   8.602   8.272   6.364
18389WAT      O55408   3.922   4.488   8.741
18389WAT     H155409   3.947   4.429   8.664
18389WAT     H255410   3.853   4.554   8.711
18390WAT      O55411   4.394   0.426   5.769
18390WAT     H155412   4.436   0.344   5.809
18390WAT     H255413   4.402   0.502   5.834
18391WAT      O55414   6.627   4.189   4.509
18391WAT     H155415   6.554   4.142   4.458
18391WAT     H255416   6.704   4.206   4.448
18392WAT      O55417   0.193   4.155   5.437
18392WAT     H155418   0.199   4.128   5.341
18392WAT     H255419   0.229   4.247   5.449
18393WAT      O55420   1.214   8.327   6.325
18393WAT     H155421   1.173   8.359   6.240
18393WAT     H255422   1.173   8.239   6.351
18394WAT      O55423   3.959   1.623   0.349
18394WAT     H155424   3.872   1.580   0.372
18394WAT     H255425   4.014   1.634   0.432
18395WAT      O55426   1.779   9.320   7.103
18395WAT     H155427   1.758   9.409   7.144
18395WAT     H255428   1.694   9.266   7.096
18396WAT      O55429   8.284   7.512   8.918
18396WAT     H155430   8.324   7.604   8.915
18396WAT     H255431   8.278   7.482   9.014
18397WAT      O55432   1.366   9.350   6.786
18397WAT     H155433   1.347   9.369   6.882
18397WAT     H255434   1.418   9.425   6.746
18398WAT      O55435   8.862   6.665   9.400
18398WAT     H155436   8.902   6.643   9.489
18398WAT     H255437   8.897   6.753   9.368
18399WAT      O55438   0.021   4.198   4.601
18399WAT     H155439   0.046   4.241   4.515
18399WAT     H255440   0.055   4.253   4.678
18400WAT      O55441   3.438   0.867   9.240
18400WAT     H155442   3.476   0.951   9.199
18400WAT     H255443   3.513   0.806   9.265
18401WAT      O55444   3.040   6.877   9.858
18401WAT     H155445   2.984   6.960   9.851
18401WAT     H255446   3.087   6.876   9.946
18402WAT      O55447   9.183   6.870   4.266
18402WAT     H155448   9.122   6.826   4.201
18402WAT     H255449   9.237   6.801   4.315
18403WAT      O55450   3.761   6.306   7.757
18403WAT     H155451   3.829   6.260   7.700
18403WAT     H255452   3.785   6.402   7.768
18404WAT      O55453   0.091   1.135   7.681
18404WAT     H155454   0.025   1.079   7.631
18404WAT     H255455   0.049   1.222   7.706
18405WAT      O55456   6.623   6.220   0.410
18405WAT     H155457   6.721   6.238   0.406
18405WAT     H255458   6.583   6.267   0.488
18406WAT      O55459   3.253   5.185   0.373
18406WAT     H155460   3.180   5.124   0.403
18406WAT     H255461   3.327   5.184   0.440
18407WAT      O55462   3.939   4.405   0.528
18407WAT     H155463   3.932   4.420   0.626
18407WAT     H255464   3.864   4.347   0.498
18408WAT      O55465   7.463   3.507   7.863
18408WAT     H155466   7.542   3.546   7.911
18408WAT     H255467   7.490   3.421   7.820
18409WAT      O55468   0.603   8.574   4.140
18409WAT     H155469   0.627   8.588   4.236
18409WAT     H255470   0.512   8.612   4.122
18410WAT      O55471   8.593   4.470   4.551
18410WAT     H155472   8.690   4.447   4.554
18410WAT     H255473   8.582   4.569   4.562
18411WAT      O55474   1.618   2.054   9.112
18411WAT     H155475   1.686   2.128   9.115
18411WAT     H255476   1.620   2.011   9.022
18412WAT      O55477   0.515   5.278   5.787
18412WAT     H155478   0.525   5.341   5.710
18412WAT     H255479   0.430   5.299   5.836
18413WAT      O55480   9.572   9.262   3.484
18413WAT     H155481   9.634   9.297   3.553
18413WAT     H255482   9.551   9.334   3.418
18414WAT      O55483   7.138   5.297   0.239
18414WAT     H155484   7.205   5.231   0.272
18414WAT     H255485   7.097   5.264   0.154
18415WAT      O55486   7.885   3.837   0.442
18415WAT     H155487   7.864   3.740   0.431
18415WAT     H255488   7.814   3.891   0.397
18416WAT      O55489   3.569   2.338   2.114
18416WAT     H155490   3.574   2.283   2.197
18416WAT     H255491   3.485   2.393   2.115
18417WAT      O55492   5.503   2.213   1.451
18417WAT     H155493   5.576   2.176   1.509
18417WAT     H255494   5.472   2.300   1.489
18418WAT      O55495   8.626   9.261   7.185
18418WAT     H155496   8.554   9.317   7.144
18418WAT     H255497   8.606   9.164   7.171
18419WAT      O55498   5.150   1.898   1.263
18419WAT     H155499   5.080   1.856   1.205
18419WAT     H255500   5.146   1.998   1.253
18420WAT      O55501   7.694   2.118   4.844
18420WAT     H155502   7.689   2.120   4.744
18420WAT     H255503   7.780   2.075   4.872
18421WAT      O55504   3.834   3.860   1.666
18421WAT     H155505   3.783   3.774   1.656
18421WAT     H255506   3.932   3.841   1.653
18422WAT      O55507   9.597   8.524   3.840
18422WAT     H155508   9.640   8.532   3.750
18422WAT     H255509   9.652   8.465   3.899
18423WAT      O55510   6.784   5.665   3.368
18423WAT     H155511   6.852   5.665   3.441
18423WAT     H255512   6.830   5.673   3.279
18424WAT      O55513   7.073   6.544   6.797
18424WAT     H155514   7.114   6.597   6.723
18424WAT     H255515   7.145   6.516   6.861
18425WAT      O55516   5.389   6.717   7.181
18425WAT     H155517   5.367   6.803   7.227
18425WAT     H255518   5.417   6.735   7.087
18426WAT      O55519   6.266   2.303   6.559
18426WAT     H155520   6.250   2.401   6.545
18426WAT     H255521   6.361   2.281   6.535
18427WAT      O55522   3.684   4.186   8.987
18427WAT     H155523   3.775   4.180   8.946
18427WAT     H255524   3.645   4.276   8.969
18428WAT      O55525   1.581   9.109   4.123
18428WAT     H155526   1.625   9.158   4.198
18428WAT     H255527   1.577   9.012   4.145
18429WAT      O55528   1.268   5.948   9.834
18429WAT     H155529   1.298   6.033   9.790
18429WAT     H255530   1.253   5.965   9.932
18430WAT      O55531   2.762   8.132   8.794
18430WAT     H155532   2.784   8.037   8.817
18430WAT     H255533   2.715   8.174   8.871
18431WAT      O55534   6.114   1.514   5.466
18431WAT     H155535   6.196   1.518   5.409
18431WAT     H255536   6.064   1.601   5.461
18432WAT      O55537   6.175   8.688   9.236
18432WAT     H155538   6.187   8.648   9.145
18432WAT     H255539   6.084   8.728   9.243
18433WAT      O55540   9.050   3.391   7.367
18433WAT     H155541   8.991   3.310   7.359
18433WAT     H255542   8.994   3.473   7.372
18434WAT      O55543   3.171   1.473   2.081
18434WAT     H155544   3.151   1.416   2.161
18434WAT     H255545   3.237   1.426   2.023
18435WAT      O55546   3.026   2.252   6.972
18435WAT     H155547   2.957   2.185   7.000
18435WAT     H255548   3.079   2.215   6.896
18436WAT      O55549   9.190   1.296   7.766
18436WAT     H155550   9.176   1.197   7.767
18436WAT     H255551   9.207   1.328   7.859
18437WAT      O55552   0.704   3.165   0.230
18437WAT     H155553   0.676   3.260   0.220
18437WAT     H255554   0.756   3.137   0.149
18438WAT      O55555   4.479   3.552   5.718
18438WAT     H155556   4.403   3.516   5.663
18438WAT     H255557   4.564   3.513   5.685
18439WAT      O55558   3.996   5.668   8.160
18439WAT     H155559   3.981   5.592   8.097
18439WAT     H255560   3.942   5.654   8.243
18440WAT      O55561   2.843   3.463   4.519
18440WAT     H155562   2.937   3.428   4.517
18440WAT     H255563   2.818   3.496   4.428
18441WAT      O55564   5.105   6.245   3.525
18441WAT     H155565   5.041   6.226   3.599
18441WAT     H255566   5.197   6.256   3.564
18442WAT      O55567   2.421   0.427   7.711
18442WAT     H155568   2.331   0.451   7.673
18442WAT     H255569   2.420   0.332   7.741
18443WAT      O55570   5.738   8.425   2.356
18443WAT     H155571   5.655   8.376   2.329
18443WAT     H255572   5.715   8.518   2.382
18444WAT      O55573   5.647   6.777   0.954
18444WAT     H155574   5.654   6.712   1.030
18444WAT     H255575   5.681   6.735   0.870
18445WAT      O55576   7.900   4.085   9.354
18445WAT     H155577   7.873   4.166   9.302
18445WAT     H255578   7.854   4.004   9.317
18446WAT      O55579   4.010   9.169   3.259
18446WAT     H155580   3.983   9.265   3.250
18446WAT     H255581   4.030   9.132   3.169
18447WAT      O55582   6.596   7.343   9.582
18447WAT     H155583   6.549   7.398   9.650
18447WAT     H255584   6.686   7.382   9.562
18448WAT      O55585   1.879   0.825   9.501
18448WAT     H155586   1.881   0.851   9.597
18448WAT     H255587   1.968   0.843   9.460
18449WAT      O55588   9.781   0.759   0.717
18449WAT     H155589   9.739   0.824   0.780
18449WAT     H255590   9.767   0.790   0.623
18450WAT      O55591   2.873   6.826   5.885
18450WAT     H155592   2.826   6.887   5.821
18450WAT     H255593   2.806   6.767   5.929
18451WAT      O55594   0.725   0.657   9.492
18451WAT     H155595   0.721   0.700   9.582
18451WAT     H255596   0.791   0.706   9.435
18452WAT      O55597   7.397   1.088   5.710
18452WAT     H155598   7.465   1.028   5.667
18452WAT     H255599   7.332   1.032   5.762
18453WAT      O55600   6.775   5.439   5.895
18453WAT     H155601   6.785   5.391   5.807
18453WAT     H255602   6.708   5.391   5.952
18454WAT      O55603   0.925   7.003   3.409
18454WAT     H155604   1.004   7.060   3.390
18454WAT     H255605   0.954   6.907   3.419
18455WAT      O55606   2.896   9.370   4.376
18455WAT     H155607   2.871   9.459   4.413
18455WAT     H255608   2.992   9.372   4.346
18456WAT      O55609   2.299   7.382   3.710
18456WAT     H155610   2.332   7.288   3.703
18456WAT     H255611   2.306   7.413   3.804
18457WAT      O55612   0.049   4.065   1.890
18457WAT     H155613  -0.024   4.012   1.932
18457WAT     H255614   0.017   4.158   1.871
18458WAT      O55615   8.214   1.779   8.083
18458WAT     H155616   8.153   1.725   8.141
18458WAT     H255617   8.182   1.874   8.080
18459WAT      O55618   1.650   1.461   0.761
18459WAT     H155619   1.721   1.435   0.696
18459WAT     H255620   1.604   1.378   0.795
18460WAT      O55621   0.956   3.480   1.138
18460WAT     H155622   0.989   3.392   1.104
18460WAT     H255623   0.888   3.466   1.209
18461WAT      O55624   0.574   7.500   4.247
18461WAT     H155625   0.518   7.424   4.214
18461WAT     H255626   0.566   7.507   4.346
18462WAT      O55627   3.957   1.639   9.796
18462WAT     H155628   3.980   1.584   9.715
18462WAT     H255629   3.899   1.716   9.769
18463WAT      O55630   4.170   3.801   5.914
18463WAT     H155631   4.262   3.774   5.941
18463WAT     H255632   4.103   3.745   5.962
18464WAT      O55633   0.708   6.692   0.070
18464WAT     H155634   0.743   6.774   0.117
18464WAT     H255635   0.687   6.715  -0.025
18465WAT      O55636   4.749   7.356   7.299
18465WAT     H155637   4.772   7.428   7.364
18465WAT     H255638   4.797   7.272   7.323
18466WAT      O55639   6.384   8.154   1.686
18466WAT     H155640   6.443   8.222   1.729
18466WAT     H255641   6.338   8.194   1.607
18467WAT      O55642   6.414   6.417   0.324
18467WAT     H155643   6.379   6.493   0.269
18467WAT     H255644   6.511   6.403   0.304
18468WAT      O55645   3.862   8.221   2.636
18468WAT     H155646   3.874   8.141   2.577
18468WAT     H255647   3.880   8.304   2.584
18469WAT      O55648   0.249   6.923   9.319
18469WAT     H155649   0.227   6.834   9.278
18469WAT     H255650   0.300   6.909   9.404
18470WAT      O55651   4.795   8.347   5.687
18470WAT     H155652   4.772   8.442   5.666
18470WAT     H255653   4.863   8.345   5.761
18471WAT      O55654   9.363   5.975   9.767
18471WAT     H155655   9.281   6.033   9.762
18471WAT     H255656   9.385   5.941   9.675
18472WAT      O55657   2.495   1.063   2.341
18472WAT     H155658   2.546   1.047   2.426
18472WAT     H255659   2.517   0.991   2.275
18473WAT      O55660   6.837   9.258   8.447
18473WAT     H155661   6.934   9.251   8.470
18473WAT     H255662   6.826   9.313   8.364
18474WAT      O55663   4.992   7.232   0.554
18474WAT     H155664   5.001   7.302   0.482
18474WAT     H255665   4.966   7.145   0.512
18475WAT      O55666   8.943   1.971   1.747
18475WAT     H155667   9.016   2.035   1.773
18475WAT     H255668   8.974   1.914   1.672
18476WAT      O55669   1.040   3.529   5.509
18476WAT     H155670   1.102   3.578   5.448
18476WAT     H255671   1.003   3.449   5.462
18477WAT      O55672   0.534   3.491   3.674
18477WAT     H155673   0.633   3.481   3.682
18477WAT     H255674   0.489   3.437   3.746
18478WAT      O55675   7.672   7.855   9.808
18478WAT     H155676   7.727   7.818   9.884
18478WAT     H255677   7.723   7.846   9.723
18479WAT      O55678   6.248   7.432   3.368
18479WAT     H155679   6.270   7.433   3.271
18479WAT     H255680   6.261   7.341   3.405
18480WAT      O55681   9.559   8.541   0.526
18480WAT     H155682   9.631   8.484   0.564
18480WAT     H255683   9.488   8.484   0.486
18481WAT      O55684   7.176   5.095   9.820
18481WAT     H155685   7.147   5.191   9.822
18481WAT     H255686   7.115   5.041   9.878
18482WAT      O55687   3.397   2.475   7.464
18482WAT     H155688   3.356   2.480   7.555
18482WAT     H255689   3.404   2.380   7.435
18483WAT      O55690   5.795   7.646   0.313
18483WAT     H155691   5.845   7.664   0.398
18483WAT     H255692   5.715   7.589   0.332
18484WAT      O55693   3.395   5.869   0.180
18484WAT     H155694   3.362   5.963   0.186
18484WAT     H255695   3.432   5.840   0.268
18485WAT      O55696   2.439   9.608   5.878
18485WAT     H155697   2.478   9.678   5.938
18485WAT     H255698   2.488   9.522   5.891
18486WAT      O55699   2.788   9.053   1.922
18486WAT     H155700   2.815   9.142   1.886
18486WAT     H255701   2.843   9.032   2.004
18487WAT      O55702   1.106   7.660   5.063
18487WAT     H155703   1.035   7.596   5.092
18487WAT     H255704   1.196   7.620   5.080
18488WAT      O55705   1.764   7.057   3.388
18488WAT     H155706   1.795   7.010   3.471
18488WAT     H255707   1.766   7.156   3.404
18489WAT      O55708   4.015   1.785   6.303
18489WAT     H155709   4.075   1.860   6.330
18489WAT     H255710   3.925   1.821   6.278
18490WAT      O55711   2.193   3.328   5.649
18490WAT     H155712   2.228   3.359   5.738
18490WAT     H255713   2.094   3.316   5.654
18491WAT      O55714   0.949   4.324   8.742
18491WAT     H155715   0.967   4.353   8.836
18491WAT     H255716   1.013   4.253   8.715
18492WAT      O55717   0.995   1.181   1.310
18492WAT     H155718   1.051   1.107   1.272
18492WAT     H255719   1.050   1.236   1.372
18493WAT      O55720   8.367   1.191   0.775
18493WAT     H155721   8.268   1.199   0.789
18493WAT     H255722   8.388   1.208   0.679
18494WAT      O55723   5.893   8.745   1.101
18494WAT     H155724   5.901   8.649   1.075
18494WAT     H255725   5.863   8.799   1.022
18495WAT      O55726   0.458   8.865   5.620
18495WAT     H155727   0.405   8.909   5.547
18495WAT     H255728   0.442   8.912   5.706
18496WAT      O55729   1.575   1.783   0.934
18496WAT     H155730   1.586   1.882   0.944
18496WAT     H255731   1.495   1.763   0.879
18497WAT      O55732   1.119   4.968   3.235
18497WAT     H155733   1.038   4.913   3.216
18497WAT     H255734   1.122   4.990   3.333
18498WAT      O55735   0.678   0.682   3.025
18498WAT     H155736   0.688   0.586   2.997
18498WAT     H255737   0.630   0.733   2.953
18499WAT      O55738   0.834   9.347   3.485
18499WAT     H155739   0.918   9.369   3.535
18499WAT     H255740   0.833   9.250   3.462
18500WAT      O55741   7.080   8.111   3.904
18500WAT     H155742   6.983   8.092   3.886
18500WAT     H255743   7.105   8.199   3.863
18501WAT      O55744   9.639   2.391   9.044
18501WAT     H155745   9.560   2.441   9.010
18501WAT     H255746   9.634   2.295   9.014
18502WAT      O55747   2.220   8.494   4.707
18502WAT     H155748   2.166   8.418   4.672
18502WAT     H255749   2.249   8.552   4.631
18503WAT      O55750   5.016   5.303   2.691
18503WAT     H155751   5.016   5.207   2.661
18503WAT     H255752   5.109   5.330   2.713
18504WAT      O55753   4.676   5.984   8.914
18504WAT     H155754   4.704   6.065   8.862
18504WAT     H255755   4.756   5.937   8.950
18505WAT      O55756   2.242   8.629   6.787
18505WAT     H155757   2.295   8.672   6.859
18505WAT     H255758   2.153   8.601   6.822
18506WAT      O55759   7.525   3.682   2.999
18506WAT     H155760   7.466   3.601   3.001
18506WAT     H255761   7.614   3.659   2.961
18507WAT      O55762   6.586   5.925   8.441
18507WAT     H155763   6.517   5.867   8.485
18507WAT     H255764   6.665   5.934   8.502
18508WAT      O55765   4.109   0.187   6.716
18508WAT     H155766   4.068   0.161   6.804
18508WAT     H255767   4.074   0.127   6.644
18509WAT      O55768   4.521   1.422   3.464
18509WAT     H155769   4.471   1.474   3.534
18509WAT     H255770   4.498   1.325   3.472
18510WAT      O55771   3.822   8.044   6.730
18510WAT     H155772   3.828   8.001   6.820
18510WAT     H255773   3.738   8.097   6.724
18511WAT      O55774   2.940   6.344   9.843
18511WAT     H155775   2.942   6.444   9.843
18511WAT     H255776   2.848   6.313   9.820
18512WAT      O55777   0.563   9.047   7.504
18512WAT     H155778   0.515   9.126   7.542
18512WAT     H255779   0.553   9.046   7.405
18513WAT      O55780   6.802   3.924   4.885
18513WAT     H155781   6.872   3.853   4.897
18513WAT     H255782   6.711   3.882   4.892
18514WAT      O55783   0.736   2.177   7.778
18514WAT     H155784   0.807   2.166   7.709
18514WAT     H255785   0.652   2.134   7.745
18515WAT      O55786   1.724   6.989   9.868
18515WAT     H155787   1.657   6.942   9.926
18515WAT     H255788   1.786   7.043   9.926
18516WAT      O55789   7.809   0.650   3.659
18516WAT     H155790   7.855   0.738   3.644
18516WAT     H255791   7.723   0.648   3.608
18517WAT      O55792   9.278   5.704   7.526
18517WAT     H155793   9.260   5.675   7.432
18517WAT     H255794   9.335   5.635   7.571
18518WAT      O55795   9.826   5.517   4.953
18518WAT     H155796   9.749   5.569   4.991
18518WAT     H255797   9.798   5.422   4.939
18519WAT      O55798   3.520   5.010   7.409
18519WAT     H155799   3.468   4.927   7.427
18519WAT     H255800   3.614   4.986   7.385
18520WAT      O55801   1.817   6.665   1.188
18520WAT     H155802   1.824   6.701   1.094
18520WAT     H255803   1.722   6.644   1.208
18521WAT      O55804   9.463   9.672   7.843
18521WAT     H155805   9.410   9.716   7.771
18521WAT     H255806   9.411   9.596   7.881
18522WAT      O55807   3.422   1.327   9.489
18522WAT     H155808   3.410   1.397   9.559
18522WAT     H255809   3.485   1.257   9.522
18523WAT      O55810   1.043   7.816   8.788
18523WAT     H155811   0.952   7.777   8.795
18523WAT     H255812   1.037   7.916   8.787
18524WAT      O55813   1.210   5.646   7.483
18524WAT     H155814   1.173   5.663   7.391
18524WAT     H255815   1.274   5.719   7.506
18525WAT      O55816   4.996   3.987   3.496
18525WAT     H155817   4.969   3.915   3.432
18525WAT     H255818   5.083   4.027   3.467
18526WAT      O55819   1.332   2.472   4.859
18526WAT     H155820   1.374   2.553   4.902
18526WAT     H255821   1.402   2.421   4.809
18527WAT      O55822   4.735   2.129   8.998
18527WAT     H155823   4.641   2.103   9.020
18527WAT     H255824   4.748   2.226   9.017
18528WAT      O55825   6.000   2.118   3.359
18528WAT     H155826   6.059   2.038   3.365
18528WAT     H255827   6.048   2.191   3.309
18529WAT      O55828   9.376   0.126   1.662
18529WAT     H155829   9.300   0.177   1.623
18529WAT     H255830   9.458   0.183   1.662
18530WAT      O55831   0.844   7.438   1.192
18530WAT     H155832   0.809   7.528   1.167
18530WAT     H255833   0.942   7.434   1.173
18531WAT      O55834   0.995   1.225   8.554
18531WAT     H155835   0.913   1.201   8.502
18531WAT     H255836   1.074   1.224   8.492
18532WAT      O55837   4.220   8.532   1.521
18532WAT     H155838   4.260   8.467   1.456
18532WAT     H255839   4.292   8.589   1.560
18533WAT      O55840   1.667   1.065   0.611
18533WAT     H155841   1.599   1.094   0.543
18533WAT     H255842   1.637   1.092   0.702
18534WAT      O55843   0.238   2.744   1.468
18534WAT     H155844   0.291   2.793   1.399
18534WAT     H255845   0.173   2.807   1.511
18535WAT      O55846   4.184   8.701   8.219
18535WAT     H155847   4.162   8.604   8.219
18535WAT     H255848   4.177   8.738   8.127
18536WAT      O55849   4.272   4.804   2.652
18536WAT     H155850   4.256   4.781   2.556
18536WAT     H255851   4.186   4.828   2.696
18537WAT      O55852   5.573   9.326   6.207
18537WAT     H155853   5.535   9.410   6.244
18537WAT     H255854   5.632   9.283   6.275
18538WAT      O55855   1.577   2.498   0.307
18538WAT     H155856   1.652   2.520   0.245
18538WAT     H255857   1.498   2.466   0.255
18539WAT      O55858   2.154   8.028   8.712
18539WAT     H155859   2.087   8.032   8.786
18539WAT     H255860   2.167   7.934   8.683
18540WAT      O55861   0.772   0.454   0.796
18540WAT     H155862   0.757   0.366   0.840
18540WAT     H255863   0.851   0.448   0.734
18541WAT      O55864   7.008   1.786   1.750
18541WAT     H155865   6.975   1.734   1.829
18541WAT     H255866   7.046   1.873   1.781
18542WAT      O55867   7.383   6.898   0.903
18542WAT     H155868   7.404   6.967   0.834
18542WAT     H255869   7.330   6.939   0.977
18543WAT      O55870   8.967   1.330   6.720
18543WAT     H155871   8.970   1.426   6.693
18543WAT     H255872   9.051   1.285   6.692
18544WAT      O55873   0.837   9.787   7.680
18544WAT     H155874   0.924   9.826   7.712
18544WAT     H255875   0.764   9.811   7.744
18545WAT      O55876   4.779   4.816   3.066
18545WAT     H155877   4.864   4.796   3.114
18545WAT     H255878   4.785   4.783   2.972
18546WAT      O55879   7.171   9.311   1.874
18546WAT     H155880   7.178   9.211   1.876
18546WAT     H255881   7.251   9.349   1.829
18547WAT      O55882   9.885   2.755   3.299
18547WAT     H155883   9.933   2.821   3.241
18547WAT     H255884   9.787   2.757   3.279
18548WAT      O55885   8.948   2.554   5.215
18548WAT     H155886   8.892   2.622   5.262
18548WAT     H255887   8.929   2.463   5.253
18549WAT      O55888   1.129   3.999   2.562
18549WAT     H155889   1.167   3.992   2.469
18549WAT     H255890   1.148   4.091   2.598
18550WAT      O55891   4.214   7.390   7.603
18550WAT     H155892   4.156   7.410   7.524
18550WAT     H255893   4.273   7.468   7.622
18551WAT      O55894   7.158   6.134   4.497
18551WAT     H155895   7.127   6.039   4.498
18551WAT     H255896   7.216   6.152   4.576
18552WAT      O55897   8.539   4.814   1.218
18552WAT     H155898   8.607   4.889   1.219
18552WAT     H255899   8.576   4.737   1.166
18553WAT      O55900   3.638   8.582   1.594
18553WAT     H155901   3.689   8.520   1.534
18553WAT     H255902   3.699   8.654   1.627
18554WAT      O55903   9.555   0.011   7.053
18554WAT     H155904   9.563   0.064   7.136
18554WAT     H255905   9.623   0.040   6.986
18555WAT      O55906   3.073   8.987   9.231
18555WAT     H155907   2.984   8.971   9.274
18555WAT     H255908   3.119   9.064   9.276
18556WAT      O55909   8.331   7.172   8.388
18556WAT     H155910   8.418   7.189   8.435
18556WAT     H255911   8.310   7.250   8.328
18557WAT      O55912   5.148   5.220   6.182
18557WAT     H155913   5.152   5.260   6.274
18557WAT     H255914   5.240   5.207   6.147
18558WAT      O55915   4.035   8.229   9.508
18558WAT     H155916   4.090   8.154   9.471
18558WAT     H255917   3.948   8.192   9.543
18559WAT      O55918   6.995   2.148   5.125
18559WAT     H155919   6.986   2.181   5.219
18559WAT     H255920   6.905   2.132   5.087
18560WAT      O55921   7.991   5.487   6.576
18560WAT     H155922   8.049   5.515   6.653
18560WAT     H255923   8.048   5.452   6.502
18561WAT      O55924   9.356   4.210   9.490
18561WAT     H155925   9.386   4.302   9.514
18561WAT     H255926   9.256   4.206   9.490
18562WAT      O55927   5.452   1.880   0.262
18562WAT     H155928   5.488   1.834   0.180
18562WAT     H255929   5.508   1.856   0.341
18563WAT      O55930   9.196   3.008   3.599
18563WAT     H155931   9.120   2.952   3.567
18563WAT     H255932   9.182   3.103   3.571
18564WAT      O55933   6.017   5.039   0.225
18564WAT     H155934   5.958   5.042   0.145
18564WAT     H255935   6.065   4.951   0.228
18565WAT      O55936   5.977   5.721   6.507
18565WAT     H155937   5.986   5.728   6.408
18565WAT     H255938   6.064   5.691   6.547
18566WAT      O55939   2.201   9.495   1.515
18566WAT     H155940   2.144   9.563   1.560
18566WAT     H255941   2.183   9.405   1.556
18567WAT      O55942   3.928   4.714   6.254
18567WAT     H155943   4.023   4.723   6.224
18567WAT     H255944   3.875   4.668   6.182
18568WAT      O55945   0.337   8.353   3.637
18568WAT     H155946   0.351   8.443   3.598
18568WAT     H255947   0.282   8.297   3.574
18569WAT      O55948   9.350   1.578   0.542
18569WAT     H155949   9.343   1.652   0.608
18569WAT     H255950   9.260   1.540   0.524
18570WAT      O55951   1.514   9.041   3.443
18570WAT     H155952   1.524   9.013   3.539
18570WAT     H255953   1.434   8.995   3.404
18571WAT      O55954   6.137   2.088   5.752
18571WAT     H155955   6.183   2.171   5.722
18571WAT     H255956   6.201   2.011   5.749
18572WAT      O55957   5.522   5.869   6.613
18572WAT     H155958   5.521   5.909   6.521
18572WAT     H255959   5.611   5.887   6.656
18573WAT      O55960   5.926   3.163   2.548
18573WAT     H155961   5.935   3.232   2.621
18573WAT     H255962   5.840   3.115   2.559
18574WAT      O55963   7.815   2.634   9.540
18574WAT     H155964   7.881   2.708   9.543
18574WAT     H255965   7.772   2.624   9.630
18575WAT      O55966   4.148   6.099   0.628
18575WAT     H155967   4.214   6.081   0.555
18575WAT     H255968   4.182   6.174   0.685
18576WAT      O55969   6.570   7.394   6.560
18576WAT     H155970   6.505   7.327   6.524
18576WAT     H255971   6.520   7.466   6.608
18577WAT      O55972   9.605   7.044   6.328
18577WAT     H155973   9.589   6.949   6.356
18577WAT     H255974   9.581   7.055   6.232
18578WAT      O55975   7.329   0.767   1.094
18578WAT     H155976   7.321   0.693   1.161
18578WAT     H255977   7.352   0.729   1.004
18579WAT      O55978   2.250   3.348   6.579
18579WAT     H155979   2.215   3.439   6.562
18579WAT     H255980   2.212   3.284   6.512
18580WAT      O55981   7.340   5.401   2.085
18580WAT     H155982   7.381   5.309   2.082
18580WAT     H255983   7.412   5.469   2.074
18581WAT      O55984   8.048   6.052   9.109
18581WAT     H155985   8.107   5.993   9.054
18581WAT     H255986   8.080   6.147   9.101
18582WAT      O55987   1.276   8.996   1.719
18582WAT     H155988   1.244   8.901   1.726
18582WAT     H255989   1.349   9.001   1.651
18583WAT      O55990   1.371   9.139   9.325
18583WAT     H155991   1.439   9.204   9.292
18583WAT     H255992   1.295   9.134   9.260
18584WAT      O55993   8.849   6.095   5.121
18584WAT     H155994   8.904   6.046   5.053
18584WAT     H255995   8.843   6.192   5.095
18585WAT      O55996   5.278   9.771   3.064
18585WAT     H155997   5.276   9.760   2.964
18585WAT     H255998   5.373   9.763   3.096
18586WAT      O55999   9.703   5.957   2.192
18586WAT     H156000   9.723   6.051   2.165
18586WAT     H256001   9.656   5.910   2.118
18587WAT      O56002   8.064   7.770   4.905
18587WAT     H156003   8.091   7.865   4.888
18587WAT     H256004   8.013   7.765   4.991
18588WAT      O56005   2.622   9.268   6.147
18588WAT     H156006   2.537   9.318   6.163
18588WAT     H256007   2.697   9.317   6.191
18589WAT      O56008   5.092   6.879   7.801
18589WAT     H156009   5.009   6.832   7.831
18589WAT     H256010   5.172   6.829   7.832
18590WAT      O56011   5.663   5.655   2.777
18590WAT     H156012   5.690   5.576   2.722
18590WAT     H256013   5.637   5.625   2.869
18591WAT      O56014   8.438   8.629   7.310
18591WAT     H156015   8.526   8.605   7.268
18591WAT     H256016   8.375   8.659   7.239
18592WAT      O56017   0.397   0.165   3.080
18592WAT     H156018   0.484   0.200   3.047
18592WAT     H256019   0.387   0.186   3.177
18593WAT      O56020   6.220   5.931   2.781
18593WAT     H156021   6.246   5.878   2.862
18593WAT     H256022   6.131   5.900   2.748
18594WAT      O56023   3.304   7.803   5.171
18594WAT     H156024   3.213   7.835   5.198
18594WAT     H256025   3.337   7.858   5.095
18595WAT      O56026   1.795   6.645   8.497
18595WAT     H156027   1.876   6.695   8.469
18595WAT     H256028   1.762   6.681   8.584
18596WAT      O56029   2.083   3.625   8.824
18596WAT     H156030   2.156   3.560   8.847
18596WAT     H256031   2.002   3.575   8.795
18597WAT      O56032   5.755   8.919   9.149
18597WAT     H156033   5.771   8.996   9.088
18597WAT     H256034   5.663   8.883   9.134
18598WAT      O56035   1.256   2.199   3.056
18598WAT     H156036   1.233   2.141   2.977
18598WAT     H256037   1.354   2.217   3.056
18599WAT      O56038   9.181   2.245   3.519
18599WAT     H156039   9.121   2.281   3.447
18599WAT     H256040   9.204   2.150   3.498
18600WAT      O56041   7.023   5.241   8.073
18600WAT     H156042   7.078   5.190   8.007
18600WAT     H256043   6.946   5.285   8.026
18601WAT      O56044   1.931   0.339   1.482
18601WAT     H156045   1.832   0.330   1.485
18601WAT     H256046   1.973   0.270   1.541
18602WAT      O56047   3.761   9.060   4.869
18602WAT     H156048   3.829   9.046   4.797
18602WAT     H256049   3.683   9.110   4.831
18603WAT      O56050   1.270   7.397   4.390
18603WAT     H156051   1.185   7.443   4.364
18603WAT     H256052   1.293   7.327   4.322
18604WAT      O56053   2.113   9.104   7.127
18604WAT     H156054   2.098   9.156   7.043
18604WAT     H256055   2.075   9.012   7.117
18605WAT      O56056   8.818   2.446   6.585
18605WAT     H156057   8.879   2.448   6.665
18605WAT     H256058   8.761   2.363   6.589
18606WAT      O56059   6.430   3.588   8.074
18606WAT     H156060   6.512   3.586   8.132
18606WAT     H256061   6.398   3.495   8.057
18607WAT      O56062   1.916   4.991   1.459
18607WAT     H156063   1.872   5.027   1.542
18607WAT     H256064   1.991   5.051   1.433
18608WAT      O56065   9.364   3.822   6.775
18608WAT     H156066   9.372   3.921   6.760
18608WAT     H256067   9.272   3.801   6.806
18609WAT      O56068   6.222   3.248   6.279
18609WAT     H156069   6.233   3.347   6.289
18609WAT     H256070   6.200   3.227   6.184
18610WAT      O56071   0.937   3.038   3.454
18610WAT     H156072   0.839   3.027   3.439
18610WAT     H256073   0.987   2.982   3.389
18611WAT      O56074   3.070   8.413   0.037
18611WAT     H156075   3.151   8.454  -0.006
18611WAT     H256076   3.017   8.484   0.083
18612WAT      O56077   3.695   5.212   2.635
18612WAT     H156078   3.667   5.253   2.548
18612WAT     H256079   3.617   5.213   2.698
18613WAT      O56080   3.686   6.483   8.152
18613WAT     H156081   3.586   6.487   8.151
18613WAT     H256082   3.722   6.568   8.113
18614WAT      O56083   5.448   4.013   0.532
18614WAT     H156084   5.400   4.034   0.446
18614WAT     H256085   5.431   3.918   0.557
18615WAT      O56086   4.029   1.326   0.111
18615WAT     H156087   4.058   1.412   0.154
18615WAT     H256088   3.945   1.293   0.156
18616WAT      O56089   2.674   8.327   9.421
18616WAT     H156090   2.676   8.267   9.342
18616WAT     H256091   2.731   8.288   9.494
18617WAT      O56092   2.703   5.564   2.876
18617WAT     H156093   2.669   5.482   2.923
18617WAT     H256094   2.733   5.631   2.943
18618WAT      O56095   8.452   0.392   7.586
18618WAT     H156096   8.481   0.478   7.629
18618WAT     H256097   8.384   0.347   7.645
18619WAT      O56098   0.038   5.842   9.465
18619WAT     H156099   0.095   5.821   9.544
18619WAT     H256100   0.023   5.941   9.459
18620WAT      O56101   3.432   4.278   4.560
18620WAT     H156102   3.345   4.234   4.537
18620WAT     H256103   3.416   4.375   4.578
18621WAT      O56104   7.198   5.525   4.271
18621WAT     H156105   7.127   5.518   4.342
18621WAT     H256106   7.159   5.499   4.183
18622WAT      O56107   0.194   4.713   1.770
18622WAT     H156108   0.202   4.730   1.672
18622WAT     H256109   0.120   4.769   1.808
18623WAT      O56110   1.710   2.418   7.525
18623WAT     H156111   1.743   2.328   7.496
18623WAT     H256112   1.765   2.449   7.603
18624WAT      O56113   4.272   0.171   1.266
18624WAT     H156114   4.300   0.075   1.269
18624WAT     H256115   4.300   0.211   1.179
18625WAT      O56116   4.012   0.267   7.126
18625WAT     H156117   4.006   0.197   7.055
18625WAT     H256118   4.093   0.250   7.182
18626WAT      O56119   9.203   8.109   6.991
18626WAT     H156120   9.201   8.012   7.016
18626WAT     H256121   9.290   8.149   7.019
18627WAT      O56122   0.821   8.516   3.719
18627WAT     H156123   0.910   8.482   3.691
18627WAT     H256124   0.780   8.569   3.644
18628WAT      O56125   9.625   8.925   5.466
18628WAT     H156126   9.558   8.852   5.481
18628WAT     H256127   9.683   8.935   5.547
18629WAT      O56128   5.141   5.815   4.836
18629WAT     H156129   5.187   5.787   4.921
18629WAT     H256130   5.210   5.846   4.770
18630WAT      O56131   2.876   2.785   3.887
18630WAT     H156132   2.827   2.731   3.818
18630WAT     H256133   2.887   2.879   3.854
18631WAT      O56134   0.283   7.579   2.438
18631WAT     H156135   0.195   7.601   2.395
18631WAT     H256136   0.287   7.481   2.459
18632WAT      O56137   4.090   8.338   5.749
18632WAT     H156138   4.161   8.282   5.791
18632WAT     H256139   4.126   8.430   5.733
18633WAT      O56140   4.226   4.822   3.351
18633WAT     H156141   4.317   4.844   3.388
18633WAT     H256142   4.198   4.732   3.384
18634WAT      O56143   7.142   6.306   8.111
18634WAT     H156144   7.129   6.383   8.174
18634WAT     H256145   7.181   6.229   8.162
18635WAT      O56146   0.279   6.016   3.174
18635WAT     H156147   0.221   6.095   3.194
18635WAT     H256148   0.319   5.982   3.259
18636WAT      O56149   1.333   6.838   9.763
18636WAT     H156150   1.316   6.898   9.684
18636WAT     H256151   1.285   6.752   9.750
18637WAT      O56152   8.762   9.378   6.298
18637WAT     H156153   8.695   9.433   6.348
18637WAT     H256154   8.797   9.306   6.358
18638WAT      O56155   7.692   0.143   6.601
18638WAT     H156156   7.652   0.068   6.548
18638WAT     H256157   7.775   0.110   6.646
18639WAT      O56158   5.032   2.280   5.779
18639WAT     H156159   5.120   2.267   5.734
18639WAT     H256160   4.991   2.191   5.797
18640WAT      O56161   7.150   6.776   0.047
18640WAT     H156162   7.106   6.807   0.131
18640WAT     H256163   7.090   6.794  -0.031
18641WAT      O56164   7.347   8.019   0.957
18641WAT     H156165   7.273   8.043   0.894
18641WAT     H256166   7.371   7.923   0.947
18642WAT      O56167   5.667   4.687   8.522
18642WAT     H156168   5.740   4.687   8.590
18642WAT     H256169   5.697   4.638   8.440
18643WAT      O56170   5.394   8.325   1.416
18643WAT     H156171   5.481   8.284   1.444
18643WAT     H256172   5.368   8.291   1.326
18644WAT      O56173   8.259   0.565   8.196
18644WAT     H156174   8.312   0.485   8.225
18644WAT     H256175   8.321   0.642   8.180
18645WAT      O56176   8.377   7.935   2.120
18645WAT     H156177   8.317   7.879   2.062
18645WAT     H256178   8.442   7.875   2.167
18646WAT      O56179   3.233   4.627   4.027
18646WAT     H156180   3.270   4.719   4.013
18646WAT     H256181   3.243   4.602   4.124
18647WAT      O56182   5.335   6.955   7.293
18647WAT     H156183   5.372   7.038   7.252
18647WAT     H256184   5.384   6.934   7.377
18648WAT      O56185   6.598   3.058   2.686
18648WAT     H156186   6.565   3.035   2.594
18648WAT     H256187   6.578   3.154   2.705
18649WAT      O56188   6.462   7.125   6.764
18649WAT     H156189   6.515   7.065   6.823
18649WAT     H256190   6.477   7.221   6.790
18650WAT      O56191   0.042   8.706   7.237
18650WAT     H156192  -0.002   8.630   7.285
18650WAT     H256193   0.076   8.772   7.304
18651WAT      O56194   3.799   7.424   0.673
18651WAT     H156195   3.744   7.348   0.639
18651WAT     H256196   3.762   7.511   0.641
18652WAT      O56197   5.673   1.986   4.030
18652WAT     H156198   5.695   1.893   4.058
18652WAT     H256199   5.639   2.037   4.109
18653WAT      O56200   1.719   8.788   6.675
18653WAT     H156201   1.729   8.730   6.595
18653WAT     H256202   1.622   8.791   6.703
18654WAT      O56203   2.528   4.260   3.663
18654WAT     H156204   2.524   4.359   3.679
18654WAT     H256205   2.451   4.233   3.605
18655WAT      O56206   3.589   6.840   0.374
18655WAT     H156207   3.585   6.894   0.290
18655WAT     H256208   3.681   6.849   0.414
18656WAT      O56209   2.765   8.989   3.127
18656WAT     H156210   2.676   9.017   3.163
18656WAT     H256211   2.773   9.016   3.031
18657WAT      O56212   7.299   6.562   4.252
18657WAT     H156213   7.349   6.617   4.319
18657WAT     H256214   7.246   6.492   4.300
18658WAT      O56215   4.982   0.735   9.268
18658WAT     H156216   5.043   0.672   9.221
18658WAT     H256217   4.891   0.694   9.278
18659WAT      O56218   5.517   8.817   3.071
18659WAT     H156219   5.550   8.799   2.979
18659WAT     H256220   5.417   8.812   3.072
18660WAT      O56221   7.908   0.928   6.927
18660WAT     H156222   7.880   0.951   7.020
18660WAT     H256223   7.891   0.831   6.910
18661WAT      O56224   9.879   1.340   4.448
18661WAT     H156225   9.786   1.366   4.474
18661WAT     H256226   9.944   1.390   4.505
18662WAT      O56227   7.681   3.571   9.169
18662WAT     H156228   7.722   3.480   9.162
18662WAT     H256229   7.749   3.640   9.143
18663WAT      O56230   2.095  -0.001   9.393
18663WAT     H156231   2.020  -0.048   9.439
18663WAT     H256232   2.070   0.094   9.375
18664WAT      O56233   4.685   9.457   9.492
18664WAT     H156234   4.730   9.499   9.570
18664WAT     H256235   4.717   9.363   9.482
18665WAT      O56236   4.436   2.843   5.311
18665WAT     H156237   4.520   2.864   5.261
18665WAT     H256238   4.440   2.751   5.348
18666WAT      O56239   6.430   1.109   4.125
18666WAT     H156240   6.486   1.111   4.208
18666WAT     H256241   6.339   1.145   4.145
18667WAT      O56242   8.225   7.216   1.765
18667WAT     H156243   8.135   7.217   1.809
18667WAT     H256244   8.288   7.274   1.817
18668WAT      O56245   2.442   3.911   8.098
18668WAT     H156246   2.411   3.818   8.118
18668WAT     H256247   2.468   3.917   8.002
18669WAT      O56248   7.651   2.107   1.719
18669WAT     H156249   7.588   2.087   1.643
18669WAT     H256250   7.715   2.178   1.691
18670WAT      O56251   0.683   5.784   2.538
18670WAT     H156252   0.696   5.686   2.551
18670WAT     H256253   0.611   5.800   2.471
18671WAT      O56254   7.947   3.355   3.998
18671WAT     H156255   7.965   3.273   4.052
18671WAT     H256256   7.944   3.434   4.059
18672WAT      O56257   2.956   5.136   9.254
18672WAT     H156258   2.923   5.068   9.319
18672WAT     H256259   2.928   5.228   9.284
18673WAT      O56260   2.185   1.518   6.560
18673WAT     H156261   2.246   1.572   6.618
18673WAT     H256262   2.178   1.425   6.597
18674WAT      O56263   1.770   3.179   7.037
18674WAT     H156264   1.818   3.133   7.112
18674WAT     H256265   1.836   3.207   6.967
18675WAT      O56266   8.637   4.538   1.603
18675WAT     H156267   8.565   4.592   1.559
18675WAT     H256268   8.597   4.454   1.640
18676WAT      O56269   8.056   0.356   5.283
18676WAT     H156270   8.077   0.299   5.204
18676WAT     H256271   8.059   0.452   5.256
18677WAT      O56272   8.171   2.220   4.221
18677WAT     H156273   8.188   2.144   4.284
18677WAT     H256274   8.201   2.306   4.264
18678WAT      O56275   8.634   9.161   9.384
18678WAT     H156276   8.721   9.121   9.412
18678WAT     H256277   8.563   9.091   9.384
18679WAT      O56278   4.666   6.279   8.420
18679WAT     H156279   4.764   6.276   8.441
18679WAT     H256280   4.653   6.257   8.323
18680WAT      O56281   5.051   4.361   6.594
18680WAT     H156282   4.978   4.314   6.643
18680WAT     H256283   5.140   4.330   6.627
18681WAT      O56284   2.210   5.697   2.812
18681WAT     H156285   2.281   5.764   2.836
18681WAT     H256286   2.235   5.607   2.848
18682WAT      O56287   0.669   7.059   7.489
18682WAT     H156288   0.720   7.006   7.421
18682WAT     H256289   0.689   7.156   7.478
18683WAT      O56290   0.404   3.003   7.219
18683WAT     H156291   0.341   2.966   7.151
18683WAT     H256292   0.470   3.063   7.173
18684WAT      O56293   6.044   5.072   2.500
18684WAT     H156294   6.077   5.082   2.594
18684WAT     H256295   6.029   5.162   2.460
18685WAT      O56296   4.912   1.641   2.928
18685WAT     H156297   4.842   1.663   2.995
18685WAT     H256298   4.896   1.693   2.844
18686WAT      O56299   7.392   2.615   7.894
18686WAT     H156300   7.461   2.679   7.925
18686WAT     H256301   7.319   2.609   7.962
18687WAT      O56302   2.745   5.592   2.054
18687WAT     H156303   2.845   5.590   2.062
18687WAT     H256304   2.708   5.503   2.081
18688WAT      O56305   2.207   5.862   6.080
18688WAT     H156306   2.188   5.765   6.090
18688WAT     H256307   2.177   5.893   5.989
18689WAT      O56308   9.725   0.217   7.493
18689WAT     H156309   9.825   0.218   7.501
18689WAT     H256310   9.685   0.185   7.579
18690WAT      O56311   5.312   7.340   3.619
18690WAT     H156312   5.392   7.330   3.677
18690WAT     H256313   5.259   7.420   3.649
18691WAT      O56314   1.143   1.742   8.118
18691WAT     H156315   1.060   1.724   8.172
18691WAT     H256316   1.119   1.747   8.021
18692WAT      O56317   6.372   3.741   2.489
18692WAT     H156318   6.311   3.694   2.554
18692WAT     H256319   6.411   3.822   2.533
18693WAT      O56320   7.405   3.922   2.456
18693WAT     H156321   7.426   3.831   2.491
18693WAT     H256322   7.408   3.920   2.356
18694WAT      O56323   7.795   6.274   8.514
18694WAT     H156324   7.709   6.256   8.465
18694WAT     H256325   7.833   6.361   8.483
18695WAT      O56326   5.426   5.283   0.132
18695WAT     H156327   5.456   5.295   0.037
18695WAT     H256328   5.483   5.215   0.177
18696WAT      O56329   8.404   7.748   4.405
18696WAT     H156330   8.401   7.657   4.364
18696WAT     H256331   8.491   7.791   4.384
18697WAT      O56332   2.305   5.213   4.690
18697WAT     H156333   2.229   5.213   4.755
18697WAT     H256334   2.331   5.308   4.670
18698WAT      O56335   1.283   6.439   3.457
18698WAT     H156336   1.379   6.440   3.484
18698WAT     H256337   1.226   6.423   3.538
18699WAT      O56338   2.187   3.478   2.475
18699WAT     H156339   2.254   3.457   2.546
18699WAT     H256340   2.201   3.572   2.443
18700WAT      O56341   5.007   1.202   7.793
18700WAT     H156342   4.963   1.126   7.842
18700WAT     H256343   4.994   1.286   7.845
18701WAT      O56344   4.788   7.692   5.443
18701WAT     H156345   4.820   7.600   5.424
18701WAT     H256346   4.727   7.690   5.523
18702WAT      O56347   2.598   4.631   8.025
18702WAT     H156348   2.541   4.562   8.069
18702WAT     H256349   2.551   4.719   8.028
18703WAT      O56350   8.124   6.147   6.317
18703WAT     H156351   8.067   6.184   6.244
18703WAT     H256352   8.144   6.219   6.384
18704WAT      O56353   9.814   6.321   2.753
18704WAT     H156354   9.722   6.352   2.730
18704WAT     H256355   9.863   6.395   2.799
18705WAT      O56356   9.778   0.228   7.967
18705WAT     H156357   9.742   0.198   7.879
18705WAT     H256358   9.725   0.307   8.000
18706WAT      O56359   1.338   5.584   1.971
18706WAT     H156360   1.437   5.592   1.977
18706WAT     H256361   1.302   5.661   1.917
18707WAT      O56362   2.136   5.086   2.715
18707WAT     H156363   2.096   5.160   2.768
18707WAT     H256364   2.121   5.103   2.618
18708WAT      O56365   6.006   7.583   7.271
18708WAT     H156366   6.017   7.499   7.217
18708WAT     H256367   6.080   7.646   7.248
18709WAT      O56368   5.464   5.851   3.104
18709WAT     H156369   5.514   5.765   3.114
18709WAT     H256370   5.495   5.916   3.174
18710WAT      O56371   6.824   7.688   0.141
18710WAT     H156372   6.824   7.726   0.233
18710WAT     H256373   6.799   7.759   0.076
18711WAT      O56374   8.287   7.061   7.123
18711WAT     H156375   8.372   7.095   7.164
18711WAT     H256376   8.217   7.132   7.128
18712WAT      O56377   3.332   4.067   6.420
18712WAT     H156378   3.396   4.092   6.347
18712WAT     H256379   3.281   3.985   6.393
18713WAT      O56380   7.784   7.589   4.541
18713WAT     H156381   7.847   7.519   4.574
18713WAT     H256382   7.770   7.657   4.612
18714WAT      O56383   3.722   9.038   6.314
18714WAT     H156384   3.695   9.121   6.265
18714WAT     H256385   3.641   8.997   6.357
18715WAT      O56386   6.001   5.413   5.243
18715WAT     H156387   6.037   5.331   5.286
18715WAT     H256388   6.056   5.492   5.270
18716WAT      O56389   8.925   8.603   6.135
18716WAT     H156390   8.869   8.539   6.082
18716WAT     H256391   9.022   8.578   6.126
18717WAT      O56392   2.030   3.062   8.903
18717WAT     H156393   2.123   3.095   8.887
18717WAT     H256394   1.968   3.100   8.834
18718WAT      O56395   1.608   8.483   2.104
18718WAT     H156396   1.529   8.423   2.112
18718WAT     H256397   1.690   8.429   2.084
18719WAT      O56398   8.522   0.699   3.544
18719WAT     H156399   8.616   0.667   3.536
18719WAT     H256400   8.465   0.657   3.474
18720WAT      O56401   5.633   7.220   7.023
18720WAT     H156402   5.733   7.226   7.026
18720WAT     H256403   5.604   7.181   6.936
18721WAT      O56404   1.294   4.317   3.741
18721WAT     H156405   1.359   4.241   3.746
18721WAT     H256406   1.247   4.326   3.829
18722WAT      O56407   8.349   5.881   7.581
18722WAT     H156408   8.333   5.798   7.527
18722WAT     H256409   8.399   5.948   7.525
18723WAT      O56410   4.496   1.307   6.458
18723WAT     H156411   4.537   1.328   6.370
18723WAT     H256412   4.403   1.274   6.445
18724WAT      O56413   9.873   6.135   5.153
18724WAT     H156414   9.912   6.224   5.176
18724WAT     H256415   9.892   6.114   5.057
18725WAT      O56416   7.893   1.616   8.006
18725WAT     H156417   7.855   1.687   8.065
18725WAT     H256418   7.856   1.527   8.031
18726WAT      O56419   5.614   5.099   5.873
18726WAT     H156420   5.515   5.088   5.870
18726WAT     H256421   5.657   5.010   5.889
18727WAT      O56422   0.349   4.401   4.047
18727WAT     H156423   0.390   4.375   4.135
18727WAT     H256424   0.251   4.381   4.049
18728WAT      O56425   0.579   7.063   9.711
18728WAT     H156426   0.506   7.125   9.740
18728WAT     H256427   0.588   7.066   9.611
18729WAT      O56428   0.384   2.332   8.362
18729WAT     H156429   0.317   2.400   8.392
18729WAT     H256430   0.452   2.317   8.434
18730WAT      O56431   4.137   9.503   5.929
18730WAT     H156432   4.043   9.477   5.953
18730WAT     H256433   4.201   9.459   5.992
18731WAT      O56434   0.990   2.563   1.153
18731WAT     H156435   0.985   2.585   1.250
18731WAT     H256436   1.071   2.506   1.136
18732WAT      O56437   8.433   2.469   3.332
18732WAT     H156438   8.356   2.421   3.374
18732WAT     H256439   8.411   2.566   3.324
18733WAT      O56440   1.580   2.583   8.616
18733WAT     H156441   1.617   2.637   8.691
18733WAT     H256442   1.480   2.580   8.623
18734WAT      O56443   7.410   8.104   2.568
18734WAT     H156444   7.326   8.067   2.528
18734WAT     H256445   7.434   8.052   2.650
18735WAT      O56446   8.639   6.934   6.888
18735WAT     H156447   8.688   6.903   6.806
18735WAT     H256448   8.705   6.969   6.955
18736WAT      O56449   8.256   7.720   7.416
18736WAT     H156450   8.159   7.725   7.393
18736WAT     H256451   8.310   7.766   7.346
18737WAT      O56452   5.803   9.016   6.325
18737WAT     H156453   5.845   8.930   6.353
18737WAT     H256454   5.847   9.049   6.241
18738WAT      O56455   0.594   2.000   6.187
18738WAT     H156456   0.682   2.036   6.156
18738WAT     H256457   0.609   1.919   6.243
18739WAT      O56458   6.109   8.880   3.289
18739WAT     H156459   6.203   8.850   3.269
18739WAT     H256460   6.081   8.948   3.222
18740WAT      O56461   7.743   3.925   8.969
18740WAT     H156462   7.760   3.837   8.926
18740WAT     H256463   7.646   3.947   8.963
18741WAT      O56464   0.651   3.728   0.821
18741WAT     H156465   0.615   3.642   0.787
18741WAT     H256466   0.679   3.717   0.917
18742WAT      O56467   6.463   1.845   7.215
18742WAT     H156468   6.368   1.815   7.218
18742WAT     H256469   6.511   1.812   7.297
18743WAT      O56470   8.165   1.287   9.263
18743WAT     H156471   8.199   1.254   9.175
18743WAT     H256472   8.162   1.211   9.328
18744WAT      O56473   6.629   8.009   1.456
18744WAT     H156474   6.616   8.106   1.438
18744WAT     H256475   6.663   7.997   1.550
18745WAT      O56476   7.121   7.181   9.043
18745WAT     H156477   7.074   7.232   8.972
18745WAT     H256478   7.063   7.107   9.076
18746WAT      O56479   7.386   0.035   1.768
18746WAT     H156480   7.452   0.016   1.694
18746WAT     H256481   7.318  -0.038   1.772
18747WAT      O56482   6.949   6.915   0.485
18747WAT     H156483   7.037   6.962   0.473
18747WAT     H256484   6.961   6.836   0.545
18748WAT      O56485   4.643   4.006   5.060
18748WAT     H156486   4.550   3.996   5.095
18748WAT     H256487   4.641   4.032   4.964
18749WAT      O56488   5.279   8.344   9.723
18749WAT     H156489   5.295   8.413   9.793
18749WAT     H256490   5.191   8.300   9.739
18750WAT      O56491   7.233   4.190   7.367
18750WAT     H156492   7.139   4.221   7.381
18750WAT     H256493   7.289   4.268   7.338
18751WAT      O56494   3.918   6.795   0.433
18751WAT     H156495   4.009   6.767   0.461
18751WAT     H256496   3.906   6.775   0.335
18752WAT      O56497   0.182   5.677   4.287
18752WAT     H156498   0.133   5.748   4.237
18752WAT     H256499   0.276   5.706   4.305
18753WAT      O56500   0.349   8.510   7.462
18753WAT     H156501   0.316   8.605   7.463
18753WAT     H256502   0.446   8.509   7.486
18754WAT      O56503   3.726   2.294   1.020
18754WAT     H156504   3.794   2.277   1.090
18754WAT     H256505   3.664   2.216   1.013
18755WAT      O56506   2.303   2.535   5.978
18755WAT     H156507   2.370   2.609   5.985
18755WAT     H256508   2.211   2.573   5.973
18756WAT      O56509   0.902   0.929   7.118
18756WAT     H156510   0.814   0.917   7.165
18756WAT     H256511   0.886   0.975   7.030
18757WAT      O56512   5.102   5.351   9.433
18757WAT     H156513   5.041   5.348   9.512
18757WAT     H256514   5.126   5.258   9.406
18758WAT      O56515   0.488   6.485   4.351
18758WAT     H156516   0.526   6.576   4.336
18758WAT     H256517   0.527   6.421   4.285
18759WAT      O56518   4.428   2.895   2.862
18759WAT     H156519   4.413   2.880   2.960
18759WAT     H256520   4.340   2.907   2.816
18760WAT      O56521   2.853   8.923   5.660
18760WAT     H156522   2.803   8.962   5.583
18760WAT     H256523   2.819   8.963   5.745
18761WAT      O56524   7.724   2.883   5.654
18761WAT     H156525   7.774   2.804   5.617
18761WAT     H256526   7.734   2.961   5.591
18762WAT      O56527   5.575   0.101   1.929
18762WAT     H156528   5.548   0.126   1.836
18762WAT     H256529   5.566   0.002   1.940
18763WAT      O56530   1.157   1.001   7.200
18763WAT     H156531   1.091   0.953   7.144
18763WAT     H256532   1.110   1.044   7.278
18764WAT      O56533   3.549   6.813   4.981
18764WAT     H156534   3.542   6.717   4.954
18764WAT     H256535   3.621   6.824   5.049
18765WAT      O56536   0.118   2.789   9.464
18765WAT     H156537   0.181   2.751   9.396
18765WAT     H256538   0.031   2.740   9.458
18766WAT      O56539   5.002   9.198   6.142
18766WAT     H156540   5.018   9.102   6.120
18766WAT     H256541   4.964   9.245   6.063
18767WAT      O56542   9.518   4.013   1.561
18767WAT     H156543   9.463   3.985   1.640
18767WAT     H256544   9.477   4.095   1.521
18768WAT      O56545   8.383   8.269   5.887
18768WAT     H156546   8.328   8.290   5.968
18768WAT     H256547   8.329   8.284   5.805
18769WAT      O56548   2.644   4.341   1.729
18769WAT     H156549   2.716   4.312   1.791
18769WAT     H256550   2.680   4.347   1.636
18770WAT      O56551   1.827   1.488   5.418
18770WAT     H156552   1.779   1.534   5.343
18770WAT     H256553   1.893   1.551   5.459
18771WAT      O56554   6.186   6.559   5.870
18771WAT     H156555   6.181   6.575   5.969
18771WAT     H256556   6.237   6.634   5.827
18772WAT      O56557   6.976   9.589   6.985
18772WAT     H156558   6.879   9.571   6.971
18772WAT     H256559   6.987   9.661   7.054
18773WAT      O56560   0.388   3.730   1.444
18773WAT     H156561   0.332   3.664   1.494
18773WAT     H256562   0.444   3.782   1.509
18774WAT      O56563   3.379   0.201   1.280
18774WAT     H156564   3.423   0.287   1.253
18774WAT     H256565   3.433   0.124   1.246
18775WAT      O56566   9.074   4.300   5.223
18775WAT     H156567   9.098   4.235   5.295
18775WAT     H256568   9.109   4.268   5.136
18776WAT      O56569   9.651   0.771   1.976
18776WAT     H156570   9.652   0.728   1.886
18776WAT     H256571   9.639   0.869   1.966
18777WAT      O56572   0.504   7.664   4.787
18777WAT     H156573   0.569   7.662   4.711
18777WAT     H256574   0.539   7.609   4.863
18778WAT      O56575   8.624   4.507   8.421
18778WAT     H156576   8.701   4.544   8.370
18778WAT     H256577   8.654   4.482   8.513
18779WAT      O56578   7.453   6.383   5.240
18779WAT     H156579   7.365   6.375   5.192
18779WAT     H256580   7.517   6.434   5.183
18780WAT      O56581   5.304   7.721   1.908
18780WAT     H156582   5.225   7.677   1.950
18780WAT     H256583   5.380   7.657   1.904
18781WAT      O56584   5.438   4.597   6.710
18781WAT     H156585   5.393   4.508   6.708
18781WAT     H256586   5.504   4.600   6.785
18782WAT      O56587   6.398   9.418   5.630
18782WAT     H156588   6.352   9.355   5.567
18782WAT     H256589   6.408   9.373   5.719
18783WAT      O56590   7.457   4.013   8.959
18783WAT     H156591   7.370   3.982   8.997
18783WAT     H256592   7.492   4.089   9.014
18784WAT      O56593   8.488   3.135   0.447
18784WAT     H156594   8.565   3.085   0.488
18784WAT     H256595   8.516   3.175   0.360
18785WAT      O56596   0.506   0.002   2.468
18785WAT     H156597   0.495   0.081   2.528
18785WAT     H256598   0.583  -0.054   2.499
18786WAT      O56599   9.584   5.728   3.291
18786WAT     H156600   9.580   5.635   3.326
18786WAT     H256601   9.678   5.762   3.295
18787WAT      O56602   1.097   1.955   5.090
18787WAT     H156603   1.172   1.928   5.030
18787WAT     H256604   1.122   1.938   5.185
18788WAT      O56605   4.404   9.779   4.770
18788WAT     H156606   4.308   9.766   4.796
18788WAT     H256607   4.438   9.696   4.727
18789WAT      O56608   4.955   2.344   6.900
18789WAT     H156609   4.990   2.432   6.867
18789WAT     H256610   4.901   2.358   6.983
18790WAT      O56611   4.449   8.373   1.807
18790WAT     H156612   4.525   8.419   1.853
18790WAT     H256613   4.449   8.276   1.834
18791WAT      O56614   9.127   8.626   9.022
18791WAT     H156615   9.072   8.553   9.062
18791WAT     H256616   9.078   8.665   8.944
18792WAT      O56617   5.473   1.200   2.359
18792WAT     H156618   5.434   1.178   2.270
18792WAT     H256619   5.412   1.167   2.431
18793WAT      O56620   8.852   6.388   8.001
18793WAT     H156621   8.871   6.415   8.096
18793WAT     H256622   8.856   6.288   7.994
18794WAT      O56623   8.216   8.768   7.552
18794WAT     H156624   8.214   8.715   7.636
18794WAT     H256625   8.163   8.722   7.481
18795WAT      O56626   2.095   0.264   5.663
18795WAT     H156627   2.042   0.330   5.718
18795WAT     H256628   2.066   0.271   5.567
18796WAT      O56629   4.499   7.055   3.570
18796WAT     H156630   4.409   7.036   3.531
18796WAT     H256631   4.565   7.071   3.496
18797WAT      O56632   1.796   0.451   9.218
18797WAT     H156633   1.758   0.401   9.295
18797WAT     H256634   1.878   0.501   9.246
18798WAT      O56635   6.529   9.689   5.064
18798WAT     H156636   6.614   9.721   5.106
18798WAT     H256637   6.473   9.642   5.133
18799WAT      O56638   1.441   5.901   5.999
18799WAT     H156639   1.421   5.994   6.029
18799WAT     H256640   1.534   5.897   5.961
18800WAT      O56641   5.950   0.157   1.989
18800WAT     H156642   5.896   0.219   1.931
18800WAT     H256643   6.046   0.184   1.987
18801WAT      O56644   1.627   8.942   2.200
18801WAT     H156645   1.718   8.970   2.229
18801WAT     H256646   1.570   9.023   2.185
18802WAT      O56647   4.616   9.670   8.115
18802WAT     H156648   4.685   9.706   8.052
18802WAT     H256649   4.573   9.589   8.076
18803WAT      O56650   7.832   6.960   0.621
18803WAT     H156651   7.895   6.975   0.545
18803WAT     H256652   7.880   6.917   0.697
18804WAT      O56653   8.375   1.833   8.979
18804WAT     H156654   8.470   1.833   9.011
18804WAT     H256655   8.367   1.894   8.900
18805WAT      O56656   0.615   7.681   3.361
18805WAT     H156657   0.664   7.726   3.436
18805WAT     H256658   0.574   7.751   3.303
18806WAT      O56659   4.798   2.260   0.301
18806WAT     H156660   4.743   2.200   0.359
18806WAT     H256661   4.880   2.289   0.351
18807WAT      O56662   3.832   4.775   8.438
18807WAT     H156663   3.795   4.695   8.485
18807WAT     H256664   3.832   4.854   8.499
18808WAT      O56665   7.373   1.492   1.720
18808WAT     H156666   7.323   1.406   1.711
18808WAT     H256667   7.324   1.565   1.673
18809WAT      O56668   7.967   3.943   6.436
18809WAT     H156669   8.047   3.944   6.496
18809WAT     H256670   7.908   3.866   6.461
18810WAT      O56671   1.472   9.227   3.916
18810WAT     H156672   1.461   9.321   3.949
18810WAT     H256673   1.505   9.169   3.991
18811WAT      O56674   0.334   7.711   3.011
18811WAT     H156675   0.355   7.618   2.982
18811WAT     H256676   0.247   7.712   3.059
18812WAT      O56677   6.759   6.313   7.586
18812WAT     H156678   6.677   6.257   7.577
18812WAT     H256679   6.837   6.256   7.613
18813WAT      O56680   3.693   4.268   8.415
18813WAT     H156681   3.645   4.182   8.433
18813WAT     H256682   3.629   4.344   8.422
18814WAT      O56683   0.852   2.577   1.863
18814WAT     H156684   0.940   2.626   1.859
18814WAT     H256685   0.817   2.583   1.957
18815WAT      O56686   6.473   2.582   4.891
18815WAT     H156687   6.387   2.621   4.858
18815WAT     H256688   6.458   2.541   4.981
18816WAT      O56689   0.309   2.702   9.295
18816WAT     H156690   0.258   2.748   9.222
18816WAT     H256691   0.399   2.745   9.305
18817WAT      O56692   0.767   5.580   6.926
18817WAT     H156693   0.763   5.673   6.890
18817WAT     H256694   0.675   5.547   6.946
18818WAT      O56695   4.487   1.073   2.012
18818WAT     H156696   4.555   1.143   1.987
18818WAT     H256697   4.396   1.104   1.984
18819WAT      O56698   4.140   1.372   8.437
18819WAT     H156699   4.165   1.281   8.403
18819WAT     H256700   4.132   1.435   8.360
18820WAT      O56701   8.877   6.113   7.997
18820WAT     H156702   8.932   6.045   7.948
18820WAT     H256703   8.785   6.118   7.956
18821WAT      O56704   6.868   4.504   0.585
18821WAT     H156705   6.787   4.514   0.528
18821WAT     H256706   6.847   4.532   0.679
18822WAT      O56707   2.029   5.008   6.311
18822WAT     H156708   2.069   5.039   6.224
18822WAT     H256709   1.933   5.036   6.315
18823WAT      O56710   8.788   4.231   2.193
18823WAT     H156711   8.852   4.253   2.119
18823WAT     H256712   8.833   4.247   2.281
18824WAT      O56713   3.516   6.425   3.301
18824WAT     H156714   3.565   6.403   3.216
18824WAT     H256715   3.500   6.342   3.353
18825WAT      O56716   4.982   7.634   7.487
18825WAT     H156717   5.003   7.716   7.433
18825WAT     H256718   4.981   7.657   7.584
18826WAT      O56719   5.995   8.954   5.321
18826WAT     H156720   5.953   8.982   5.234
18826WAT     H256721   6.006   8.855   5.322
18827WAT      O56722   5.341   7.184   8.337
18827WAT     H156723   5.419   7.234   8.299
18827WAT     H256724   5.373   7.113   8.399
18828WAT      O56725   7.317   3.237   1.683
18828WAT     H156726   7.254   3.167   1.648
18828WAT     H256727   7.410   3.200   1.686
18829WAT      O56728   7.102   5.350   9.859
18829WAT     H156729   7.137   5.421   9.920
18829WAT     H256730   7.007   5.370   9.834
18830WAT      O56731   0.136   1.447   5.674
18830WAT     H156732   0.050   1.448   5.623
18830WAT     H256733   0.193   1.372   5.641
18831WAT      O56734   7.660   9.765   8.223
18831WAT     H156735   7.583   9.702   8.234
18831WAT     H256736   7.725   9.752   8.299
18832WAT      O56737   5.177   1.395   8.383
18832WAT     H156738   5.257   1.446   8.413
18832WAT     H256739   5.205   1.305   8.349
18833WAT      O56740   5.855   2.801   6.124
18833WAT     H156741   5.822   2.736   6.055
18833WAT     H256742   5.783   2.868   6.143
18834WAT      O56743   7.999   3.913   6.834
18834WAT     H156744   7.999   4.012   6.847
18834WAT     H256745   7.926   3.872   6.888
18835WAT      O56746   4.844   3.930   7.234
18835WAT     H156747   4.920   3.955   7.294
18835WAT     H256748   4.857   3.974   7.145
18836WAT      O56749   5.722   2.859   2.783
18836WAT     H156750   5.742   2.953   2.810
18836WAT     H256751   5.772   2.838   2.699
18837WAT      O56752   7.629   7.525   4.883
18837WAT     H156753   7.586   7.435   4.893
18837WAT     H256754   7.588   7.573   4.805
18838WAT      O56755   5.808   6.464   4.570
18838WAT     H156756   5.905   6.453   4.547
18838WAT     H256757   5.753   6.453   4.487
18839WAT      O56758   0.827   5.914   8.184
18839WAT     H156759   0.912   5.918   8.131
18839WAT     H256760   0.782   5.826   8.169
18840WAT      O56761   0.910   9.213   2.803
18840WAT     H156762   0.972   9.285   2.834
18840WAT     H256763   0.929   9.129   2.852
18841WAT      O56764   8.887   3.092   9.711
18841WAT     H156765   8.818   3.041   9.659
18841WAT     H256766   8.967   3.108   9.653
18842WAT      O56767   7.100   4.730   5.042
18842WAT     H156768   7.176   4.714   4.979
18842WAT     H256769   7.019   4.682   5.009
18843WAT      O56770   3.956   6.699   7.204
18843WAT     H156771   3.926   6.615   7.251
18843WAT     H256772   3.876   6.752   7.178
18844WAT      O56773   3.489   7.510   4.982
18844WAT     H156774   3.479   7.535   5.078
18844WAT     H256775   3.549   7.430   4.975
18845WAT      O56776   0.873   7.723   5.350
18845WAT     H156777   0.950   7.785   5.338
18845WAT     H256778   0.906   7.628   5.349
18846WAT      O56779   6.348   2.190   1.296
18846WAT     H156780   6.422   2.187   1.363
18846WAT     H256781   6.386   2.215   1.206
18847WAT      O56782   7.843   6.724   5.179
18847WAT     H156783   7.799   6.748   5.266
18847WAT     H256784   7.790   6.763   5.104
18848WAT      O56785   4.823   2.089   5.757
18848WAT     H156786   4.729   2.123   5.754
18848WAT     H256787   4.839   2.030   5.677
18849WAT      O56788   4.392   4.121   0.783
18849WAT     H156789   4.451   4.169   0.848
18849WAT     H256790   4.449   4.065   0.723
18850WAT      O56791   3.192   7.562   4.220
18850WAT     H156792   3.170   7.637   4.282
18850WAT     H256793   3.192   7.596   4.126
18851WAT      O56794   6.206   6.820   3.354
18851WAT     H156795   6.228   6.815   3.452
18851WAT     H256796   6.167   6.732   3.325
18852WAT      O56797   6.302   6.093   0.077
18852WAT     H156798   6.254   6.172   0.115
18852WAT     H256799   6.259   6.065  -0.008
18853WAT      O56800   6.557   0.258   4.962
18853WAT     H156801   6.638   0.205   4.938
18853WAT     H256802   6.577   0.316   5.041
18854WAT      O56803   8.762   9.718   9.100
18854WAT     H156804   8.743   9.788   9.168
18854WAT     H256805   8.680   9.699   9.046
18855WAT      O56806   2.866   5.718   6.669
18855WAT     H156807   2.960   5.751   6.674
18855WAT     H256808   2.858   5.651   6.594
18856WAT      O56809   4.441   6.389   4.286
18856WAT     H156810   4.351   6.349   4.266
18856WAT     H256811   4.432   6.456   4.359
18857WAT      O56812   6.546   9.037   6.351
18857WAT     H156813   6.640   9.069   6.347
18857WAT     H256814   6.513   9.040   6.445
18858WAT      O56815   7.205   3.058   0.828
18858WAT     H156816   7.201   3.033   0.731
18858WAT     H256817   7.267   2.996   0.876
18859WAT      O56818   9.701   2.607   8.644
18859WAT     H156819   9.793   2.617   8.681
18859WAT     H256820   9.635   2.648   8.707
18860WAT      O56821   7.377   4.372   7.253
18860WAT     H156822   7.469   4.362   7.291
18860WAT     H256823   7.358   4.469   7.237
18861WAT      O56824   7.874   8.566   5.930
18861WAT     H156825   7.780   8.572   5.897
18861WAT     H256826   7.924   8.498   5.875
18862WAT      O56827   6.622   1.642   7.797
18862WAT     H156828   6.680   1.592   7.733
18862WAT     H256829   6.540   1.675   7.751
18863WAT      O56830   1.010   3.089   8.246
18863WAT     H156831   0.931   3.124   8.298
18863WAT     H256832   0.981   3.015   8.187
18864WAT      O56833   9.075   2.009   7.384
18864WAT     H156834   9.016   1.985   7.308
18864WAT     H256835   9.034   1.977   7.470
18865WAT      O56836   1.713   8.990   7.034
18865WAT     H156837   1.713   9.033   6.943
18865WAT     H256838   1.629   9.014   7.082
18866WAT      O56839   3.382   9.701   6.285
18866WAT     H156840   3.402   9.779   6.345
18866WAT     H256841   3.467   9.662   6.251
18867WAT      O56842   0.539   8.465   2.003
18867WAT     H156843   0.466   8.524   2.037
18867WAT     H256844   0.553   8.483   1.906
18868WAT      O56845   0.279   7.858   8.429
18868WAT     H156846   0.330   7.923   8.485
18868WAT     H256847   0.303   7.871   8.332
18869WAT      O56848   7.023   4.548   2.783
18869WAT     H156849   6.976   4.560   2.696
18869WAT     H256850   6.956   4.542   2.857
18870WAT      O56851   2.637   5.321   3.631
18870WAT     H156852   2.558   5.264   3.653
18870WAT     H256853   2.668   5.369   3.713
18871WAT      O56854   9.733   1.131   3.416
18871WAT     H156855   9.710   1.096   3.325
18871WAT     H256856   9.821   1.178   3.412
18872WAT      O56857   3.095   7.121   9.269
18872WAT     H156858   3.123   7.029   9.240
18872WAT     H256859   3.041   7.163   9.196
18873WAT      O56860   2.823   1.429   8.504
18873WAT     H156861   2.816   1.330   8.519
18873WAT     H256862   2.733   1.465   8.481
18874WAT      O56863   7.231   4.418   0.858
18874WAT     H156864   7.160   4.396   0.792
18874WAT     H256865   7.317   4.436   0.810
18875WAT      O56866   9.174   3.992   8.389
18875WAT     H156867   9.194   4.088   8.411
18875WAT     H256868   9.254   3.949   8.348
18876WAT      O56869   0.417   3.751   3.718
18876WAT     H156870   0.384   3.714   3.805
18876WAT     H256871   0.489   3.692   3.681
18877WAT      O56872   2.810   5.680   3.783
18877WAT     H156873   2.910   5.690   3.787
18877WAT     H256874   2.781   5.669   3.688
18878WAT      O56875   6.155   2.319   0.004
18878WAT     H156876   6.150   2.370  -0.082
18878WAT     H256877   6.247   2.329   0.042
18879WAT      O56878   2.499   1.335   0.634
18879WAT     H156879   2.519   1.388   0.551
18879WAT     H256880   2.458   1.248   0.608
18880WAT      O56881   4.071   5.296   5.018
18880WAT     H156882   4.039   5.279   5.111
18880WAT     H256883   4.000   5.344   4.966
18881WAT      O56884   1.902   5.181   0.637
18881WAT     H156885   1.887   5.104   0.698
18881WAT     H256886   1.853   5.166   0.551
18882WAT      O56887   8.891   8.918   0.067
18882WAT     H156888   8.860   8.845   0.006
18882WAT     H256889   8.932   8.991   0.013
18883WAT      O56890   9.705   6.587   3.572
18883WAT     H156891   9.787   6.533   3.592
18883WAT     H256892   9.726   6.684   3.582
18884WAT      O56893   4.677   5.166   6.963
18884WAT     H156894   4.586   5.149   6.926
18884WAT     H256895   4.685   5.263   6.988
18885WAT      O56896   8.286   0.082   9.223
18885WAT     H156897   8.231   0.156   9.186
18885WAT     H256898   8.378   0.086   9.184
18886WAT      O56899   5.531   3.475   5.686
18886WAT     H156900   5.549   3.381   5.657
18886WAT     H256901   5.471   3.519   5.619
18887WAT      O56902   0.256   0.040   0.190
18887WAT     H156903   0.218  -0.043   0.231
18887WAT     H256904   0.197   0.118   0.212
18888WAT      O56905   3.080   7.161   6.537
18888WAT     H156906   2.991   7.173   6.493
18888WAT     H256907   3.134   7.243   6.524
18889WAT      O56908   5.233   7.255   5.819
18889WAT     H156909   5.153   7.251   5.878
18889WAT     H256910   5.204   7.268   5.724
18890WAT      O56911   2.842   0.993   1.852
18890WAT     H156912   2.799   1.030   1.770
18890WAT     H256913   2.792   0.911   1.881
18891WAT      O56914   3.974   2.989   0.332
18891WAT     H156915   3.955   2.993   0.430
18891WAT     H256916   4.065   2.951   0.316
18892WAT      O56917   2.082   3.935   2.524
18892WAT     H156918   2.038   3.989   2.453
18892WAT     H256919   2.036   3.952   2.612
18893WAT      O56920   9.274   6.386   0.015
18893WAT     H156921   9.361   6.434   0.023
18893WAT     H256922   9.204   6.435   0.068
18894WAT      O56923   4.325   4.915   5.811
18894WAT     H156924   4.291   4.874   5.727
18894WAT     H256925   4.409   4.868   5.840
18895WAT      O56926   2.729   0.446   1.219
18895WAT     H156927   2.757   0.397   1.302
18895WAT     H256928   2.790   0.421   1.144
18896WAT      O56929   4.619   3.320   0.080
18896WAT     H156930   4.637   3.322   0.178
18896WAT     H256931   4.652   3.233   0.042
18897WAT      O56932   6.887   2.671   7.204
18897WAT     H156933   6.930   2.760   7.217
18897WAT     H256934   6.947   2.612   7.151
18898WAT      O56935   4.796   7.539   5.831
18898WAT     H156936   4.730   7.498   5.894
18898WAT     H256937   4.844   7.466   5.782
18899WAT      O56938   5.032   0.930   4.344
18899WAT     H156939   5.102   0.963   4.281
18899WAT     H256940   4.952   0.990   4.339
18900WAT      O56941   1.129   8.301   6.045
18900WAT     H156942   1.142   8.320   5.948
18900WAT     H256943   1.039   8.258   6.059
18901WAT      O56944   8.859   5.513   3.759
18901WAT     H156945   8.948   5.536   3.719
18901WAT     H256946   8.816   5.439   3.706
18902WAT      O56947   5.016   6.956   0.911
18902WAT     H156948   5.035   6.901   0.830
18902WAT     H256949   4.994   7.050   0.884
18903WAT      O56950   2.128   3.392   0.639
18903WAT     H156951   2.120   3.483   0.679
18903WAT     H256952   2.101   3.397   0.542
18904WAT      O56953   2.583   8.578   9.548
18904WAT     H156954   2.593   8.504   9.481
18904WAT     H256955   2.578   8.539   9.640
18905WAT      O56956   2.137   4.378   8.225
18905WAT     H156957   2.176   4.427   8.147
18905WAT     H256958   2.037   4.382   8.222
18906WAT      O56959   5.473   3.300   1.465
18906WAT     H156960   5.556   3.351   1.485
18906WAT     H256961   5.403   3.320   1.533
18907WAT      O56962   5.631   3.078   6.568
18907WAT     H156963   5.553   3.098   6.627
18907WAT     H256964   5.690   3.010   6.612
18908WAT      O56965   7.597   6.542   8.655
18908WAT     H156966   7.527   6.572   8.590
18908WAT     H256967   7.553   6.517   8.742
18909WAT      O56968   5.448   6.107   5.763
18909WAT     H156969   5.360   6.126   5.720
18909WAT     H256970   5.514   6.177   5.737
18910WAT      O56971   8.720   4.462   9.364
18910WAT     H156972   8.719   4.562   9.351
18910WAT     H256973   8.730   4.442   9.462
18911WAT      O56974   8.774   7.892   1.066
18911WAT     H156975   8.807   7.862   0.976
18911WAT     H256976   8.817   7.836   1.137
18912WAT      O56977   8.489   3.904   9.252
18912WAT     H156978   8.503   3.944   9.342
18912WAT     H256979   8.541   3.819   9.244
18913WAT      O56980   5.041   0.425   3.946
18913WAT     H156981   5.126   0.476   3.932
18913WAT     H256982   5.050   0.334   3.907
18914WAT      O56983   4.151   8.978   9.444
18914WAT     H156984   4.080   8.945   9.507
18914WAT     H256985   4.239   8.939   9.472
18915WAT      O56986   5.875   3.073   8.124
18915WAT     H156987   5.917   3.044   8.039
18915WAT     H256988   5.805   3.142   8.105
18916WAT      O56989   4.380   5.643   0.641
18916WAT     H156990   4.374   5.635   0.741
18916WAT     H256991   4.355   5.556   0.599
18917WAT      O56992   8.730   5.011   3.007
18917WAT     H156993   8.739   5.105   3.040
18917WAT     H256994   8.661   4.963   3.061
18918WAT      O56995   1.434   4.182   9.377
18918WAT     H156996   1.469   4.198   9.469
18918WAT     H256997   1.361   4.248   9.357
18919WAT      O56998   8.309   2.590   5.833
18919WAT     H156999   8.346   2.566   5.744
18919WAT     H257000   8.308   2.689   5.844
18920WAT      O57001   5.061   0.535   9.785
18920WAT     H157002   5.091   0.441   9.771
18920WAT     H257003   5.034   0.548   9.880
18921WAT      O57004   0.522   4.870   9.069
18921WAT     H157005   0.528   4.968   9.049
18921WAT     H257006   0.428   4.839   9.055
18922WAT      O57007   2.329   4.078   5.021
18922WAT     H157008   2.327   4.160   4.964
18922WAT     H257009   2.372   4.100   5.109
18923WAT      O57010   8.772   6.422   2.947
18923WAT     H157011   8.871   6.405   2.943
18923WAT     H257012   8.730   6.391   2.862
18924WAT      O57013   3.269   3.372   5.690
18924WAT     H157014   3.359   3.401   5.659
18924WAT     H257015   3.223   3.323   5.616
18925WAT      O57016   7.725   4.440   8.431
18925WAT     H157017   7.739   4.360   8.490
18925WAT     H257018   7.814   4.472   8.398
18926WAT      O57019   8.752   7.519   6.258
18926WAT     H157020   8.796   7.606   6.237
18926WAT     H257021   8.786   7.449   6.195
18927WAT      O57022   9.543   3.318   4.570
18927WAT     H157023   9.452   3.358   4.582
18927WAT     H257024   9.543   3.256   4.492
18928WAT      O57025   5.011   2.751   6.347
18928WAT     H157026   4.919   2.744   6.387
18928WAT     H257027   5.003   2.771   6.249
18929WAT      O57028   3.330   9.435   1.912
18929WAT     H157029   3.354   9.470   2.003
18929WAT     H257030   3.282   9.506   1.861
18930WAT      O57031   3.406   8.994   9.494
18930WAT     H157032   3.464   8.967   9.417
18930WAT     H257033   3.464   9.020   9.571
18931WAT      O57034   9.303   7.655   4.743
18931WAT     H157035   9.267   7.748   4.742
18931WAT     H257036   9.314   7.624   4.838
18932WAT      O57037   7.306   8.224   0.533
18932WAT     H157038   7.284   8.274   0.616
18932WAT     H257039   7.273   8.130   0.541
18933WAT      O57040   7.171   1.945   5.919
18933WAT     H157041   7.225   2.019   5.879
18933WAT     H257042   7.074   1.962   5.903
18934WAT      O57043   0.411   3.418   3.448
18934WAT     H157044   0.479   3.437   3.518
18934WAT     H257045   0.343   3.354   3.483
18935WAT      O57046   8.659   0.482   3.147
18935WAT     H157047   8.694   0.473   3.053
18935WAT     H257048   8.582   0.546   3.147
18936WAT      O57049   2.098   5.196   1.778
18936WAT     H157050   2.089   5.252   1.696
18936WAT     H257051   2.193   5.192   1.807
18937WAT      O57052   0.115   4.227   1.371
18937WAT     H157053   0.070   4.316   1.377
18937WAT     H257054   0.210   4.239   1.343
18938WAT      O57055   6.242   7.603   0.284
18938WAT     H157056   6.262   7.646   0.196
18938WAT     H257057   6.277   7.509   0.284
18939WAT      O57058   4.978   5.430   6.106
18939WAT     H157059   4.914   5.435   6.183
18939WAT     H257060   5.049   5.363   6.126
18940WAT      O57061   5.414   2.039   9.811
18940WAT     H157062   5.441   2.006   9.902
18940WAT     H257063   5.400   1.962   9.750
18941WAT      O57064   9.678   6.640   9.147
18941WAT     H157065   9.701   6.544   9.138
18941WAT     H257066   9.654   6.660   9.242
18942WAT      O57067   0.247   3.295   4.734
18942WAT     H157068   0.290   3.251   4.813
18942WAT     H257069   0.222   3.389   4.757
18943WAT      O57070   5.835   9.751   5.689
18943WAT     H157071   5.856   9.736   5.592
18943WAT     H257072   5.910   9.718   5.745
18944WAT      O57073   9.824   0.266   6.699
18944WAT     H157074   9.787   0.263   6.607
18944WAT     H257075   9.864   0.356   6.716
18945WAT      O57076   7.608   2.730   2.177
18945WAT     H157077   7.579   2.742   2.082
18945WAT     H257078   7.594   2.815   2.227
18946WAT      O57079   1.469   0.055   1.139
18946WAT     H157080   1.538  -0.011   1.168
18946WAT     H257081   1.503   0.107   1.061
18947WAT      O57082   4.102   7.020   0.501
18947WAT     H157083   4.201   7.034   0.498
18947WAT     H257084   4.070   6.982   0.414
18948WAT      O57085   7.610   4.877   0.886
18948WAT     H157086   7.559   4.792   0.903
18948WAT     H257087   7.588   4.910   0.794
18949WAT      O57088   4.034   9.291   9.194
18949WAT     H157089   4.015   9.340   9.109
18949WAT     H257090   3.952   9.290   9.251
18950WAT      O57091   3.637   0.129   1.421
18950WAT     H157092   3.639   0.055   1.488
18950WAT     H257093   3.580   0.103   1.343
18951WAT      O57094   9.513   3.365   0.842
18951WAT     H157095   9.456   3.320   0.774
18951WAT     H257096   9.570   3.435   0.798
18952WAT      O57097   6.279   0.283   6.566
18952WAT     H157098   6.355   0.240   6.615
18952WAT     H257099   6.207   0.216   6.550
18953WAT      O57100   8.426   7.894   0.835
18953WAT     H157101   8.462   7.806   0.868
18953WAT     H257102   8.500   7.947   0.796
18954WAT      O57103   1.958   5.654   9.227
18954WAT     H157104   2.023   5.580   9.209
18954WAT     H257105   1.999   5.742   9.202
18955WAT      O57106   2.044   7.434   4.588
18955WAT     H157107   2.010   7.341   4.603
18955WAT     H257108   2.140   7.431   4.562
18956WAT      O57109   7.395   2.729   9.370
18956WAT     H157110   7.480   2.781   9.381
18956WAT     H257111   7.358   2.745   9.278
18957WAT      O57112   6.957   9.500   4.161
18957WAT     H157113   6.963   9.546   4.250
18957WAT     H257114   7.049   9.472   4.132
18958WAT      O57115   3.906   5.686   0.523
18958WAT     H157116   3.945   5.608   0.475
18958WAT     H257117   3.977   5.731   0.577
18959WAT      O57118   8.539   8.818   1.169
18959WAT     H157119   8.496   8.732   1.143
18959WAT     H257120   8.550   8.821   1.269
18960WAT      O57121   1.213   7.661   9.613
18960WAT     H157122   1.259   7.615   9.537
18960WAT     H257123   1.159   7.738   9.578
18961WAT      O57124   8.034   0.004   3.703
18961WAT     H157125   8.006  -0.081   3.659
18961WAT     H257126   8.022   0.080   3.639
18962WAT      O57127   8.802   6.811   6.096
18962WAT     H157128   8.803   6.711   6.095
18962WAT     H257129   8.714   6.843   6.061
18963WAT      O57130   5.508   8.753   1.200
18963WAT     H157131   5.416   8.735   1.165
18963WAT     H257132   5.523   8.852   1.203
18964WAT      O57133   3.718   7.663   4.643
18964WAT     H157134   3.720   7.568   4.672
18964WAT     H257135   3.724   7.723   4.723
18965WAT      O57136   2.650   8.621   1.872
18965WAT     H157137   2.564   8.590   1.833
18965WAT     H257138   2.718   8.547   1.866
18966WAT      O57139   7.996   4.221   4.114
18966WAT     H157140   8.045   4.212   4.028
18966WAT     H257141   7.904   4.184   4.104
18967WAT      O57142   0.942   6.660   8.999
18967WAT     H157143   0.865   6.709   8.958
18967WAT     H257144   1.017   6.654   8.932
18968WAT      O57145   7.879   3.170   6.714
18968WAT     H157146   7.863   3.169   6.615
18968WAT     H257147   7.834   3.091   6.756
18969WAT      O57148   5.254   5.866   7.653
18969WAT     H157149   5.239   5.778   7.608
18969WAT     H257150   5.320   5.854   7.727
18970WAT      O57151   4.283   1.878   8.153
18970WAT     H157152   4.206   1.846   8.207
18970WAT     H257153   4.360   1.815   8.164
18971WAT      O57154   2.597   0.872   3.365
18971WAT     H157155   2.656   0.935   3.415
18971WAT     H257156   2.568   0.914   3.279
18972WAT      O57157   2.908   9.531   6.457
18972WAT     H157158   2.896   9.478   6.374
18972WAT     H257159   2.997   9.576   6.456
18973WAT      O57160   6.994   1.579   7.462
18973WAT     H157161   6.988   1.563   7.363
18973WAT     H257162   7.076   1.535   7.498
18974WAT      O57163   4.525   9.145   1.233
18974WAT     H157164   4.587   9.193   1.172
18974WAT     H257165   4.522   9.191   1.322
18975WAT      O57166   3.952   3.421   0.086
18975WAT     H157167   3.940   3.505   0.137
18975WAT     H257168   4.044   3.417   0.047
18976WAT      O57169   7.516   0.693   9.165
18976WAT     H157170   7.422   0.685   9.199
18976WAT     H257171   7.580   0.689   9.242
18977WAT      O57172   0.378   6.306   5.126
18977WAT     H157173   0.367   6.260   5.037
18977WAT     H257174   0.448   6.259   5.179
18978WAT      O57175   1.540   1.809   1.866
18978WAT     H157176   1.534   1.854   1.777
18978WAT     H257177   1.529   1.710   1.855
18979WAT      O57178   0.609   0.187   4.604
18979WAT     H157179   0.577   0.093   4.610
18979WAT     H257180   0.554   0.245   4.664
18980WAT      O57181   6.807   7.598   3.736
18980WAT     H157182   6.815   7.635   3.829
18980WAT     H257183   6.727   7.538   3.731
18981WAT      O57184   3.473   1.988   6.379
18981WAT     H157185   3.454   1.914   6.314
18981WAT     H257186   3.459   1.955   6.472
18982WAT      O57187   6.535   1.538   8.426
18982WAT     H157188   6.545   1.520   8.329
18982WAT     H257189   6.532   1.637   8.441
18983WAT      O57190   7.110   2.504   7.100
18983WAT     H157191   7.157   2.590   7.084
18983WAT     H257192   7.146   2.434   7.037
18984WAT      O57193   4.798   3.381   9.390
18984WAT     H157194   4.888   3.406   9.356
18984WAT     H257195   4.728   3.426   9.335
18985WAT      O57196   9.597   4.746   2.609
18985WAT     H157197   9.623   4.807   2.534
18985WAT     H257198   9.605   4.795   2.696
18986WAT      O57199   2.182   5.818   0.935
18986WAT     H157200   2.196   5.722   0.908
18986WAT     H257201   2.094   5.826   0.982
18987WAT      O57202   4.012   7.611   2.474
18987WAT     H157203   3.935   7.562   2.433
18987WAT     H257204   3.986   7.707   2.489
18988WAT      O57205   1.581   4.249   8.116
18988WAT     H157206   1.589   4.247   8.016
18988WAT     H257207   1.557   4.342   8.146
18989WAT      O57208   4.972   4.672   0.754
18989WAT     H157209   4.883   4.650   0.794
18989WAT     H257210   4.961   4.696   0.658
18990WAT      O57211   7.978   9.627   5.881
18990WAT     H157212   7.933   9.605   5.967
18990WAT     H257213   7.950   9.719   5.851
18991WAT      O57214   4.234   6.701   7.304
18991WAT     H157215   4.229   6.741   7.395
18991WAT     H257216   4.151   6.724   7.253
18992WAT      O57217   3.695   8.817   8.905
18992WAT     H157218   3.641   8.826   8.821
18992WAT     H257219   3.780   8.768   8.884
18993WAT      O57220   4.398   8.132   5.554
18993WAT     H157221   4.326   8.168   5.495
18993WAT     H257222   4.443   8.208   5.601
18994WAT      O57223   3.467   8.215   4.579
18994WAT     H157224   3.469   8.225   4.480
18994WAT     H257225   3.420   8.130   4.603
18995WAT      O57226   3.470   8.831   1.317
18995WAT     H157227   3.529   8.751   1.304
18995WAT     H257228   3.499   8.880   1.400
18996WAT      O57229   0.149   0.677   7.667
18996WAT     H157230   0.078   0.660   7.735
18996WAT     H257231   0.200   0.760   7.691
18997WAT      O57232   8.764   2.895   7.689
18997WAT     H157233   8.709   2.920   7.609
18997WAT     H257234   8.766   2.795   7.698
18998WAT      O57235   5.678   1.001   3.669
18998WAT     H157236   5.687   0.906   3.640
18998WAT     H257237   5.695   1.007   3.768
18999WAT      O57238   1.048   1.545   4.039
18999WAT     H157239   1.003   1.588   3.961
18999WAT     H257240   1.115   1.478   4.006
19000WAT      O57241   0.747   1.829   1.518
19000WAT     H157242   0.752   1.858   1.613
19000WAT     H257243   0.687   1.890   1.467
19001WAT      O57244   7.998   1.589   3.707
19001WAT     H157245   8.052   1.551   3.632
19001WAT     H257246   7.940   1.518   3.747
19002WAT      O57247   8.364   7.162   9.532
19002WAT     H157248   8.348   7.063   9.530
19002WAT     H257249   8.396   7.188   9.623
19003WAT      O57250   2.898   2.298   8.756
19003WAT     H157251   2.907   2.198   8.754
19003WAT     H257252   2.803   2.322   8.780
19004WAT      O57253   7.332   2.926   3.352
19004WAT     H157254   7.366   3.020   3.345
19004WAT     H257255   7.335   2.897   3.447
19005WAT      O57256   8.570   3.490   6.206
19005WAT     H157257   8.503   3.454   6.140
19005WAT     H257258   8.650   3.430   6.207
19006WAT      O57259   9.696   7.757   7.167
19006WAT     H157260   9.713   7.713   7.255
19006WAT     H257261   9.774   7.742   7.106
19007WAT      O57262   8.451   3.811   8.477
19007WAT     H157263   8.360   3.842   8.448
19007WAT     H257264   8.456   3.812   8.577
19008WAT      O57265   7.061   7.964   7.789
19008WAT     H157266   7.135   7.959   7.857
19008WAT     H257267   7.094   7.929   7.702
19009WAT      O57268   4.068   9.635   6.368
19009WAT     H157269   4.128   9.656   6.291
19009WAT     H257270   4.061   9.536   6.380
19010WAT      O57271   1.998   5.507   6.406
19010WAT     H157272   1.966   5.543   6.319
19010WAT     H257273   2.096   5.489   6.401
19011WAT      O57274   7.076   8.786   6.653
19011WAT     H157275   7.115   8.801   6.744
19011WAT     H257276   7.124   8.843   6.587
19012WAT      O57277   9.422   9.039   9.424
19012WAT     H157278   9.505   9.092   9.409
19012WAT     H257279   9.347   9.101   9.447
19013WAT      O57280   6.147   8.132   5.475
19013WAT     H157281   6.155   8.036   5.448
19013WAT     H257282   6.060   8.169   5.441
19014WAT      O57283   2.088   8.368   8.259
19014WAT     H157284   2.183   8.398   8.252
19014WAT     H257285   2.073   8.322   8.346
19015WAT      O57286   9.084   8.678   9.886
19015WAT     H157287   9.112   8.632   9.971
19015WAT     H257288   8.986   8.666   9.872
19016WAT      O57289   7.783   1.066   2.663
19016WAT     H157290   7.702   1.036   2.713
19016WAT     H257291   7.798   1.163   2.680
19017WAT      O57292   5.427   6.675   3.132
19017WAT     H157293   5.330   6.661   3.150
19017WAT     H257294   5.442   6.681   3.033
19018WAT      O57295   1.453   4.962   1.138
19018WAT     H157296   1.374   4.900   1.147
19018WAT     H257297   1.432   5.048   1.184
19019WAT      O57298   9.157   8.025   8.499
19019WAT     H157299   9.215   8.106   8.499
19019WAT     H257300   9.126   8.006   8.592
19020WAT      O57301   3.419   0.072   6.450
19020WAT     H157302   3.452   0.043   6.540
19020WAT     H257303   3.336   0.127   6.461
19021WAT      O57304   3.754   5.642   0.148
19021WAT     H157305   3.748   5.545   0.172
19021WAT     H257306   3.719   5.655   0.055
19022WAT      O57307   1.765   7.849   9.241
19022WAT     H157308   1.690   7.829   9.303
19022WAT     H257309   1.754   7.795   9.157
19023WAT      O57310   4.326   8.916   4.053
19023WAT     H157311   4.419   8.880   4.042
19023WAT     H257312   4.280   8.866   4.126
19024WAT      O57313   3.452   6.785   2.300
19024WAT     H157314   3.378   6.754   2.239
19024WAT     H257315   3.474   6.712   2.365
19025WAT      O57316   2.225   5.542   3.904
19025WAT     H157317   2.225   5.636   3.871
19025WAT     H257318   2.206   5.540   4.002
19026WAT      O57319   0.081   2.287   8.246
19026WAT     H157320   0.062   2.302   8.149
19026WAT     H257321   0.127   2.368   8.283
19027WAT      O57322   2.210   8.275   1.677
19027WAT     H157323   2.285   8.220   1.715
19027WAT     H257324   2.212   8.270   1.578
19028WAT      O57325   7.936   2.336   0.297
19028WAT     H157326   7.891   2.425   0.306
19028WAT     H257327   8.009   2.343   0.229
19029WAT      O57328   7.308   5.975   6.652
19029WAT     H157329   7.258   6.025   6.723
19029WAT     H257330   7.253   5.898   6.620
19030WAT      O57331   3.820   4.424   2.008
19030WAT     H157332   3.797   4.355   1.939
19030WAT     H257333   3.784   4.513   1.979
19031WAT      O57334   9.686   6.805   7.204
19031WAT     H157335   9.750   6.834   7.132
19031WAT     H257336   9.736   6.756   7.275
19032WAT      O57337   8.945   4.159   7.578
19032WAT     H157338   8.952   4.163   7.479
19032WAT     H257339   9.031   4.125   7.616
19033WAT      O57340   6.923   8.068   6.614
19033WAT     H157341   6.891   8.011   6.690
19033WAT     H257342   6.874   8.043   6.531
19034WAT      O57343   7.434   1.738   9.770
19034WAT     H157344   7.521   1.728   9.724
19034WAT     H257345   7.429   1.675   9.848
19035WAT      O57346   4.158   2.482   8.010
19035WAT     H157347   4.193   2.394   7.978
19035WAT     H257348   4.165   2.549   7.936
19036WAT      O57349   8.124   6.807   0.577
19036WAT     H157350   8.101   6.892   0.529
19036WAT     H257351   8.131   6.826   0.675
19037WAT      O57352   5.283   4.563   5.354
19037WAT     H157353   5.318   4.647   5.312
19037WAT     H257354   5.187   4.551   5.329
19038WAT      O57355   4.644   6.170   3.207
19038WAT     H157356   4.735   6.202   3.181
19038WAT     H257357   4.588   6.161   3.125
19039WAT      O57358   1.892   3.018   5.387
19039WAT     H157359   1.856   3.107   5.415
19039WAT     H257360   1.978   3.000   5.433
19040WAT      O57361   8.015   9.705   4.716
19040WAT     H157362   8.016   9.724   4.618
19040WAT     H257363   7.980   9.612   4.732
19041WAT      O57364   0.338   2.155   0.517
19041WAT     H157365   0.261   2.158   0.453
19041WAT     H257366   0.337   2.067   0.566
19042WAT      O57367   7.583   4.888   8.309
19042WAT     H157368   7.682   4.901   8.318
19042WAT     H257369   7.564   4.821   8.237
19043WAT      O57370   7.416   3.437   5.150
19043WAT     H157371   7.474   3.490   5.211
19043WAT     H257372   7.386   3.354   5.196
19044WAT      O57373   7.194   6.222   0.334
19044WAT     H157374   7.201   6.255   0.240
19044WAT     H257375   7.240   6.286   0.395
19045WAT      O57376   6.220   9.606   2.367
19045WAT     H157377   6.310   9.623   2.407
19045WAT     H257378   6.198   9.678   2.302
19046WAT      O57379   0.018   0.194   8.979
19046WAT     H157380   0.096   0.194   8.917
19046WAT     H257381   0.050   0.177   9.073
19047WAT      O57382   6.246   7.384   8.936
19047WAT     H157383   6.191   7.410   9.015
19047WAT     H257384   6.237   7.285   8.920
19048WAT      O57385   6.888   4.792   4.834
19048WAT     H157386   6.821   4.792   4.760
19048WAT     H257387   6.904   4.886   4.863
19049WAT      O57388   3.816   6.701   2.776
19049WAT     H157389   3.722   6.731   2.794
19049WAT     H257390   3.816   6.606   2.747
19050WAT      O57391   5.286   6.794   9.244
19050WAT     H157392   5.289   6.695   9.227
19050WAT     H257393   5.287   6.842   9.156
19051WAT      O57394   1.971   7.043   7.639
19051WAT     H157395   1.967   7.089   7.728
19051WAT     H257396   1.918   7.096   7.572
19052WAT      O57397   3.930   8.473   9.282
19052WAT     H157398   3.998   8.477   9.209
19052WAT     H257399   3.866   8.549   9.272
19053WAT      O57400   9.508   8.488   8.491
19053WAT     H157401   9.500   8.461   8.395
19053WAT     H257402   9.546   8.412   8.544
19054WAT      O57403   7.673   5.990   3.967
19054WAT     H157404   7.723   5.964   3.884
19054WAT     H257405   7.736   6.036   4.031
19055WAT      O57406   6.213   9.309   8.778
19055WAT     H157407   6.184   9.221   8.741
19055WAT     H257408   6.309   9.303   8.806
19056WAT      O57409   2.530   1.139   6.031
19056WAT     H157410   2.507   1.219   5.975
19056WAT     H257411   2.594   1.081   5.980
19057WAT      O57412   3.659   1.552   4.854
19057WAT     H157413   3.636   1.642   4.892
19057WAT     H257414   3.757   1.546   4.839
19058WAT      O57415   6.893   0.719   5.671
19058WAT     H157416   6.952   0.800   5.667
19058WAT     H257417   6.871   0.689   5.578
19059WAT      O57418   5.987   9.012   4.640
19059WAT     H157419   6.025   9.034   4.550
19059WAT     H257420   5.935   9.089   4.675
19060WAT      O57421   0.100   0.110   5.619
19060WAT     H157422   0.140   0.049   5.688
19060WAT     H257423   0.074   0.196   5.661
19061WAT      O57424   6.378   2.379   0.172
19061WAT     H157425   6.461   2.338   0.135
19061WAT     H257426   6.384   2.478   0.166
19062WAT      O57427   5.416   0.252   7.740
19062WAT     H157428   5.392   0.331   7.684
19062WAT     H257429   5.393   0.168   7.691
19063WAT      O57430   2.060   9.249   9.120
19063WAT     H157431   2.027   9.213   9.032
19063WAT     H257432   2.137   9.194   9.152
19064WAT      O57433   8.875   7.798   0.824
19064WAT     H157434   8.931   7.716   0.835
19064WAT     H257435   8.798   7.778   0.763
19065WAT      O57436   5.390   8.216   8.498
19065WAT     H157437   5.380   8.135   8.440
19065WAT     H257438   5.402   8.297   8.441
19066WAT      O57439   3.228   9.229   4.882
19066WAT     H157440   3.298   9.279   4.831
19066WAT     H257441   3.238   9.131   4.865
19067WAT      O57442   7.480   5.071   3.254
19067WAT     H157443   7.520   5.060   3.345
19067WAT     H257444   7.522   5.006   3.191
19068WAT      O57445   7.473   3.658   0.787
19068WAT     H157446   7.455   3.565   0.754
19068WAT     H257447   7.508   3.653   0.881
19069WAT      O57448   2.074   5.325   2.046
19069WAT     H157449   2.070   5.245   1.985
19069WAT     H257450   2.169   5.346   2.067
19070WAT      O57451   3.957   6.400   9.637
19070WAT     H157452   3.908   6.423   9.721
19070WAT     H257453   3.898   6.345   9.578
19071WAT      O57454   9.407   4.205   2.839
19071WAT     H157455   9.492   4.258   2.834
19071WAT     H257456   9.428   4.109   2.823
19072WAT      O57457   8.808   4.330   4.633
19072WAT     H157458   8.827   4.234   4.655
19072WAT     H257459   8.794   4.381   4.718
19073WAT      O57460   4.200   3.441   0.711
19073WAT     H157461   4.190   3.373   0.783
19073WAT     H257462   4.180   3.399   0.623
19074WAT      O57463   2.067   9.612   0.111
19074WAT     H157464   2.109   9.540   0.056
19074WAT     H257465   2.082   9.593   0.208
19075WAT      O57466   4.735   9.325   8.925
19075WAT     H157467   4.709   9.262   8.852
19075WAT     H257468   4.782   9.405   8.885
19076WAT      O57469   6.694   1.882   9.819
19076WAT     H157470   6.716   1.790   9.787
19076WAT     H257471   6.650   1.933   9.745
19077WAT      O57472   8.440   3.403   2.806
19077WAT     H157473   8.466   3.482   2.861
19077WAT     H257474   8.412   3.328   2.866
19078WAT      O57475   5.995   3.062   5.584
19078WAT     H157476   5.965   3.153   5.554
19078WAT     H257477   6.093   3.065   5.603
19079WAT      O57478   7.792   6.700   7.435
19079WAT     H157479   7.766   6.609   7.469
19079WAT     H257480   7.853   6.689   7.356
19080WAT      O57481   2.700   9.316   5.343
19080WAT     H157482   2.767   9.365   5.287
19080WAT     H257483   2.625   9.284   5.286
19081WAT      O57484   8.589   8.643   2.023
19081WAT     H157485   8.569   8.563   1.966
19081WAT     H257486   8.565   8.726   1.974
19082WAT      O57487   9.360   8.682   2.870
19082WAT     H157488   9.276   8.638   2.840
19082WAT     H257489   9.342   8.738   2.951
19083WAT      O57490   5.877   2.619   0.791
19083WAT     H157491   5.845   2.603   0.885
19083WAT     H257492   5.960   2.675   0.794
19084WAT      O57493   3.365   3.247   7.702
19084WAT     H157494   3.299   3.217   7.632
19084WAT     H257495   3.347   3.199   7.788
19085WAT      O57496   7.717   0.491   1.205
19085WAT     H157497   7.711   0.565   1.272
19085WAT     H257498   7.781   0.516   1.132
19086WAT      O57499   5.328   1.114   5.884
19086WAT     H157500   5.286   1.144   5.970
19086WAT     H257501   5.273   1.042   5.843
19087WAT      O57502   1.600   7.849   9.475
19087WAT     H157503   1.673   7.913   9.498
19087WAT     H257504   1.512   7.896   9.476
19088WAT      O57505   1.333   6.693   3.559
19088WAT     H157506   1.285   6.622   3.507
19088WAT     H257507   1.266   6.748   3.610
19089WAT      O57508   5.602   5.877   4.837
19089WAT     H157509   5.514   5.897   4.881
19089WAT     H257510   5.668   5.949   4.860
19090WAT      O57511   6.461   3.780   3.641
19090WAT     H157512   6.419   3.700   3.598
19090WAT     H257513   6.455   3.770   3.741
19091WAT      O57514   3.242   8.587   3.683
19091WAT     H157515   3.277   8.540   3.602
19091WAT     H257516   3.311   8.585   3.755
19092WAT      O57517   3.547   2.210   2.349
19092WAT     H157518   3.628   2.248   2.395
19092WAT     H257519   3.474   2.196   2.416
19093WAT      O57520   0.774   4.734   6.828
19093WAT     H157521   0.700   4.791   6.863
19093WAT     H257522   0.750   4.638   6.839
19094WAT      O57523   3.855   0.484   2.178
19094WAT     H157524   3.949   0.458   2.201
19094WAT     H257525   3.849   0.501   2.080
19095WAT      O57526   4.112   5.476   9.240
19095WAT     H157527   4.096   5.548   9.308
19095WAT     H257528   4.056   5.396   9.262
19096WAT      O57529   4.816   2.494   0.920
19096WAT     H157530   4.774   2.584   0.910
19096WAT     H257531   4.762   2.439   0.984
19097WAT      O57532   5.590   0.172   4.941
19097WAT     H157533   5.548   0.209   5.024
19097WAT     H257534   5.690   0.169   4.953
19098WAT      O57535   0.735   9.501   3.693
19098WAT     H157536   0.728   9.435   3.768
19098WAT     H257537   0.762   9.454   3.609
19099WAT      O57538   7.540   3.866   0.618
19099WAT     H157539   7.557   3.828   0.527
19099WAT     H257540   7.528   3.791   0.683
19100WAT      O57541   5.502   0.421   3.256
19100WAT     H157542   5.582   0.442   3.200
19100WAT     H257543   5.474   0.327   3.240
19101WAT      O57544   4.620   8.749   0.158
19101WAT     H157545   4.676   8.734   0.240
19101WAT     H257546   4.584   8.842   0.159
19102WAT      O57547   9.319   8.044   1.493
19102WAT     H157548   9.277   8.040   1.403
19102WAT     H257549   9.250   8.068   1.561
19103WAT      O57550   7.734   6.096   2.319
19103WAT     H157551   7.695   6.014   2.360
19103WAT     H257552   7.676   6.175   2.340
19104WAT      O57553   7.363   1.222   8.733
19104WAT     H157554   7.384   1.172   8.649
19104WAT     H257555   7.442   1.278   8.758
19105WAT      O57556   4.343   7.710   2.058
19105WAT     H157557   4.388   7.728   1.970
19105WAT     H257558   4.244   7.713   2.045
19106WAT      O57559   6.202   9.142   9.064
19106WAT     H157560   6.215   9.215   8.997
19106WAT     H257561   6.151   9.067   9.022
19107WAT      O57562   7.917   4.230   0.377
19107WAT     H157563   7.955   4.263   0.464
19107WAT     H257564   7.824   4.197   0.392
19108WAT      O57565   6.422   6.390   2.710
19108WAT     H157566   6.387   6.438   2.790
19108WAT     H257567   6.415   6.291   2.725
19109WAT      O57568   1.974   1.731   1.459
19109WAT     H157569   1.958   1.648   1.405
19109WAT     H257570   1.997   1.706   1.553
19110WAT      O57571   1.019   7.665   9.332
19110WAT     H157572   1.066   7.708   9.255
19110WAT     H257573   1.041   7.567   9.333
19111WAT      O57574   9.257   7.500   4.167
19111WAT     H157575   9.229   7.583   4.119
19111WAT     H257576   9.179   7.439   4.177
19112WAT      O57577   7.725   8.023   8.817
19112WAT     H157578   7.672   7.966   8.881
19112WAT     H257579   7.816   7.984   8.805
19113WAT      O57580   1.345   1.547   1.545
19113WAT     H157581   1.345   1.645   1.526
19113WAT     H257582   1.282   1.501   1.483
19114WAT      O57583   0.116   4.427   3.049
19114WAT     H157584   0.072   4.385   2.970
19114WAT     H257585   0.194   4.371   3.078
19115WAT      O57586   3.752   4.371   3.657
19115WAT     H157587   3.672   4.404   3.707
19115WAT     H257588   3.835   4.393   3.708
19116WAT      O57589   9.395   4.000   2.383
19116WAT     H157590   9.398   3.903   2.409
19116WAT     H257591   9.403   4.008   2.284
19117WAT      O57592   4.041   7.586   9.041
19117WAT     H157593   4.099   7.524   8.988
19117WAT     H257594   3.955   7.540   9.065
19118WAT      O57595   6.025   4.584   6.405
19118WAT     H157596   5.966   4.523   6.459
19118WAT     H257597   6.023   4.675   6.445
19119WAT      O57598   7.424   5.350   4.113
19119WAT     H157599   7.494   5.326   4.046
19119WAT     H257600   7.364   5.421   4.075
19120WAT      O57601   6.486   9.024   4.666
19120WAT     H157602   6.583   9.019   4.688
19120WAT     H257603   6.441   8.939   4.695
19121WAT      O57604   8.644   9.197   4.320
19121WAT     H157605   8.573   9.200   4.249
19121WAT     H257606   8.728   9.160   4.280
19122WAT      O57607   8.746   3.275   0.016
19122WAT     H157608   8.753   3.360  -0.037
19122WAT     H257609   8.823   3.216  -0.007
19123WAT      O57610   6.323   4.512   3.878
19123WAT     H157611   6.398   4.578   3.882
19123WAT     H257612   6.328   4.451   3.957
19124WAT      O57613   1.020   9.048   9.477
19124WAT     H157614   1.013   9.019   9.382
19124WAT     H257615   1.048   9.144   9.482
19125WAT      O57616   5.466   0.430   5.996
19125WAT     H157617   5.446   0.346   6.046
19125WAT     H257618   5.405   0.503   6.027
19126WAT      O57619   2.795   8.125   1.893
19126WAT     H157620   2.857   8.075   1.954
19126WAT     H257621   2.718   8.067   1.868
19127WAT      O57622   7.781   8.827   4.253
19127WAT     H157623   7.781   8.885   4.335
19127WAT     H257624   7.847   8.753   4.265
19128WAT      O57625   2.352   5.273   8.453
19128WAT     H157626   2.394   5.347   8.401
19128WAT     H257627   2.285   5.225   8.396
19129WAT      O57628   2.838   5.877   2.358
19129WAT     H157629   2.880   5.820   2.429
19129WAT     H257630   2.879   5.968   2.360
19130WAT      O57631   6.935   2.813   8.908
19130WAT     H157632   6.852   2.802   8.853
19130WAT     H257633   6.932   2.900   8.956
19131WAT      O57634   4.968   8.082   9.112
19131WAT     H157635   4.919   8.054   9.029
19131WAT     H257636   4.957   8.180   9.125
19132WAT      O57637   0.335   0.157   1.677
19132WAT     H157638   0.293   0.218   1.745
19132WAT     H257639   0.435   0.166   1.682
19133WAT      O57640   3.028   1.404   1.510
19133WAT     H157641   3.067   1.495   1.523
19133WAT     H257642   2.954   1.389   1.575
19134WAT      O57643   1.157   3.512   6.458
19134WAT     H157644   1.238   3.565   6.481
19134WAT     H257645   1.078   3.549   6.508
19135WAT      O57646   8.234   0.999   6.083
19135WAT     H157647   8.273   0.985   6.174
19135WAT     H257648   8.211   0.911   6.043
19136WAT      O57649   2.215   3.350   3.347
19136WAT     H157650   2.314   3.343   3.330
19136WAT     H257651   2.200   3.387   3.439
19137WAT      O57652   3.776   7.060   6.500
19137WAT     H157653   3.844   7.123   6.464
19137WAT     H257654   3.687   7.105   6.504
19138WAT      O57655   1.178   4.538   0.810
19138WAT     H157656   1.241   4.552   0.887
19138WAT     H257657   1.219   4.474   0.745
19139WAT      O57658   8.726   3.167   8.895
19139WAT     H157659   8.702   3.214   8.810
19139WAT     H257660   8.792   3.095   8.875
19140WAT      O57661   2.930   9.841   2.704
19140WAT     H157662   2.924   9.750   2.664
19140WAT     H257663   2.844   9.863   2.750
19141WAT      O57664   5.382   4.129   9.141
19141WAT     H157665   5.331   4.093   9.219
19141WAT     H257666   5.322   4.132   9.061
19142WAT      O57667   2.419   9.425   4.859
19142WAT     H157668   2.471   9.482   4.923
19142WAT     H257669   2.481   9.360   4.814
19143WAT      O57670   5.521   5.612   5.334
19143WAT     H157671   5.499   5.655   5.247
19143WAT     H257672   5.535   5.514   5.320
19144WAT      O57673   4.378   8.677   3.509
19144WAT     H157674   4.382   8.658   3.411
19144WAT     H257675   4.393   8.593   3.560
19145WAT      O57676   7.971   3.447   9.254
19145WAT     H157677   8.051   3.491   9.212
19145WAT     H257678   7.921   3.514   9.309
19146WAT      O57679   1.029   9.347   1.220
19146WAT     H157680   0.951   9.404   1.246
19146WAT     H257681   0.999   9.280   1.151
19147WAT      O57682   9.460   0.780   8.664
19147WAT     H157683   9.390   0.723   8.621
19147WAT     H257684   9.418   0.863   8.700
19148WAT      O57685   0.648   1.503   4.491
19148WAT     H157686   0.676   1.597   4.469
19148WAT     H257687   0.551   1.491   4.470
19149WAT      O57688   4.760   2.403   3.800
19149WAT     H157689   4.781   2.314   3.840
19149WAT     H257690   4.749   2.393   3.701
19150WAT      O57691   0.010   1.001   5.101
19150WAT     H157692   0.094   0.956   5.131
19150WAT     H257693  -0.051   1.015   5.179
19151WAT      O57694   6.457   4.026   4.366
19151WAT     H157695   6.530   3.973   4.323
19151WAT     H257696   6.378   3.967   4.383
19152WAT      O57697   9.486   4.892   5.235
19152WAT     H157698   9.440   4.920   5.319
19152WAT     H257699   9.454   4.801   5.209
19153WAT      O57700   7.665   9.757   2.566
19153WAT     H157701   7.738   9.816   2.601
19153WAT     H257702   7.613   9.719   2.642
19154WAT      O57703   8.166   8.918   9.021
19154WAT     H157704   8.216   8.969   8.951
19154WAT     H257705   8.204   8.939   9.111
19155WAT      O57706   4.029   5.854   7.566
19155WAT     H157707   4.050   5.945   7.532
19155WAT     H257708   4.114   5.806   7.589
19156WAT      O57709   4.956   0.008   1.797
19156WAT     H157710   4.942   0.000   1.896
19156WAT     H257711   5.024  -0.059   1.768
19157WAT      O57712   3.808   8.332   5.848
19157WAT     H157713   3.905   8.345   5.827
19157WAT     H257714   3.791   8.236   5.870
19158WAT      O57715   4.371   9.352   7.051
19158WAT     H157716   4.435   9.301   7.108
19158WAT     H257717   4.296   9.292   7.023
19159WAT      O57718   5.804   8.901   1.308
19159WAT     H157719   5.841   8.839   1.240
19159WAT     H257720   5.729   8.955   1.268
19160WAT      O57721   2.056   4.569   2.931
19160WAT     H157722   2.016   4.646   2.882
19160WAT     H257723   2.035   4.484   2.883
19161WAT      O57724   6.676   2.679   7.058
19161WAT     H157725   6.758   2.685   7.114
19161WAT     H257726   6.609   2.746   7.091
19162WAT      O57727   6.889   7.453   2.232
19162WAT     H157728   6.856   7.468   2.139
19162WAT     H257729   6.887   7.355   2.253
19163WAT      O57730   4.126   5.960   3.125
19163WAT     H157731   4.121   5.955   3.025
19163WAT     H257732   4.190   6.032   3.151
19164WAT      O57733   1.185   2.387   1.093
19164WAT     H157734   1.265   2.409   1.149
19164WAT     H257735   1.172   2.288   1.091
19165WAT      O57736   8.004   6.445   4.916
19165WAT     H157737   8.088   6.495   4.896
19165WAT     H257738   7.925   6.503   4.899
19166WAT      O57739   8.484   1.006   8.665
19166WAT     H157740   8.520   1.043   8.579
19166WAT     H257741   8.406   1.060   8.694
19167WAT      O57742   7.376   3.781   6.779
19167WAT     H157743   7.309   3.711   6.806
19167WAT     H257744   7.329   3.866   6.756
19168WAT      O57745   5.009   6.238   8.578
19168WAT     H157746   5.011   6.149   8.624
19168WAT     H257747   5.071   6.237   8.500
19169WAT      O57748   7.732   6.769   8.999
19169WAT     H157749   7.707   6.793   8.906
19169WAT     H257750   7.818   6.717   8.999
19170WAT      O57751   4.810   8.896   5.728
19170WAT     H157752   4.756   8.840   5.791
19170WAT     H257753   4.753   8.923   5.650
19171WAT      O57754   9.481   1.715   4.634
19171WAT     H157755   9.460   1.628   4.679
19171WAT     H257756   9.397   1.754   4.597
19172WAT      O57757   4.037   8.550   7.835
19172WAT     H157758   3.994   8.588   7.753
19172WAT     H257759   3.966   8.514   7.896
19173WAT      O57760   2.528   3.154   5.959
19173WAT     H157761   2.535   3.228   6.026
19173WAT     H257762   2.606   3.093   5.968
19174WAT      O57763   7.418   1.025   1.171
19174WAT     H157764   7.508   1.014   1.212
19174WAT     H257765   7.401   0.950   1.107
19175WAT      O57766   5.380   5.694   6.807
19175WAT     H157767   5.371   5.693   6.906
19175WAT     H257768   5.444   5.766   6.780
19176WAT      O57769   2.318   4.916   4.310
19176WAT     H157770   2.259   4.984   4.351
19176WAT     H257771   2.387   4.887   4.376
19177WAT      O57772   1.738   2.282   0.388
19177WAT     H157773   1.693   2.370   0.374
19177WAT     H257774   1.718   2.248   0.480
19178WAT      O57775   8.802   8.030   1.361
19178WAT     H157776   8.895   8.002   1.384
19178WAT     H257777   8.800   8.062   1.266
19179WAT      O57778   3.169   5.373   4.117
19179WAT     H157779   3.249   5.398   4.063
19179WAT     H257780   3.113   5.307   4.066
19180WAT      O57781   1.287   7.369   7.840
19180WAT     H157782   1.345   7.305   7.789
19180WAT     H257783   1.211   7.319   7.881
19181WAT      O57784   6.915   4.615   3.043
19181WAT     H157785   6.950   4.708   3.032
19181WAT     H257786   6.823   4.610   3.003
19182WAT      O57787   1.051   1.230   5.942
19182WAT     H157788   0.961   1.188   5.953
19182WAT     H257789   1.103   1.222   6.027
19183WAT      O57790   6.453   3.015   5.896
19183WAT     H157791   6.529   3.035   5.835
19183WAT     H257792   6.479   3.035   5.991
19184WAT      O57793   8.315   6.498   8.104
19184WAT     H157794   8.280   6.424   8.046
19184WAT     H257795   8.238   6.548   8.144
19185WAT      O57796   3.105   0.176   5.732
19185WAT     H157797   3.062   0.169   5.822
19185WAT     H257798   3.084   0.265   5.691
19186WAT      O57799   8.536   7.939   7.467
19186WAT     H157800   8.488   8.021   7.499
19186WAT     H257801   8.500   7.912   7.378
19187WAT      O57802   4.294   7.991   1.097
19187WAT     H157803   4.387   8.000   1.132
19187WAT     H257804   4.234   7.956   1.169
19188WAT      O57805   1.846   3.168   3.406
19188WAT     H157806   1.946   3.169   3.401
19188WAT     H257807   1.810   3.103   3.339
19189WAT      O57808   2.022   0.847   0.656
19189WAT     H157809   1.989   0.923   0.599
19189WAT     H257810   1.999   0.865   0.752
19190WAT      O57811   6.148   8.445   9.814
19190WAT     H157812   6.121   8.502   9.736
19190WAT     H257813   6.104   8.480   9.897
19191WAT      O57814   8.900   8.841   7.548
19191WAT     H157815   8.858   8.900   7.480
19191WAT     H257816   8.976   8.888   7.592
19192WAT      O57817   7.203   0.103   6.345
19192WAT     H157818   7.114   0.094   6.389
19192WAT     H257819   7.259   0.023   6.367
19193WAT      O57820   8.168   1.018   3.361
19193WAT     H157821   8.231   1.006   3.439
19193WAT     H257822   8.100   1.088   3.384
19194WAT      O57823   3.187   1.172   5.841
19194WAT     H157824   3.120   1.187   5.913
19194WAT     H257825   3.254   1.246   5.842
19195WAT      O57826   1.961   9.635   7.906
19195WAT     H157827   1.867   9.637   7.873
19195WAT     H257828   1.996   9.728   7.913
19196WAT      O57829   8.641   7.420   4.039
19196WAT     H157830   8.541   7.417   4.034
19196WAT     H257831   8.673   7.508   4.004
19197WAT      O57832   5.405   6.280   6.961
19197WAT     H157833   5.358   6.366   6.981
19197WAT     H257834   5.338   6.205   6.958
19198WAT      O57835   0.118   1.174   9.627
19198WAT     H157836   0.157   1.206   9.713
19198WAT     H257837   0.070   1.087   9.642
19199WAT      O57838   5.568   9.712   2.236
19199WAT     H157839   5.620   9.790   2.272
19199WAT     H257840   5.611   9.627   2.267
19200WAT      O57841   5.895   1.897   6.558
19200WAT     H157842   5.801   1.915   6.588
19200WAT     H257843   5.947   1.983   6.560
19201WAT      O57844   2.098   3.105   3.278
19201WAT     H157845   2.102   3.032   3.345
19201WAT     H257846   2.152   3.183   3.311
19202WAT      O57847   8.598   1.217   3.970
19202WAT     H157848   8.677   1.278   3.971
19202WAT     H257849   8.515   1.269   3.991
19203WAT      O57850   0.551   5.601   9.786
19203WAT     H157851   0.534   5.683   9.732
19203WAT     H257852   0.553   5.625   9.883
19204WAT      O57853   9.448   6.764   9.033
19204WAT     H157854   9.530   6.717   9.067
19204WAT     H257855   9.392   6.700   8.980
19205WAT      O57856   4.727   6.958   4.033
19205WAT     H157857   4.720   7.036   4.095
19205WAT     H257858   4.665   6.970   3.956
19206WAT      O57859   6.298   2.498   7.176
19206WAT     H157860   6.343   2.409   7.170
19206WAT     H257861   6.339   2.551   7.251
19207WAT      O57862   4.766   2.748   4.066
19207WAT     H157863   4.834   2.749   4.139
19207WAT     H257864   4.735   2.841   4.048
19208WAT      O57865   8.364   0.477   1.868
19208WAT     H157866   8.301   0.438   1.801
19208WAT     H257867   8.400   0.404   1.926
19209WAT      O57868   7.040   5.031   2.993
19209WAT     H157869   7.048   4.934   2.968
19209WAT     H257870   7.116   5.057   3.052
19210WAT      O57871   8.968   3.150   8.293
19210WAT     H157872   9.006   3.064   8.260
19210WAT     H257873   8.870   3.138   8.310
19211WAT      O57874   4.399   7.322   8.309
19211WAT     H157875   4.346   7.363   8.383
19211WAT     H257876   4.460   7.391   8.269
19212WAT      O57877   5.546   5.575   4.375
19212WAT     H157878   5.481   5.555   4.448
19212WAT     H257879   5.520   5.526   4.292
19213WAT      O57880   7.884   9.832   9.811
19213WAT     H157881   7.894   9.916   9.758
19213WAT     H257882   7.946   9.762   9.776
19214WAT      O57883   2.322   5.243   7.662
19214WAT     H157884   2.318   5.146   7.636
19214WAT     H257885   2.230   5.276   7.683
19215WAT      O57886   7.395   0.396   9.391
19215WAT     H157887   7.459   0.471   9.404
19215WAT     H257888   7.318   0.426   9.334
19216WAT      O57889   3.213   1.822   8.221
19216WAT     H157890   3.270   1.903   8.237
19216WAT     H257891   3.272   1.743   8.204
19217WAT      O57892   0.380   8.441   3.123
19217WAT     H157893   0.422   8.521   3.080
19217WAT     H257894   0.325   8.471   3.201
19218WAT      O57895   8.465   0.496   0.697
19218WAT     H157896   8.516   0.570   0.741
19218WAT     H257897   8.372   0.494   0.731
19219WAT      O57898   7.121   8.054   8.779
19219WAT     H157899   7.202   8.021   8.731
19219WAT     H257900   7.061   7.976   8.801
19220WAT      O57901   4.693   5.021   6.316
19220WAT     H157902   4.692   5.082   6.395
19220WAT     H257903   4.676   5.074   6.233
19221WAT      O57904   2.211   4.627   9.668
19221WAT     H157905   2.218   4.657   9.573
19221WAT     H257906   2.299   4.590   9.697
19222WAT      O57907   2.319   0.641   9.227
19222WAT     H157908   2.304   0.648   9.129
19222WAT     H257909   2.352   0.549   9.249
19223WAT      O57910   4.073   6.102   4.084
19223WAT     H157911   4.139   6.171   4.116
19223WAT     H257912   3.986   6.115   4.131
19224WAT      O57913   2.252   1.618   7.858
19224WAT     H157914   2.333   1.651   7.809
19224WAT     H257915   2.226   1.528   7.822
19225WAT      O57916   4.633   3.511   9.208
19225WAT     H157917   4.615   3.444   9.136
19225WAT     H257918   4.631   3.603   9.169
19226WAT      O57919   6.609   3.733   1.334
19226WAT     H157920   6.657   3.736   1.246
19226WAT     H257921   6.665   3.775   1.404
19227WAT      O57922   8.146   0.050   0.609
19227WAT     H157923   8.200   0.082   0.687
19227WAT     H257924   8.207   0.030   0.532
19228WAT      O57925   0.285   1.371   3.833
19228WAT     H157926   0.326   1.280   3.819
19228WAT     H257927   0.211   1.385   3.768
19229WAT      O57928   8.966   1.722   2.069
19229WAT     H157929   8.884   1.779   2.064
19229WAT     H257930   8.978   1.674   1.982
19230WAT      O57931   4.042   8.093   3.190
19230WAT     H157932   4.093   8.108   3.105
19230WAT     H257933   3.944   8.096   3.171
19231WAT      O57934   3.561   9.497   2.940
19231WAT     H157935   3.492   9.569   2.931
19231WAT     H257936   3.625   9.502   2.863
19232WAT      O57937   3.162   4.752   7.572
19232WAT     H157938   3.099   4.677   7.552
19232WAT     H257939   3.225   4.765   7.496
19233WAT      O57940   4.133   3.708   8.610
19233WAT     H157941   4.167   3.768   8.683
19233WAT     H257942   4.181   3.729   8.525
19234WAT      O57943   5.210   2.599   9.502
19234WAT     H157944   5.180   2.579   9.596
19234WAT     H257945   5.190   2.521   9.443
19235WAT      O57946   2.742   2.105   4.642
19235WAT     H157947   2.674   2.157   4.589
19235WAT     H257948   2.696   2.034   4.695
19236WAT      O57949   8.030   1.679   6.412
19236WAT     H157950   7.961   1.616   6.447
19236WAT     H257951   8.096   1.701   6.484
19237WAT      O57952   9.105   8.495   2.430
19237WAT     H157953   9.096   8.445   2.516
19237WAT     H257954   9.093   8.593   2.447
19238WAT      O57955   7.358   6.878   7.773
19238WAT     H157956   7.262   6.899   7.793
19238WAT     H257957   7.363   6.799   7.712
19239WAT      O57958   1.086   7.531   5.375
19239WAT     H157959   1.168   7.587   5.364
19239WAT     H257960   1.099   7.443   5.329
19240WAT      O57961   9.282   3.677   8.651
19240WAT     H157962   9.257   3.644   8.742
19240WAT     H257963   9.379   3.702   8.650
19241WAT      O57964   7.331   4.704   4.875
19241WAT     H157965   7.384   4.787   4.856
19241WAT     H257966   7.381   4.646   4.939
19242WAT      O57967   1.256   2.172   2.208
19242WAT     H157968   1.332   2.126   2.254
19242WAT     H257969   1.264   2.271   2.222
19243WAT      O57970   6.839   5.483   1.819
19243WAT     H157971   6.761   5.484   1.757
19243WAT     H257972   6.807   5.484   1.914
19244WAT      O57973   0.338   7.549   6.637
19244WAT     H157974   0.301   7.545   6.730
19244WAT     H257975   0.306   7.469   6.586
19245WAT      O57976   7.348   9.608   3.516
19245WAT     H157977   7.409   9.653   3.451
19245WAT     H257978   7.264   9.581   3.469
19246WAT      O57979   0.672   4.703   9.889
19246WAT     H157980   0.679   4.695   9.790
19246WAT     H257981   0.740   4.645   9.933
19247WAT      O57982   2.515   0.173   3.633
19247WAT     H157983   2.485   0.195   3.726
19247WAT     H257984   2.458   0.100   3.596
19248WAT      O57985   7.995   6.793   8.558
19248WAT     H157986   7.937   6.874   8.562
19248WAT     H257987   8.066   6.800   8.628
19249WAT      O57988   6.252   1.436   0.743
19249WAT     H157989   6.347   1.411   0.759
19249WAT     H257990   6.244   1.536   0.743
19250WAT      O57991   2.890   2.444   6.114
19250WAT     H157992   2.934   2.527   6.080
19250WAT     H257993   2.865   2.455   6.210
19251WAT      O57994   2.406   9.531   7.891
19251WAT     H157995   2.336   9.534   7.820
19251WAT     H257996   2.394   9.449   7.947
19252WAT      O57997   2.563   9.061   0.204
19252WAT     H157998   2.536   9.081   0.109
19252WAT     H257999   2.621   9.136   0.238
19253WAT      O58000   7.197   6.739   8.183
19253WAT     H158001   7.253   6.714   8.105
19253WAT     H258002   7.208   6.836   8.203
19254WAT      O58003   7.343   1.346   1.110
19254WAT     H158004   7.285   1.320   1.188
19254WAT     H258005   7.378   1.438   1.125
19255WAT      O58006   6.721   3.827   1.859
19255WAT     H158007   6.809   3.822   1.906
19255WAT     H258008   6.720   3.908   1.799
19256WAT      O58009   9.483   6.105   3.067
19256WAT     H158010   9.523   6.109   3.158
19256WAT     H258011   9.442   6.015   3.052
19257WAT      O58012   1.548   1.488   4.455
19257WAT     H158013   1.622   1.554   4.458
19257WAT     H258014   1.580   1.399   4.487
19258WAT      O58015   3.367   6.494   5.910
19258WAT     H158016   3.286   6.522   5.961
19258WAT     H258017   3.364   6.395   5.893
19259WAT      O58018   5.271   0.599   7.020
19259WAT     H158019   5.202   0.635   7.083
19259WAT     H258020   5.226   0.547   6.947
19260WAT      O58021   2.577   9.646   8.575
19260WAT     H158022   2.541   9.717   8.636
19260WAT     H258023   2.675   9.663   8.559
19261WAT      O58024   8.565   0.885   3.811
19261WAT     H158025   8.478   0.873   3.859
19261WAT     H258026   8.560   0.968   3.755
19262WAT      O58027   5.601   9.031   0.891
19262WAT     H158028   5.564   9.104   0.950
19262WAT     H258029   5.528   8.966   0.870
19263WAT      O58030   8.063   5.006   6.323
19263WAT     H158031   8.135   5.069   6.349
19263WAT     H258032   8.002   5.049   6.257
19264WAT      O58033   4.497   1.389   7.305
19264WAT     H158034   4.527   1.321   7.238
19264WAT     H258035   4.399   1.405   7.293
19265WAT      O58036   6.238   7.808   3.362
19265WAT     H158037   6.225   7.880   3.294
19265WAT     H258038   6.313   7.748   3.334
19266WAT      O58039   8.103   8.129   5.831
19266WAT     H158040   8.029   8.116   5.898
19266WAT     H258041   8.186   8.085   5.865
19267WAT      O58042   0.490   3.537   9.825
19267WAT     H158043   0.502   3.628   9.786
19267WAT     H258044   0.393   3.523   9.847
19268WAT      O58045   1.634   3.570   1.356
19268WAT     H158046   1.706   3.519   1.403
19268WAT     H258047   1.669   3.661   1.330
19269WAT      O58048   8.257   7.809   5.689
19269WAT     H158049   8.305   7.730   5.729
19269WAT     H258050   8.319   7.858   5.628
19270WAT      O58051   5.647   8.213   1.450
19270WAT     H158052   5.681   8.304   1.428
19270WAT     H258053   5.695   8.145   1.393
19271WAT      O58054   6.118   5.868   1.344
19271WAT     H158055   6.085   5.861   1.438
19271WAT     H258056   6.188   5.940   1.339
19272WAT      O58057   5.279   0.793   9.353
19272WAT     H158058   5.212   0.799   9.427
19272WAT     H258059   5.320   0.702   9.351
19273WAT      O58060   7.518   8.088   6.375
19273WAT     H158061   7.553   8.165   6.323
19273WAT     H258062   7.421   8.075   6.354
19274WAT      O58063   3.049   0.750   6.594
19274WAT     H158064   3.000   0.678   6.544
19274WAT     H258065   3.104   0.708   6.666
19275WAT      O58066   7.263   7.748   5.489
19275WAT     H158067   7.275   7.760   5.588
19275WAT     H258068   7.253   7.837   5.445
19276WAT      O58069   9.438   1.186   1.470
19276WAT     H158070   9.470   1.132   1.548
19276WAT     H258071   9.364   1.137   1.424
19277WAT      O58072   5.169   4.842   2.946
19277WAT     H158073   5.110   4.922   2.959
19277WAT     H258074   5.138   4.790   2.867
19278WAT      O58075   6.704   6.396   3.086
19278WAT     H158076   6.738   6.358   3.172
19278WAT     H258077   6.614   6.437   3.101
19279WAT      O58078   0.511   5.651   3.813
19279WAT     H158079   0.526   5.651   3.912
19279WAT     H258080   0.558   5.730   3.772
19280WAT      O58081   5.759   5.548   6.817
19280WAT     H158082   5.731   5.523   6.910
19280WAT     H258083   5.690   5.515   6.752
19281WAT      O58084   7.143   8.118   8.113
19281WAT     H158085   7.242   8.107   8.119
19281WAT     H258086   7.106   8.139   8.204
19282WAT      O58087   1.060   0.012   9.393
19282WAT     H158088   0.972   0.012   9.346
19282WAT     H258089   1.133  -0.008   9.328
19283WAT      O58090   7.114   1.057   2.400
19283WAT     H158091   7.019   1.076   2.376
19283WAT     H258092   7.148   0.981   2.344
19284WAT      O58093   6.190   2.783   3.099
19284WAT     H158094   6.224   2.782   3.005
19284WAT     H258095   6.099   2.741   3.103
19285WAT      O58096   4.530   8.287   5.732
19285WAT     H158097   4.519   8.364   5.670
19285WAT     H258098   4.628   8.268   5.744
19286WAT      O58099   3.845   0.438   8.198
19286WAT     H158100   3.862   0.533   8.221
19286WAT     H258101   3.853   0.381   8.280
19287WAT      O58102   6.519   0.771   5.472
19287WAT     H158103   6.546   0.848   5.530
19287WAT     H258104   6.517   0.800   5.377
19288WAT      O58105   0.030   3.815   7.842
19288WAT     H158106   0.123   3.780   7.841
19288WAT     H258107  -0.000   3.833   7.749
19289WAT      O58108   3.820   0.956   1.176
19289WAT     H158109   3.772   1.044   1.166
19289WAT     H258110   3.823   0.931   1.273
19290WAT      O58111   1.855   0.643   5.034
19290WAT     H158112   1.806   0.591   4.965
19290WAT     H258113   1.809   0.634   5.122
19291WAT      O58114   1.336   3.397   4.249
19291WAT     H158115   1.431   3.428   4.249
19291WAT     H258116   1.310   3.370   4.156
19292WAT      O58117   9.001   6.558   0.089
19292WAT     H158118   8.919   6.591   0.042
19292WAT     H258119   9.053   6.636   0.123
19293WAT      O58120   2.672   2.416   8.897
19293WAT     H158121   2.674   2.516   8.896
19293WAT     H258122   2.675   2.384   8.991
19294WAT      O58123   1.018   3.740   7.520
19294WAT     H158124   1.028   3.792   7.436
19294WAT     H258125   1.056   3.792   7.597
19295WAT      O58126   2.514   3.652   7.660
19295WAT     H158127   2.433   3.653   7.601
19295WAT     H258128   2.585   3.710   7.620
19296WAT      O58129   4.217   2.345   4.011
19296WAT     H158130   4.210   2.376   4.106
19296WAT     H258131   4.170   2.257   4.002
19297WAT      O58132   1.623   5.416   4.109
19297WAT     H158133   1.624   5.511   4.141
19297WAT     H258134   1.598   5.356   4.185
19298WAT      O58135   0.625   7.069   5.837
19298WAT     H158136   0.580   7.084   5.925
19298WAT     H258137   0.656   6.974   5.832
19299WAT      O58138   5.625   9.090   2.037
19299WAT     H158139   5.587   9.001   2.065
19299WAT     H258140   5.672   9.132   2.115
19300WAT      O58141   3.003   0.628   0.589
19300WAT     H158142   3.043   0.717   0.611
19300WAT     H258143   2.990   0.619   0.490
19301WAT      O58144   1.752   0.810   0.558
19301WAT     H158145   1.844   0.806   0.597
19301WAT     H258146   1.708   0.895   0.584
19302WAT      O58147   3.976   0.169   9.381
19302WAT     H158148   4.075   0.175   9.387
19302WAT     H258149   3.935   0.197   9.468
19303WAT      O58150   4.210   5.079   2.185
19303WAT     H158151   4.162   5.022   2.252
19303WAT     H258152   4.153   5.157   2.160
19304WAT      O58153   0.830   5.499   3.052
19304WAT     H158154   0.865   5.469   3.140
19304WAT     H258155   0.871   5.588   3.028
19305WAT      O58156   6.728   4.806   6.934
19305WAT     H158157   6.645   4.839   6.889
19305WAT     H258158   6.731   4.707   6.931
19306WAT      O58159   0.022   2.242   6.690
19306WAT     H158160   0.063   2.221   6.601
19306WAT     H258161  -0.074   2.265   6.677
19307WAT      O58162   2.259   5.120   3.010
19307WAT     H158163   2.326   5.129   3.084
19307WAT     H258164   2.300   5.071   2.933
19308WAT      O58165   7.536   9.732   8.578
19308WAT     H158166   7.548   9.730   8.677
19308WAT     H258167   7.625   9.749   8.535
19309WAT      O58168   3.394   9.347   0.716
19309WAT     H158169   3.328   9.409   0.758
19309WAT     H258170   3.444   9.396   0.644
19310WAT      O58171   5.319   2.343   0.276
19310WAT     H158172   5.399   2.365   0.221
19310WAT     H258173   5.241   2.326   0.216
19311WAT      O58174   2.014   9.345   2.495
19311WAT     H158175   1.919   9.346   2.465
19311WAT     H258176   2.066   9.415   2.445
19312WAT      O58177   6.740   1.142   3.705
19312WAT     H158178   6.661   1.155   3.644
19312WAT     H258179   6.708   1.125   3.798
19313WAT      O58180   7.734   8.024   5.249
19313WAT     H158181   7.803   8.035   5.178
19313WAT     H258182   7.673   7.948   5.226
19314WAT      O58183   7.461   3.838   3.633
19314WAT     H158184   7.435   3.804   3.723
19314WAT     H258185   7.535   3.905   3.642
19315WAT      O58186   3.652   9.555   8.029
19315WAT     H158187   3.678   9.631   7.971
19315WAT     H258188   3.563   9.519   7.999
19316WAT      O58189   3.355   2.287   3.341
19316WAT     H158190   3.336   2.189   3.328
19316WAT     H258191   3.387   2.326   3.255
19317WAT      O58192   2.881   6.961   9.461
19317WAT     H158193   2.961   7.020   9.464
19317WAT     H258194   2.804   7.007   9.506
19318WAT      O58195   6.843   2.920   5.342
19318WAT     H158196   6.783   2.914   5.262
19318WAT     H258197   6.889   3.008   5.342
19319WAT      O58198   0.705   2.619   0.210
19319WAT     H158199   0.760   2.703   0.203
19319WAT     H258200   0.763   2.540   0.190
19320WAT      O58201   2.941   8.283   3.051
19320WAT     H158202   2.855   8.331   3.072
19320WAT     H258203   3.018   8.343   3.069
19321WAT      O58204   9.636   6.193   8.232
19321WAT     H158205   9.656   6.232   8.142
19321WAT     H258206   9.691   6.239   8.301
19322WAT      O58207   0.439   9.342   0.380
19322WAT     H158208   0.490   9.290   0.448
19322WAT     H258209   0.494   9.353   0.297
19323WAT      O58210   6.590   6.994   3.431
19323WAT     H158211   6.667   6.934   3.450
19323WAT     H258212   6.527   6.947   3.368
19324WAT      O58213   8.354   3.305   0.059
19324WAT     H158214   8.409   3.353  -0.009
19324WAT     H258215   8.309   3.226   0.016
19325WAT      O58216   1.526   9.261   5.600
19325WAT     H158217   1.487   9.320   5.530
19325WAT     H258218   1.502   9.295   5.690
19326WAT      O58219   9.741   7.422   6.660
19326WAT     H158220   9.728   7.329   6.626
19326WAT     H258221   9.827   7.428   6.710
19327WAT      O58222   5.064   5.318   0.044
19327WAT     H158223   4.986   5.280   0.093
19327WAT     H258224   5.069   5.277  -0.047
19328WAT      O58225   4.000   4.906   6.990
19328WAT     H158226   4.051   4.866   7.066
19328WAT     H258227   4.062   4.929   6.915
19329WAT      O58228   9.499   3.185   6.882
19329WAT     H158229   9.543   3.190   6.792
19329WAT     H258230   9.564   3.215   6.952
19330WAT      O58231   4.985   3.208   4.692
19330WAT     H158232   5.070   3.255   4.717
19330WAT     H258233   5.006   3.129   4.635
19331WAT      O58234   8.863   1.075   3.734
19331WAT     H158235   8.765   1.093   3.748
19331WAT     H258236   8.914   1.110   3.813
19332WAT      O58237   6.244   1.725   2.317
19332WAT     H158238   6.155   1.752   2.354
19332WAT     H258239   6.233   1.643   2.261
19333WAT      O58240   9.175   8.376   4.938
19333WAT     H158241   9.207   8.423   4.856
19333WAT     H258242   9.234   8.297   4.957
19334WAT      O58243   3.760   2.841   8.335
19334WAT     H158244   3.728   2.935   8.321
19334WAT     H258245   3.683   2.778   8.328
19335WAT      O58246   4.376   6.723   7.914
19335WAT     H158247   4.397   6.814   7.949
19335WAT     H258248   4.393   6.720   7.816
19336WAT      O58249   5.318   9.817   9.632
19336WAT     H158250   5.308   9.899   9.576
19336WAT     H258251   5.248   9.751   9.606
19337WAT      O58252   9.145   9.273   6.291
19337WAT     H158253   9.077   9.202   6.310
19337WAT     H258254   9.117   9.325   6.210
19338WAT      O58255   7.225   7.183   7.701
19338WAT     H158256   7.320   7.156   7.717
19338WAT     H258257   7.221   7.281   7.681
19339WAT      O58258   0.721   8.738   7.863
19339WAT     H158259   0.770   8.767   7.945
19339WAT     H258260   0.723   8.811   7.795
19340WAT      O58261   0.916   1.703   6.678
19340WAT     H158262   0.936   1.625   6.738
19340WAT     H258263   0.831   1.746   6.707
19341WAT      O58264   5.467   5.855   0.178
19341WAT     H158265   5.445   5.927   0.112
19341WAT     H258266   5.398   5.783   0.173
19342WAT      O58267   0.181   1.149   4.715
19342WAT     H158268   0.248   1.147   4.790
19342WAT     H258269   0.198   1.072   4.654
19343WAT      O58270   1.146   5.041   5.012
19343WAT     H158271   1.236   5.067   5.046
19343WAT     H258272   1.076   5.064   5.080
19344WAT      O58273   3.835   3.155   1.352
19344WAT     H158274   3.875   3.083   1.410
19344WAT     H258275   3.909   3.205   1.306
19345WAT      O58276   8.832   3.373   0.606
19345WAT     H158277   8.903   3.413   0.548
19345WAT     H258278   8.864   3.369   0.700
19346WAT      O58279   0.513   8.762   6.490
19346WAT     H158280   0.487   8.710   6.571
19346WAT     H258281   0.512   8.860   6.511
19347WAT      O58282   9.324   1.299   5.311
19347WAT     H158283   9.382   1.361   5.364
19347WAT     H258284   9.372   1.213   5.295
19348WAT      O58285   6.258   3.839   4.240
19348WAT     H158286   6.162   3.869   4.244
19348WAT     H258287   6.262   3.743   4.213
19349WAT      O58288   7.570   2.692   9.054
19349WAT     H158289   7.619   2.742   9.125
19349WAT     H258290   7.611   2.711   8.965
19350WAT      O58291   8.826   7.651   8.961
19350WAT     H158292   8.745   7.697   8.996
19350WAT     H258293   8.866   7.595   9.034
19351WAT      O58294   1.269   2.018   5.696
19351WAT     H158295   1.314   2.084   5.635
19351WAT     H258296   1.334   1.947   5.722
19352WAT      O58297   9.497   9.524   0.262
19352WAT     H158298   9.581   9.576   0.280
19352WAT     H258299   9.516   9.426   0.269
19353WAT      O58300   9.420   7.814   8.562
19353WAT     H158301   9.355   7.884   8.591
19353WAT     H258302   9.508   7.856   8.542
19354WAT      O58303   2.340   8.217   0.333
19354WAT     H158304   2.389   8.304   0.336
19354WAT     H258305   2.404   8.144   0.308
19355WAT      O58306   2.362   6.164   4.175
19355WAT     H158307   2.344   6.262   4.165
19355WAT     H258308   2.420   6.149   4.255
19356WAT      O58309   6.489   8.203   2.858
19356WAT     H158310   6.404   8.210   2.805
19356WAT     H258311   6.467   8.203   2.955
19357WAT      O58312   7.755   1.883   2.924
19357WAT     H158313   7.741   1.981   2.913
19357WAT     H258314   7.845   1.857   2.888
19358WAT      O58315   1.235   8.601   9.581
19358WAT     H158316   1.190   8.520   9.616
19358WAT     H258317   1.324   8.576   9.542
19359WAT      O58318   5.147   6.515   4.833
19359WAT     H158319   5.161   6.420   4.859
19359WAT     H258320   5.050   6.532   4.817
19360WAT      O58321   7.049   9.242   0.108
19360WAT     H158322   6.968   9.220   0.055
19360WAT     H258323   7.094   9.322   0.069
19361WAT      O58324   9.202   7.660   5.723
19361WAT     H158325   9.138   7.650   5.647
19361WAT     H258326   9.257   7.577   5.731
19362WAT      O58327   9.668   8.499   8.895
19362WAT     H158328   9.634   8.425   8.837
19362WAT     H258329   9.652   8.475   8.991
19363WAT      O58330   6.539   8.333   1.807
19363WAT     H158331   6.567   8.429   1.814
19363WAT     H258332   6.603   8.276   1.860
19364WAT      O58333   5.688   2.741   5.319
19364WAT     H158334   5.678   2.710   5.414
19364WAT     H258335   5.753   2.817   5.315
19365WAT      O58336   9.287   8.221   7.902
19365WAT     H158337   9.221   8.282   7.857
19365WAT     H258338   9.371   8.271   7.921
19366WAT      O58339   5.484   6.003   6.372
19366WAT     H158340   5.441   6.014   6.282
19366WAT     H258341   5.490   6.092   6.417
19367WAT      O58342   3.313   3.041   5.568
19367WAT     H158343   3.379   3.115   5.578
19367WAT     H258344   3.331   2.991   5.484
19368WAT      O58345   8.295   5.094   1.212
19368WAT     H158346   8.363   5.151   1.165
19368WAT     H258347   8.228   5.062   1.145
19369WAT      O58348   1.257   4.389   9.356
19369WAT     H158349   1.167   4.384   9.399
19369WAT     H258350   1.293   4.482   9.363
19370WAT      O58351   7.433   6.255   0.980
19370WAT     H158352   7.386   6.167   0.980
19370WAT     H258353   7.521   6.246   1.027
19371WAT      O58354   2.901   1.164   6.463
19371WAT     H158355   2.939   1.253   6.489
19371WAT     H258356   2.823   1.142   6.523
19372WAT      O58357   0.263   0.565   5.941
19372WAT     H158358   0.219   0.613   5.865
19372WAT     H258359   0.197   0.556   6.016
19373WAT      O58360   6.897   7.885   5.977
19373WAT     H158361   6.951   7.899   5.894
19373WAT     H258362   6.953   7.905   6.057
19374WAT      O58363   1.091   1.213   0.222
19374WAT     H158364   1.101   1.119   0.253
19374WAT     H258365   1.165   1.236   0.159
19375WAT      O58366   4.677   9.698   2.457
19375WAT     H158367   4.598   9.683   2.516
19375WAT     H258368   4.761   9.687   2.510
19376WAT      O58369   6.784   1.845   5.967
19376WAT     H158370   6.816   1.888   6.051
19376WAT     H258371   6.795   1.909   5.891
19377WAT      O58372   5.929   8.850   8.187
19377WAT     H158373   5.951   8.931   8.133
19377WAT     H258374   5.830   8.844   8.200
19378WAT      O58375   4.953   5.049   2.886
19378WAT     H158376   4.966   5.041   2.787
19378WAT     H258377   4.866   5.095   2.905
19379WAT      O58378   1.318   3.315   0.895
19379WAT     H158379   1.261   3.357   0.824
19379WAT     H258380   1.361   3.233   0.859
19380WAT      O58381   7.789   1.919   7.051
19380WAT     H158382   7.774   2.015   7.026
19380WAT     H258383   7.847   1.915   7.133
19381WAT      O58384   8.512   9.001   5.358
19381WAT     H158385   8.583   8.990   5.288
19381WAT     H258386   8.538   8.949   5.440
19382WAT      O58387   5.957   6.021   5.997
19382WAT     H158388   5.900   6.089   5.950
19382WAT     H258389   5.968   6.048   6.093
19383WAT      O58390   5.312   5.382   7.470
19383WAT     H158391   5.350   5.291   7.453
19383WAT     H258392   5.323   5.404   7.567
19384WAT      O58393   1.223   3.353   0.177
19384WAT     H158394   1.173   3.401   0.250
19384WAT     H258395   1.186   3.381   0.088
19385WAT      O58396   1.396   7.465   1.131
19385WAT     H158397   1.345   7.550   1.128
19385WAT     H258398   1.433   7.445   1.040
19386WAT      O58399   4.809   0.156   0.332
19386WAT     H158400   4.841   0.187   0.243
19386WAT     H258401   4.711   0.136   0.328
19387WAT      O58402   8.804   3.410   2.429
19387WAT     H158403   8.727   3.358   2.391
19387WAT     H258404   8.879   3.411   2.364
19388WAT      O58405   1.601   0.204   5.452
19388WAT     H158406   1.568   0.270   5.519
19388WAT     H258407   1.539   0.125   5.450
19389WAT      O58408   8.243   4.247   4.274
19389WAT     H158409   8.175   4.255   4.201
19389WAT     H258410   8.264   4.151   4.289
19390WAT      O58411   1.903   5.627   4.876
19390WAT     H158412   1.822   5.685   4.860
19390WAT     H258413   1.944   5.653   4.964
19391WAT      O58414   8.591   7.445   5.622
19391WAT     H158415   8.675   7.392   5.611
19391WAT     H258416   8.540   7.409   5.701
19392WAT      O58417   4.424   5.283   6.271
19392WAT     H158418   4.380   5.327   6.193
19392WAT     H258419   4.387   5.320   6.356
19393WAT      O58420   2.213   6.042   8.239
19393WAT     H158421   2.163   6.124   8.212
19393WAT     H258422   2.237   6.048   8.336
19394WAT      O58423   2.225   1.069   0.038
19394WAT     H158424   2.243   0.971   0.039
19394WAT     H258425   2.311   1.118   0.021
19395WAT      O58426   2.698   7.245   7.936
19395WAT     H158427   2.786   7.206   7.912
19395WAT     H258428   2.625   7.183   7.909
19396WAT      O58429   1.716   1.660   9.650
19396WAT     H158430   1.668   1.620   9.728
19396WAT     H258431   1.678   1.624   9.565
19397WAT      O58432   8.347   2.352   1.822
19397WAT     H158433   8.368   2.449   1.815
19397WAT     H258434   8.429   2.298   1.805
19398WAT      O58435   0.889   2.742   5.593
19398WAT     H158436   0.851   2.819   5.543
19398WAT     H258437   0.975   2.768   5.635
19399WAT      O58438   4.893   0.590   9.548
19399WAT     H158439   4.874   0.687   9.533
19399WAT     H258440   4.942   0.578   9.634
19400WAT      O58441   5.660   2.024   5.672
19400WAT     H158442   5.652   2.018   5.771
19400WAT     H258443   5.756   2.033   5.647
19401WAT      O58444   1.558   5.821   5.542
19401WAT     H158445   1.555   5.741   5.601
19401WAT     H258446   1.496   5.891   5.577
19402WAT      O58447   3.069   1.540   5.073
19402WAT     H158448   2.985   1.511   5.027
19402WAT     H258449   3.056   1.631   5.111
19403WAT      O58450   4.223   7.447   5.648
19403WAT     H158451   4.166   7.403   5.717
19403WAT     H258452   4.185   7.428   5.557
19404WAT      O58453   9.140   3.051   3.153
19404WAT     H158454   9.193   3.008   3.080
19404WAT     H258455   9.053   3.003   3.162
19405WAT      O58456   7.574   5.313   9.817
19405WAT     H158457   7.496   5.250   9.820
19405WAT     H258458   7.589   5.352   9.908
19406WAT      O58459   9.187   9.460   6.507
19406WAT     H158460   9.286   9.458   6.516
19406WAT     H258461   9.159   9.395   6.436
19407WAT      O58462   3.990   1.875   5.908
19407WAT     H158463   4.078   1.920   5.925
19407WAT     H258464   4.006   1.781   5.877
19408WAT      O58465   2.767   5.311   3.390
19408WAT     H158466   2.744   5.230   3.336
19408WAT     H258467   2.716   5.310   3.476
19409WAT      O58468   5.126   6.147   4.666
19409WAT     H158469   5.128   6.048   4.681
19409WAT     H258470   5.161   6.193   4.748
19410WAT      O58471   5.913   0.537   4.847
19410WAT     H158472   5.899   0.479   4.767
19410WAT     H258473   5.890   0.486   4.930
19411WAT      O58474   9.742   8.520   2.601
19411WAT     H158475   9.712   8.510   2.506
19411WAT     H258476   9.793   8.438   2.629
19412WAT      O58477   0.419   8.241   8.020
19412WAT     H158478   0.330   8.196   8.023
19412WAT     H258479   0.491   8.174   8.039
19413WAT      O58480   2.968   4.179   4.985
19413WAT     H158481   2.935   4.204   4.894
19413WAT     H258482   3.024   4.254   5.022
19414WAT      O58483   9.656   3.741   6.487
19414WAT     H158484   9.565   3.782   6.486
19414WAT     H258485   9.719   3.799   6.434
19415WAT      O58486   8.300   6.864   2.779
19415WAT     H158487   8.258   6.955   2.781
19415WAT     H258488   8.259   6.810   2.705
19416WAT      O58489   3.224   9.313   7.957
19416WAT     H158490   3.276   9.390   7.920
19416WAT     H258491   3.278   9.265   8.025
19417WAT      O58492   2.762   1.581   9.839
19417WAT     H158493   2.687   1.523   9.806
19417WAT     H258494   2.840   1.574   9.777
19418WAT      O58495   5.142   5.609   7.113
19418WAT     H158496   5.084   5.640   7.188
19418WAT     H258497   5.103   5.526   7.072
19419WAT      O58498   3.223   4.193   0.711
19419WAT     H158499   3.296   4.207   0.643
19419WAT     H258500   3.185   4.101   0.701
19420WAT      O58501   2.918   8.327   7.386
19420WAT     H158502   3.016   8.309   7.373
19420WAT     H258503   2.865   8.275   7.319
19421WAT      O58504   1.777   4.040   2.549
19421WAT     H158505   1.801   3.969   2.482
19421WAT     H258506   1.842   4.115   2.542
19422WAT      O58507   0.537   4.749   3.057
19422WAT     H158508   0.481   4.736   3.140
19422WAT     H258509   0.620   4.800   3.081
19423WAT      O58510   6.390   0.016   9.707
19423WAT     H158511   6.382   0.076   9.627
19423WAT     H258512   6.367  -0.078   9.680
19424WAT      O58513   2.102   1.379   4.673
19424WAT     H158514   2.128   1.428   4.590
19424WAT     H258515   2.126   1.434   4.753
19425WAT      O58516   0.671   1.878   2.700
19425WAT     H158517   0.620   1.873   2.785
19425WAT     H258518   0.766   1.854   2.716
19426WAT      O58519   3.698   2.086   9.496
19426WAT     H158520   3.663   2.167   9.448
19426WAT     H258521   3.710   2.011   9.431
19427WAT      O58522   3.104   0.540   5.109
19427WAT     H158523   3.143   0.470   5.169
19427WAT     H258524   3.168   0.561   5.035
19428WAT      O58525   5.159   5.521   0.591
19428WAT     H158526   5.208   5.470   0.519
19428WAT     H258527   5.225   5.558   0.656
19429WAT      O58528   8.061   0.677   1.490
19429WAT     H158529   7.989   0.691   1.558
19429WAT     H258530   8.042   0.594   1.437
19430WAT      O58531   1.779   8.952   1.923
19430WAT     H158532   1.746   9.047   1.923
19430WAT     H258533   1.702   8.890   1.939
19431WAT      O58534   5.454   7.822   7.689
19431WAT     H158535   5.376   7.862   7.737
19431WAT     H258536   5.529   7.888   7.688
19432WAT      O58537   8.903   6.593   5.583
19432WAT     H158538   8.834   6.606   5.653
19432WAT     H258539   8.904   6.497   5.554
19433WAT      O58540   1.712   1.420   9.804
19433WAT     H158541   1.697   1.362   9.724
19433WAT     H258542   1.804   1.404   9.840
19434WAT      O58543   0.897   4.685   4.973
19434WAT     H158544   0.886   4.689   5.072
19434WAT     H258545   0.986   4.645   4.951
19435WAT      O58546   3.276   5.937   4.476
19435WAT     H158547   3.258   5.840   4.492
19435WAT     H258548   3.190   5.988   4.482
19436WAT      O58549   7.977   8.899   1.622
19436WAT     H158550   8.037   8.896   1.702
19436WAT     H258551   8.032   8.915   1.540
19437WAT      O58552   4.433   7.906   5.699
19437WAT     H158553   4.410   7.989   5.650
19437WAT     H258554   4.506   7.925   5.766
19438WAT      O58555   0.497   8.231   3.821
19438WAT     H158556   0.435   8.292   3.773
19438WAT     H258557   0.586   8.231   3.775
19439WAT      O58558   7.782   1.762   1.310
19439WAT     H158559   7.775   1.736   1.214
19439WAT     H258560   7.793   1.862   1.317
19440WAT      O58561   7.564   4.425   9.641
19440WAT     H158562   7.599   4.334   9.619
19440WAT     H258563   7.470   4.418   9.674
19441WAT      O58564   6.047   6.758   2.378
19441WAT     H158565   5.963   6.705   2.390
19441WAT     H258566   6.024   6.856   2.380
19442WAT      O58567   4.389   4.253   1.316
19442WAT     H158568   4.352   4.183   1.255
19442WAT     H258569   4.428   4.209   1.397
19443WAT      O58570   0.012   5.196   0.252
19443WAT     H158571  -0.008   5.134   0.176
19443WAT     H258572   0.109   5.192   0.274
19444WAT      O58573   4.648   6.823   4.424
19444WAT     H158574   4.574   6.854   4.364
19444WAT     H258575   4.676   6.898   4.484
19445WAT      O58576   2.929   8.007   8.150
19445WAT     H158577   2.896   8.065   8.076
19445WAT     H258578   2.867   7.929   8.163
19446WAT      O58579   3.711   1.550   9.117
19446WAT     H158580   3.808   1.529   9.104
19446WAT     H258581   3.671   1.578   9.030
19447WAT      O58582   3.635   0.687   9.334
19447WAT     H158583   3.729   0.710   9.305
19447WAT     H258584   3.624   0.588   9.338
19448WAT      O58585   3.041   0.702   9.684
19448WAT     H158586   2.967   0.724   9.620
19448WAT     H258587   3.105   0.779   9.688
19449WAT      O58588   1.146   2.659   2.081
19449WAT     H158589   1.149   2.752   2.117
19449WAT     H258590   1.141   2.662   1.981
19450WAT      O58591   6.339   3.819   5.156
19450WAT     H158592   6.361   3.914   5.177
19450WAT     H258593   6.423   3.766   5.149
19451WAT      O58594   5.697   1.532   1.815
19451WAT     H158595   5.618   1.511   1.758
19451WAT     H258596   5.686   1.623   1.855
19452WAT      O58597   0.595   0.370   7.927
19452WAT     H158598   0.615   0.434   8.001
19452WAT     H258599   0.512   0.399   7.878
19453WAT      O58600   7.213   4.646   1.005
19453WAT     H158601   7.148   4.666   1.078
19453WAT     H258602   7.210   4.549   0.983
19454WAT      O58603   5.090   5.619   9.636
19454WAT     H158604   5.076   5.660   9.546
19454WAT     H258605   5.028   5.541   9.646
19455WAT      O58606   1.116   9.536   8.441
19455WAT     H158607   1.186   9.605   8.421
19455WAT     H258608   1.038   9.549   8.381
19456WAT      O58609   5.189   9.541   3.403
19456WAT     H158610   5.149   9.630   3.423
19456WAT     H258611   5.259   9.520   3.471
19457WAT      O58612   9.176   3.263   3.497
19457WAT     H158613   9.118   3.311   3.564
19457WAT     H258614   9.258   3.318   3.479
19458WAT      O58615   9.201   1.296   0.886
19458WAT     H158616   9.152   1.213   0.912
19458WAT     H258617   9.207   1.357   0.965
19459WAT      O58618   3.507   4.555   2.305
19459WAT     H158619   3.544   4.475   2.257
19459WAT     H258620   3.456   4.525   2.385
19460WAT      O58621   6.005   9.132   4.338
19460WAT     H158622   6.069   9.201   4.372
19460WAT     H258623   6.030   9.107   4.244
19461WAT      O58624   6.645   7.261   7.458
19461WAT     H158625   6.719   7.326   7.476
19461WAT     H258626   6.557   7.306   7.476
19462WAT      O58627   1.837   0.744   8.635
19462WAT     H158628   1.806   0.650   8.647
19462WAT     H258629   1.759   0.803   8.614
19463WAT      O58630   2.754   5.971   5.974
19463WAT     H158631   2.655   5.986   5.977
19463WAT     H258632   2.800   6.058   5.956
19464WAT      O58633   0.062   4.990   5.354
19464WAT     H158634   0.155   4.994   5.318
19464WAT     H258635   0.014   4.912   5.314
19465WAT      O58636   4.045   2.135   4.474
19465WAT     H158637   4.120   2.171   4.530
19465WAT     H258638   4.079   2.111   4.383
19466WAT      O58639   1.999   6.041   1.441
19466WAT     H158640   2.064   6.116   1.447
19466WAT     H258641   1.912   6.075   1.407
19467WAT      O58642   1.336   3.137   1.868
19467WAT     H158643   1.300   3.230   1.869
19467WAT     H258644   1.272   3.076   1.914
19468WAT      O58645   1.145   4.892   3.512
19468WAT     H158646   1.078   4.957   3.548
19468WAT     H258647   1.226   4.892   3.571
19469WAT      O58648   3.259   6.459   7.498
19469WAT     H158649   3.217   6.368   7.509
19469WAT     H258650   3.194   6.519   7.451
19470WAT      O58651   9.324   5.029   5.770
19470WAT     H158652   9.416   4.992   5.781
19470WAT     H258653   9.260   4.975   5.825
19471WAT      O58654   3.265   4.460   2.043
19471WAT     H158655   3.250   4.383   2.104
19471WAT     H258656   3.187   4.471   1.982
19472WAT      O58657   3.845   0.573   8.655
19472WAT     H158658   3.842   0.572   8.755
19472WAT     H258659   3.925   0.624   8.625
19473WAT      O58660   3.535   1.984   9.127
19473WAT     H158661   3.466   1.942   9.186
19473WAT     H258662   3.508   2.078   9.105
19474WAT      O58663   8.719   1.575   9.147
19474WAT     H158664   8.688   1.669   9.132
19474WAT     H258665   8.650   1.524   9.197
19475WAT      O58666   2.071   2.267   7.350
19475WAT     H158667   2.060   2.363   7.323
19475WAT     H258668   2.005   2.245   7.422
19476WAT      O58669   0.605   6.226   8.561
19476WAT     H158670   0.661   6.167   8.503
19476WAT     H258671   0.515   6.239   8.520
19477WAT      O58672   6.513   9.833   2.083
19477WAT     H158673   6.608   9.825   2.113
19477WAT     H258674   6.480   9.925   2.101
19478WAT      O58675   8.813   1.345   3.219
19478WAT     H158676   8.885   1.354   3.289
19478WAT     H258677   8.726   1.378   3.256
19479WAT      O58678   4.946   6.984   6.922
19479WAT     H158679   5.039   7.016   6.938
19479WAT     H258680   4.882   7.037   6.978
19480WAT      O58681   0.528   5.896   0.293
19480WAT     H158682   0.515   5.993   0.314
19480WAT     H258683   0.504   5.841   0.373
19481WAT      O58684   4.469   4.274   8.071
19481WAT     H158685   4.545   4.274   8.006
19481WAT     H258686   4.475   4.354   8.130
19482WAT      O58687   9.672   7.548   8.272
19482WAT     H158688   9.663   7.561   8.371
19482WAT     H258689   9.684   7.636   8.227
19483WAT      O58690   8.086   6.165   7.279
19483WAT     H158691   8.135   6.173   7.366
19483WAT     H258692   7.995   6.128   7.295
19484WAT      O58693   9.807   5.627   8.615
19484WAT     H158694   9.801   5.629   8.515
19484WAT     H258695   9.853   5.710   8.647
19485WAT      O58696   1.489   8.981   6.481
19485WAT     H158697   1.583   8.966   6.450
19485WAT     H258698   1.459   9.072   6.453
19486WAT      O58699   1.118   2.624   9.031
19486WAT     H158700   1.163   2.551   8.981
19486WAT     H258701   1.123   2.605   9.129
19487WAT      O58702   9.295   7.835   0.633
19487WAT     H158703   9.347   7.819   0.549
19487WAT     H258704   9.197   7.838   0.611
19488WAT      O58705   6.156   3.621   2.602
19488WAT     H158706   6.184   3.552   2.669
19488WAT     H258707   6.141   3.708   2.649
19489WAT      O58708   9.026   8.288   0.153
19489WAT     H158709   8.984   8.376   0.128
19489WAT     H258710   9.034   8.281   0.252
19490WAT      O58711   1.855   1.608   7.021
19490WAT     H158712   1.845   1.656   7.108
19490WAT     H258713   1.769   1.616   6.970
19491WAT      O58714   8.055   8.548   0.463
19491WAT     H158715   8.071   8.449   0.471
19491WAT     H258716   8.107   8.584   0.386
19492WAT      O58717   6.328   1.338   1.814
19492WAT     H158718   6.388   1.318   1.892
19492WAT     H258719   6.337   1.435   1.790
19493WAT      O58720   2.721   2.468   1.649
19493WAT     H158721   2.771   2.384   1.669
19493WAT     H258722   2.783   2.546   1.653
19494WAT      O58723   7.057   1.384   5.782
19494WAT     H158724   7.147   1.417   5.754
19494WAT     H258725   6.986   1.437   5.735
19495WAT      O58726   9.436   2.597   9.447
19495WAT     H158727   9.348   2.552   9.431
19495WAT     H258728   9.509   2.545   9.403
19496WAT      O58729   5.402   1.786   1.351
19496WAT     H158730   5.333   1.846   1.311
19496WAT     H258731   5.478   1.775   1.288
19497WAT      O58732   8.919   5.220   6.714
19497WAT     H158733   8.902   5.314   6.684
19497WAT     H258734   9.013   5.195   6.692
19498WAT      O58735   1.754   0.334   9.467
19498WAT     H158736   1.851   0.325   9.443
19498WAT     H258737   1.745   0.395   9.546
19499WAT      O58738   2.620   4.650   1.870
19499WAT     H158739   2.658   4.676   1.958
19499WAT     H258740   2.642   4.554   1.851
19500WAT      O58741   4.218   4.737   9.323
19500WAT     H158742   4.184   4.815   9.271
19500WAT     H258743   4.162   4.657   9.302
19501WAT      O58744   9.022   6.926   6.831
19501WAT     H158745   8.999   7.000   6.767
19501WAT     H258746   8.981   6.841   6.799
19502WAT      O58747   8.517   7.099   5.672
19502WAT     H158748   8.467   7.176   5.712
19502WAT     H258749   8.599   7.133   5.625
19503WAT      O58750   1.062   3.288   8.832
19503WAT     H158751   0.993   3.216   8.840
19503WAT     H258752   1.026   3.362   8.775
19504WAT      O58753   0.889   4.199   6.098
19504WAT     H158754   0.905   4.177   6.194
19504WAT     H258755   0.896   4.115   6.044
19505WAT      O58756   7.257   1.208   4.310
19505WAT     H158757   7.200   1.283   4.275
19505WAT     H258758   7.214   1.170   4.392
19506WAT      O58759   6.996   4.705   1.159
19506WAT     H158760   7.009   4.774   1.230
19506WAT     H258761   6.914   4.652   1.178
19507WAT      O58762   2.528   6.945   4.616
19507WAT     H158763   2.583   6.869   4.581
19507WAT     H258764   2.457   6.910   4.677
19508WAT      O58765   0.992   6.052   4.507
19508WAT     H158766   1.008   6.073   4.410
19508WAT     H258767   1.013   6.132   4.562
19509WAT      O58768   1.409   8.549   4.056
19509WAT     H158769   1.373   8.478   3.996
19509WAT     H258770   1.504   8.530   4.078
19510WAT      O58771   0.115   0.102   3.933
19510WAT     H158772   0.105   0.003   3.945
19510WAT     H258773   0.212   0.126   3.940
19511WAT      O58774   8.536   0.969   4.082
19511WAT     H158775   8.510   0.900   4.013
19511WAT     H258776   8.541   1.059   4.038
19512WAT      O58777   2.627   9.409   7.152
19512WAT     H158778   2.628   9.312   7.129
19512WAT     H258779   2.712   9.451   7.121
19513WAT      O58780   1.307   0.328   4.534
19513WAT     H158781   1.239   0.310   4.462
19513WAT     H258782   1.398   0.328   4.493
19514WAT      O58783   9.042   2.630   3.211
19514WAT     H158784   8.944   2.643   3.202
19514WAT     H258785   9.081   2.605   3.122
19515WAT      O58786   6.590   2.418   4.436
19515WAT     H158787   6.550   2.432   4.527
19515WAT     H258788   6.638   2.501   4.408
19516WAT      O58789   4.539   3.160   2.815
19516WAT     H158790   4.518   3.067   2.848
19516WAT     H258791   4.518   3.226   2.886
19517WAT      O58792   7.537   3.457   4.541
19517WAT     H158793   7.606   3.530   4.533
19517WAT     H258794   7.451   3.496   4.574
19518WAT      O58795   8.817   7.076   5.395
19518WAT     H158796   8.838   7.007   5.464
19518WAT     H258797   8.901   7.102   5.347
19519WAT      O58798   7.053   7.241   7.950
19519WAT     H158799   7.095   7.307   7.887
19519WAT     H258800   6.966   7.209   7.912
19520WAT      O58801   4.481   1.667   6.200
19520WAT     H158802   4.492   1.745   6.139
19520WAT     H258803   4.399   1.616   6.175
19521WAT      O58804   7.025   1.486   2.309
19521WAT     H158805   7.051   1.518   2.218
19521WAT     H258806   6.935   1.444   2.306
19522WAT      O58807   5.924   7.862   1.696
19522WAT     H158808   5.945   7.953   1.662
19522WAT     H258809   5.923   7.863   1.796
19523WAT      O58810   2.984   1.987   3.829
19523WAT     H158811   3.014   2.014   3.920
19523WAT     H258812   2.986   2.067   3.768
19524WAT      O58813   2.713   4.335   1.463
19524WAT     H158814   2.651   4.410   1.439
19524WAT     H258815   2.666   4.248   1.452
19525WAT      O58816   0.408   4.139   6.682
19525WAT     H158817   0.455   4.051   6.689
19525WAT     H258818   0.468   4.205   6.638
19526WAT      O58819   7.739   2.785   7.009
19526WAT     H158820   7.671   2.858   7.017
19526WAT     H258821   7.819   2.808   7.065
19527WAT      O58822   6.055   0.441   0.736
19527WAT     H158823   6.043   0.344   0.711
19527WAT     H258824   6.021   0.456   0.829
19528WAT      O58825   8.672   9.013   4.699
19528WAT     H158826   8.755   9.066   4.683
19528WAT     H258827   8.675   8.974   4.791
19529WAT      O58828   6.458   6.198   3.289
19529WAT     H158829   6.511   6.162   3.366
19529WAT     H258830   6.481   6.147   3.206
19530WAT      O58831   3.077   8.140   2.874
19530WAT     H158832   2.996   8.105   2.826
19530WAT     H258833   3.048   8.182   2.960
19531WAT      O58834   2.299   6.607   4.548
19531WAT     H158835   2.214   6.655   4.531
19531WAT     H258836   2.373   6.651   4.498
19532WAT      O58837   1.043   9.614   9.529
19532WAT     H158838   1.099   9.542   9.487
19532WAT     H258839   1.062   9.701   9.484
19533WAT      O58840   6.977   2.095   3.699
19533WAT     H158841   7.006   2.009   3.740
19533WAT     H258842   6.916   2.076   3.622
19534WAT      O58843   2.442   1.485   2.329
19534WAT     H158844   2.344   1.496   2.314
19534WAT     H258845   2.480   1.427   2.257
19535WAT      O58846   8.948   7.053   3.924
19535WAT     H158847   8.983   7.026   4.014
19535WAT     H258848   8.941   7.153   3.920
19536WAT      O58849   8.860   9.558   3.397
19536WAT     H158850   8.931   9.570   3.328
19536WAT     H258851   8.771   9.581   3.357
19537WAT      O58852   5.322   0.304   9.489
19537WAT     H158853   5.398   0.242   9.511
19537WAT     H258854   5.288   0.282   9.397
19538WAT      O58855   2.633   1.680   4.261
19538WAT     H158856   2.537   1.705   4.248
19538WAT     H258857   2.688   1.716   4.185
19539WAT      O58858   4.845   6.373   5.075
19539WAT     H158859   4.826   6.370   4.977
19539WAT     H258860   4.762   6.399   5.124
19540WAT      O58861   5.647   8.842   0.550
19540WAT     H158862   5.673   8.930   0.590
19540WAT     H258863   5.587   8.794   0.614
19541WAT      O58864   6.010   0.602   1.255
19541WAT     H158865   6.055   0.515   1.276
19541WAT     H258866   6.075   0.677   1.270
19542WAT      O58867   5.281   7.096   8.747
19542WAT     H158868   5.318   7.073   8.837
19542WAT     H258869   5.304   7.191   8.725
19543WAT      O58870   2.066   7.145   6.626
19543WAT     H158871   2.130   7.165   6.551
19543WAT     H258872   2.003   7.222   6.636
19544WAT      O58873   5.440   0.865   1.382
19544WAT     H158874   5.445   0.888   1.480
19544WAT     H258875   5.388   0.936   1.335
19545WAT      O58876   1.482   8.767   7.499
19545WAT     H158877   1.449   8.684   7.455
19545WAT     H258878   1.558   8.745   7.560
19546WAT      O58879   1.958   4.596   9.747
19546WAT     H158880   1.946   4.511   9.799
19546WAT     H258881   2.055   4.613   9.732
19547WAT      O58882   7.186   0.778   6.662
19547WAT     H158883   7.141   0.689   6.672
19547WAT     H258884   7.153   0.822   6.578
19548WAT      O58885   5.369   4.377   7.084
19548WAT     H158886   5.324   4.364   7.172
19548WAT     H258887   5.303   4.409   7.017
19549WAT      O58888   7.635   8.718   6.429
19549WAT     H158889   7.689   8.697   6.348
19549WAT     H258890   7.644   8.644   6.496
19550WAT      O58891   2.759   1.866   8.981
19550WAT     H158892   2.674   1.899   8.940
19550WAT     H258893   2.756   1.881   9.080
19551WAT      O58894   4.287   4.602   3.934
19551WAT     H158895   4.336   4.680   3.974
19551WAT     H258896   4.259   4.625   3.840
19552WAT      O58897   7.729   2.363   6.102
19552WAT     H158898   7.824   2.341   6.123
19552WAT     H258899   7.685   2.284   6.058
19553WAT      O58900   4.220   5.843   1.971
19553WAT     H158901   4.178   5.930   1.944
19553WAT     H258902   4.233   5.841   2.070
19554WAT      O58903   2.276   3.053   9.804
19554WAT     H158904   2.347   3.120   9.829
19554WAT     H258905   2.224   3.087   9.726
19555WAT      O58906   0.760   9.247   2.406
19555WAT     H158907   0.833   9.200   2.455
19555WAT     H258908   0.757   9.343   2.434
19556WAT      O58909   0.570   3.661   4.507
19556WAT     H158910   0.522   3.582   4.545
19556WAT     H258911   0.506   3.739   4.502
19557WAT      O58912   8.463   9.306   8.513
19557WAT     H158913   8.451   9.308   8.613
19557WAT     H258914   8.425   9.222   8.476
19558WAT      O58915   7.556   3.734   8.628
19558WAT     H158916   7.548   3.649   8.575
19558WAT     H258917   7.470   3.750   8.677
19559WAT      O58918   6.561   2.888   3.461
19559WAT     H158919   6.493   2.856   3.396
19559WAT     H258920   6.606   2.969   3.425
19560WAT      O58921   7.537   5.560   1.402
19560WAT     H158922   7.476   5.625   1.447
19560WAT     H258923   7.547   5.479   1.460
19561WAT      O58924   7.939   9.823   0.974
19561WAT     H158925   7.885   9.876   0.909
19561WAT     H258926   8.012   9.881   1.012
19562WAT      O58927   6.923   7.525   4.587
19562WAT     H158928   6.943   7.428   4.575
19562WAT     H258929   6.843   7.550   4.531
19563WAT      O58930   7.078   5.314   2.490
19563WAT     H158931   7.132   5.327   2.573
19563WAT     H258932   7.019   5.393   2.476
19564WAT      O58933   8.398   2.010   7.446
19564WAT     H158934   8.423   1.917   7.419
19564WAT     H258935   8.454   2.076   7.396
19565WAT      O58936   8.883   8.416   8.182
19565WAT     H158937   8.804   8.418   8.243
19565WAT     H258938   8.926   8.326   8.185
19566WAT      O58939   8.664   1.195   1.461
19566WAT     H158940   8.628   1.226   1.549
19566WAT     H258941   8.741   1.252   1.434
19567WAT      O58942   0.399   4.968   7.947
19567WAT     H158943   0.341   4.965   7.866
19567WAT     H258944   0.477   4.908   7.936
19568WAT      O58945   2.541   4.735   6.258
19568WAT     H158946   2.483   4.804   6.301
19568WAT     H258947   2.562   4.762   6.164
19569WAT      O58948   6.040   5.467   7.672
19569WAT     H158949   6.040   5.370   7.648
19569WAT     H258950   6.104   5.483   7.747
19570WAT      O58951   7.024   8.426   6.891
19570WAT     H158952   7.015   8.411   6.792
19570WAT     H258953   7.057   8.519   6.907
19571WAT      O58954   2.133   8.311   2.960
19571WAT     H158955   2.193   8.234   2.939
19571WAT     H258956   2.117   8.315   3.058
19572WAT      O58957   9.592   0.690   4.789
19572WAT     H158958   9.575   0.616   4.854
19572WAT     H258959   9.690   0.707   4.783
19573WAT      O58960   7.988   0.936   2.010
19573WAT     H158961   7.949   1.017   2.054
19573WAT     H258962   8.037   0.963   1.927
19574WAT      O58963   1.730   4.340   9.154
19574WAT     H158964   1.724   4.414   9.086
19574WAT     H258965   1.693   4.372   9.241
19575WAT      O58966   3.121   6.209   3.051
19575WAT     H158967   3.080   6.281   2.994
19575WAT     H258968   3.199   6.247   3.101
19576WAT      O58969   1.114   2.939   5.395
19576WAT     H158970   1.030   2.992   5.383
19576WAT     H258971   1.095   2.842   5.380
19577WAT      O58972   3.397   0.368   9.307
19577WAT     H158973   3.496   0.374   9.297
19577WAT     H258974   3.361   0.455   9.339
19578WAT      O58975   1.505   4.007   8.569
19578WAT     H158976   1.559   3.973   8.491
19578WAT     H258977   1.475   3.929   8.625
19579WAT      O58978   6.600   1.528   2.075
19579WAT     H158979   6.657   1.584   2.136
19579WAT     H258980   6.511   1.572   2.063
19580WAT      O58981   0.207   8.203   4.400
19580WAT     H158982   0.299   8.191   4.364
19580WAT     H258983   0.208   8.193   4.499
19581WAT      O58984   5.818   8.327   8.874
19581WAT     H158985   5.844   8.384   8.952
19581WAT     H258986   5.748   8.261   8.902
19582WAT      O58987   8.552   4.770   8.437
19582WAT     H158988   8.629   4.825   8.469
19582WAT     H258989   8.581   4.674   8.428
19583WAT      O58990   3.328   1.162   5.503
19583WAT     H158991   3.357   1.091   5.439
19583WAT     H258992   3.233   1.147   5.529
19584WAT      O58993   6.129   4.929   6.831
19584WAT     H158994   6.132   4.886   6.921
19584WAT     H258995   6.141   5.028   6.841
19585WAT      O58996   9.072   7.366   8.901
19585WAT     H158997   9.087   7.401   8.808
19585WAT     H258998   9.079   7.266   8.900
19586WAT      O58999   0.116   8.767   2.373
19586WAT     H159000   0.067   8.748   2.458
19586WAT     H259001   0.213   8.747   2.385
19587WAT      O59002   0.469   0.268   3.955
19587WAT     H159003   0.427   0.332   4.020
19587WAT     H259004   0.515   0.195   4.006
19588WAT      O59005   2.731   7.922   8.581
19588WAT     H159006   2.747   8.016   8.550
19588WAT     H259007   2.644   7.919   8.632
19589WAT      O59008   5.289   1.249   9.375
19589WAT     H159009   5.310   1.325   9.314
19589WAT     H259010   5.196   1.259   9.410
19590WAT      O59011   7.573   6.091   2.611
19590WAT     H159012   7.615   6.181   2.622
19590WAT     H259013   7.479   6.102   2.578
19591WAT      O59014   1.737   4.477   3.763
19591WAT     H159015   1.664   4.413   3.738
19591WAT     H259016   1.822   4.426   3.779
19592WAT      O59017   4.471   1.891   0.673
19592WAT     H159018   4.556   1.857   0.713
19592WAT     H259019   4.424   1.816   0.625
19593WAT      O59020   1.107   2.151   0.484
19593WAT     H159021   1.143   2.144   0.577
19593WAT     H259022   1.017   2.193   0.486
19594WAT      O59023   4.359   0.341   3.041
19594WAT     H159024   4.304   0.404   3.095
19594WAT     H259025   4.312   0.253   3.034
19595WAT      O59026   3.763   1.641   8.603
19595WAT     H159027   3.664   1.628   8.611
19595WAT     H259028   3.783   1.739   8.602
19596WAT      O59029   3.927   6.751   6.766
19596WAT     H159030   3.867   6.676   6.738
19596WAT     H259031   3.871   6.829   6.794
19597WAT      O59032   4.111   9.577   9.297
19597WAT     H159033   4.033   9.574   9.360
19597WAT     H259034   4.179   9.509   9.327
19598WAT      O59035   7.138   3.766   8.257
19598WAT     H159036   7.111   3.671   8.242
19598WAT     H259037   7.236   3.776   8.239
19599WAT      O59038   6.602   3.896   5.626
19599WAT     H159039   6.701   3.906   5.620
19599WAT     H259040   6.572   3.824   5.564
19600WAT      O59041   3.434   3.686   6.972
19600WAT     H159042   3.471   3.755   6.910
19600WAT     H259043   3.371   3.627   6.922
19601WAT      O59044   2.283   2.267   4.215
19601WAT     H159045   2.299   2.213   4.298
19601WAT     H259046   2.239   2.353   4.239
19602WAT      O59047   8.427   0.133   3.177
19602WAT     H159048   8.526   0.137   3.163
19602WAT     H259049   8.389   0.225   3.181
19603WAT      O59050   4.296   1.224   9.476
19603WAT     H159051   4.238   1.143   9.467
19603WAT     H259052   4.248   1.304   9.439
19604WAT      O59053   5.430   4.401   9.382
19604WAT     H159054   5.397   4.422   9.290
19604WAT     H259055   5.402   4.308   9.406
19605WAT      O59056   2.872   6.101   7.844
19605WAT     H159057   2.917   6.024   7.888
19605WAT     H259058   2.845   6.168   7.913
19606WAT      O59059   7.812   4.371   7.921
19606WAT     H159060   7.831   4.276   7.899
19606WAT     H259061   7.867   4.431   7.864
19607WAT      O59062   4.674   8.345   7.202
19607WAT     H159063   4.687   8.443   7.189
19607WAT     H259064   4.665   8.300   7.113
19608WAT      O59065   2.714   7.543   5.799
19608WAT     H159066   2.683   7.595   5.720
19608WAT     H259067   2.713   7.601   5.881
19609WAT      O59068   8.253   0.045   3.366
19609WAT     H159069   8.163   0.078   3.339
19609WAT     H259070   8.323   0.088   3.310
19610WAT      O59071   6.816   2.273   7.536
19610WAT     H159072   6.771   2.222   7.463
19610WAT     H259073   6.911   2.243   7.544
19611WAT      O59074   4.933   5.416   9.661
19611WAT     H159075   4.850   5.384   9.615
19611WAT     H259076   4.914   5.430   9.759
19612WAT      O59077   3.943   7.794   4.057
19612WAT     H159078   4.034   7.757   4.041
19612WAT     H259079   3.888   7.727   4.108
19613WAT      O59080   3.586   7.003   9.727
19613WAT     H159081   3.529   7.023   9.806
19613WAT     H259082   3.623   6.910   9.734
19614WAT      O59083   6.346   5.425   8.370
19614WAT     H159084   6.367   5.504   8.427
19614WAT     H259085   6.247   5.421   8.354
19615WAT      O59086   4.589   3.734   4.180
19615WAT     H159087   4.667   3.672   4.182
19615WAT     H259088   4.563   3.758   4.273
19616WAT      O59089   2.371   5.813   4.880
19616WAT     H159090   2.344   5.716   4.877
19616WAT     H259091   2.411   5.833   4.969
19617WAT      O59092   5.874   8.020   8.078
19617WAT     H159093   5.949   8.024   8.012
19617WAT     H259094   5.786   8.016   8.029
19618WAT      O59095   3.157   2.078   2.177
19618WAT     H159096   3.124   1.984   2.189
19618WAT     H259097   3.256   2.077   2.165
19619WAT      O59098   6.973   8.089   4.752
19619WAT     H159099   6.959   8.107   4.654
19619WAT     H259100   6.887   8.060   4.793
19620WAT      O59101   4.780   5.081   2.041
19620WAT     H159102   4.765   5.040   1.951
19620WAT     H259103   4.738   5.024   2.111
19621WAT      O59104   3.644   3.918   6.430
19621WAT     H159105   3.685   3.895   6.342
19621WAT     H259106   3.702   3.885   6.504
19622WAT      O59107   3.466   5.513   1.087
19622WAT     H159108   3.523   5.558   1.018
19622WAT     H259109   3.414   5.440   1.043
19623WAT      O59110   3.075   2.879   0.376
19623WAT     H159111   3.175   2.883   0.379
19623WAT     H259112   3.037   2.923   0.458
19624WAT      O59113   6.321   0.530   4.420
19624WAT     H159114   6.321   0.475   4.503
19624WAT     H259115   6.266   0.485   4.350
19625WAT      O59116   3.044   5.762   6.019
19625WAT     H159117   2.987   5.823   6.075
19625WAT     H259118   3.050   5.672   6.064
19626WAT      O59119   0.378   7.437   7.485
19626WAT     H159120   0.401   7.403   7.577
19626WAT     H259121   0.425   7.523   7.469
19627WAT      O59122   8.079   5.829   7.019
19627WAT     H159123   8.088   5.920   6.980
19627WAT     H259124   8.040   5.767   6.950
19628WAT      O59125   0.396   0.765   4.909
19628WAT     H159126   0.318   0.705   4.896
19628WAT     H259127   0.452   0.766   4.826
19629WAT      O59128   9.294   0.627   9.132
19629WAT     H159129   9.215   0.606   9.073
19629WAT     H259130   9.307   0.553   9.197
19630WAT      O59131   4.078   8.036   4.375
19630WAT     H159132   4.131   7.956   4.345
19630WAT     H259133   3.982   8.010   4.385
19631WAT      O59134   5.131   0.632   8.987
19631WAT     H159135   5.166   0.548   8.945
19631WAT     H259136   5.031   0.631   8.986
19632WAT      O59137   8.313   5.519   9.494
19632WAT     H159138   8.293   5.422   9.480
19632WAT     H259139   8.243   5.574   9.448
19633WAT      O59140   1.803   1.875   3.769
19633WAT     H159141   1.834   1.796   3.717
19633WAT     H259142   1.714   1.855   3.810
19634WAT      O59143   2.848   3.357   7.156
19634WAT     H159144   2.769   3.300   7.136
19634WAT     H259145   2.872   3.349   7.252
19635WAT      O59146   8.878   5.502   6.958
19635WAT     H159147   8.892   5.403   6.968
19635WAT     H259148   8.966   5.548   6.950
19636WAT      O59149   6.457   2.267   1.034
19636WAT     H159150   6.375   2.295   0.983
19636WAT     H259151   6.472   2.169   1.021
19637WAT      O59152   8.425   1.421   7.144
19637WAT     H159153   8.495   1.447   7.210
19637WAT     H259154   8.385   1.333   7.170
19638WAT      O59155   0.888   6.293   9.225
19638WAT     H159156   0.918   6.201   9.251
19638WAT     H259157   0.879   6.350   9.307
19639WAT      O59158   7.617   5.062   7.060
19639WAT     H159159   7.574   5.136   7.008
19639WAT     H259160   7.699   5.096   7.105
19640WAT      O59161   5.552   6.680   2.366
19640WAT     H159162   5.472   6.701   2.310
19640WAT     H259163   5.632   6.669   2.308
19641WAT      O59164   2.084   1.400   6.986
19641WAT     H159165   2.051   1.327   6.925
19641WAT     H259166   2.006   1.438   7.036
19642WAT      O59167   0.035   6.408   7.034
19642WAT     H159168  -0.022   6.487   7.013
19642WAT     H259169   0.118   6.439   7.080
19643WAT      O59170   3.814   8.881   3.351
19643WAT     H159171   3.788   8.915   3.442
19643WAT     H259172   3.865   8.796   3.362
19644WAT      O59173   7.612   0.966   3.841
19644WAT     H159174   7.671   0.950   3.762
19644WAT     H259175   7.631   0.897   3.911
19645WAT      O59176   9.109   8.646   5.724
19645WAT     H159177   9.117   8.565   5.666
19645WAT     H259178   9.178   8.642   5.796
19646WAT      O59179   4.827   5.761   8.168
19646WAT     H159180   4.804   5.791   8.260
19646WAT     H259181   4.839   5.661   8.168
19647WAT      O59182   3.356   4.389   9.288
19647WAT     H159183   3.396   4.410   9.377
19647WAT     H259184   3.355   4.290   9.274
19648WAT      O59185   6.509   8.941   9.639
19648WAT     H159186   6.563   8.898   9.713
19648WAT     H259187   6.572   8.978   9.570
19649WAT      O59188   0.968   8.074   8.995
19649WAT     H159189   0.995   8.016   9.071
19649WAT     H259190   0.877   8.113   9.013
19650WAT      O59191   9.422   8.993   1.710
19650WAT     H159192   9.425   9.067   1.777
19650WAT     H259193   9.327   8.965   1.695
19651WAT      O59194   4.163   0.539   0.951
19651WAT     H159195   4.253   0.497   0.964
19651WAT     H259196   4.127   0.570   1.039
19652WAT      O59197   9.065   0.246   8.211
19652WAT     H159198   9.104   0.164   8.251
19652WAT     H259199   8.992   0.280   8.271
19653WAT      O59200   1.760   6.523   3.786
19653WAT     H159201   1.703   6.444   3.811
19653WAT     H259202   1.851   6.492   3.760
19654WAT      O59203   3.428   6.499   8.244
19654WAT     H159204   3.378   6.431   8.298
19654WAT     H259205   3.467   6.567   8.305
19655WAT      O59206   5.656   1.275   0.012
19655WAT     H159207   5.652   1.247  -0.084
19655WAT     H259208   5.731   1.226   0.058
19656WAT      O59209   1.073   6.134   0.488
19656WAT     H159210   1.088   6.062   0.420
19656WAT     H259211   1.022   6.096   0.565
19657WAT      O59212   7.165   9.637   4.847
19657WAT     H159213   7.203   9.602   4.933
19657WAT     H259214   7.220   9.714   4.815
19658WAT      O59215   9.237   9.563   4.356
19658WAT     H159216   9.318   9.600   4.402
19658WAT     H259217   9.207   9.481   4.404
19659WAT      O59218   8.176   6.072   3.802
19659WAT     H159219   8.118   6.023   3.736
19659WAT     H259220   8.162   6.033   3.893
19660WAT      O59221   2.937   0.339   8.007
19660WAT     H159222   2.970   0.288   7.927
19660WAT     H259223   2.937   0.437   7.985
19661WAT      O59224   4.142   2.768   1.607
19661WAT     H159225   4.156   2.818   1.522
19661WAT     H259226   4.230   2.731   1.639
19662WAT      O59227   8.889   3.075   9.298
19662WAT     H159228   8.931   3.004   9.354
19662WAT     H259229   8.897   3.163   9.345
19663WAT      O59230   3.888   1.086   6.692
19663WAT     H159231   3.867   1.124   6.782
19663WAT     H259232   3.863   1.152   6.621
19664WAT      O59233   7.331   0.300   3.809
19664WAT     H159234   7.310   0.333   3.717
19664WAT     H259235   7.376   0.373   3.860
19665WAT      O59236   1.132   8.972   2.281
19665WAT     H159237   1.161   8.887   2.238
19665WAT     H259238   1.165   8.975   2.375
19666WAT      O59239   9.179   9.798   8.311
19666WAT     H159240   9.260   9.799   8.252
19666WAT     H259241   9.175   9.712   8.361
19667WAT      O59242   6.840   0.776   8.606
19667WAT     H159243   6.832   0.868   8.568
19667WAT     H259244   6.921   0.731   8.567
19668WAT      O59245   2.942   2.090   7.393
19668WAT     H159246   2.984   2.055   7.478
19668WAT     H259247   2.923   2.187   7.403
19669WAT      O59248   5.508   3.632   9.627
19669WAT     H159249   5.533   3.714   9.576
19669WAT     H259250   5.591   3.586   9.659
19670WAT      O59251   9.038   5.894   6.317
19670WAT     H159252   9.013   5.887   6.414
19670WAT     H259253   8.981   5.833   6.263
19671WAT      O59254   5.070   8.195   1.423
19671WAT     H159255   5.147   8.176   1.362
19671WAT     H259256   5.084   8.147   1.510
19672WAT      O59257   1.942   5.357   7.143
19672WAT     H159258   1.929   5.261   7.115
19672WAT     H259259   1.972   5.411   7.064
19673WAT      O59260   0.113   1.664   4.471
19673WAT     H159261   0.162   1.725   4.409
19673WAT     H259262   0.021   1.648   4.435
19674WAT      O59263   8.938   8.374   4.192
19674WAT     H159264   9.028   8.383   4.150
19674WAT     H259265   8.906   8.280   4.183
19675WAT      O59266   2.101   7.905   7.453
19675WAT     H159267   2.103   7.914   7.553
19675WAT     H259268   2.033   7.837   7.427
19676WAT      O59269   2.822   5.249   6.766
19676WAT     H159270   2.745   5.273   6.706
19676WAT     H259271   2.891   5.321   6.761
19677WAT      O59272   1.414   6.813   0.456
19677WAT     H159273   1.320   6.840   0.478
19677WAT     H259274   1.421   6.796   0.358
19678WAT      O59275   6.284   9.003   8.009
19678WAT     H159276   6.304   9.101   8.002
19678WAT     H259277   6.335   8.953   7.938
19679WAT      O59278   4.895   8.847   7.919
19679WAT     H159279   4.811   8.893   7.890
19679WAT     H259280   4.884   8.809   8.010
19680WAT      O59281   0.992   9.442   7.361
19680WAT     H159282   0.898   9.406   7.360
19680WAT     H259283   1.055   9.371   7.331
19681WAT      O59284   6.633   3.651   0.091
19681WAT     H159285   6.637   3.749   0.075
19681WAT     H259286   6.620   3.634   0.189
19682WAT      O59287   7.570   2.311   5.822
19682WAT     H159288   7.629   2.245   5.776
19682WAT     H259289   7.577   2.400   5.778
19683WAT      O59290   5.443   9.115   0.241
19683WAT     H159291   5.519   9.177   0.224
19683WAT     H259292   5.390   9.104   0.158
19684WAT      O59293   8.476   5.983   8.402
19684WAT     H159294   8.566   5.983   8.444
19684WAT     H259295   8.441   5.890   8.397
19685WAT      O59296   5.412   8.182   9.107
19685WAT     H159297   5.333   8.150   9.055
19685WAT     H259298   5.416   8.133   9.195
19686WAT      O59299   2.372   7.118   8.649
19686WAT     H159300   2.324   7.201   8.679
19686WAT     H259301   2.330   7.084   8.565
19687WAT      O59302   3.217   7.075   7.311
19687WAT     H159303   3.175   7.122   7.233
19687WAT     H259304   3.151   7.069   7.386
19688WAT      O59305   0.755   7.693   1.135
19688WAT     H159306   0.673   7.750   1.137
19688WAT     H259307   0.834   7.747   1.164
19689WAT      O59308   8.845   3.472   4.034
19689WAT     H159309   8.752   3.504   4.049
19689WAT     H259310   8.909   3.548   4.043
19690WAT      O59311   8.110   2.485   8.975
19690WAT     H159312   8.190   2.454   9.027
19690WAT     H259313   8.140   2.527   8.889
19691WAT      O59314   6.887   2.599   5.237
19691WAT     H159315   6.933   2.672   5.287
19691WAT     H259316   6.788   2.615   5.237
19692WAT      O59317   5.324   0.524   8.660
19692WAT     H159318   5.253   0.543   8.728
19692WAT     H259319   5.284   0.475   8.583
19693WAT      O59320   6.348   6.013   9.322
19693WAT     H159321   6.344   5.932   9.263
19693WAT     H259322   6.263   6.065   9.313
19694WAT      O59323   7.391   3.876   9.885
19694WAT     H159324   7.404   3.966   9.927
19694WAT     H259325   7.315   3.829   9.929
19695WAT      O59326   7.968   0.247   3.539
19695WAT     H159327   7.964   0.294   3.628
19695WAT     H259328   7.875   0.232   3.505
19696WAT      O59329   0.337   3.975   2.814
19696WAT     H159330   0.253   3.927   2.788
19696WAT     H259331   0.350   3.966   2.913
19697WAT      O59332   9.538   6.790   4.904
19697WAT     H159333   9.634   6.785   4.876
19697WAT     H259334   9.518   6.717   4.969
19698WAT      O59335   4.861   5.049   5.665
19698WAT     H159336   4.928   5.121   5.679
19698WAT     H259337   4.832   5.012   5.754
19699WAT      O59338   9.575   4.720   7.147
19699WAT     H159339   9.617   4.645   7.199
19699WAT     H259340   9.475   4.714   7.155
19700WAT      O59341   4.079   0.526   9.318
19700WAT     H159342   4.058   0.451   9.382
19700WAT     H259343   4.167   0.510   9.275
19701WAT      O59344   0.566   7.533   2.006
19701WAT     H159345   0.637   7.486   1.953
19701WAT     H259346   0.605   7.617   2.045
19702WAT      O59347   0.931   3.050   6.827
19702WAT     H159348   0.955   3.020   6.735
19702WAT     H259349   0.936   2.972   6.890
19703WAT      O59350   6.067   8.407   4.965
19703WAT     H159351   6.063   8.308   4.955
19703WAT     H259352   6.128   8.446   4.895
19704WAT      O59353   2.818   1.841   4.833
19704WAT     H159354   2.791   1.761   4.780
19704WAT     H259355   2.916   1.859   4.819
19705WAT      O59356   2.805   4.675   7.258
19705WAT     H159357   2.753   4.599   7.297
19705WAT     H259358   2.743   4.752   7.242
19706WAT      O59359   3.602   7.388   8.698
19706WAT     H159360   3.597   7.355   8.793
19706WAT     H259361   3.526   7.450   8.681
19707WAT      O59362   6.604   6.005   1.757
19707WAT     H159363   6.636   6.029   1.848
19707WAT     H259364   6.636   5.913   1.734
19708WAT      O59365   6.920   7.919   9.865
19708WAT     H159366   6.903   7.970   9.781
19708WAT     H259367   6.879   7.969   9.942
19709WAT      O59368   9.553   4.296   6.300
19709WAT     H159369   9.622   4.307   6.371
19709WAT     H259370   9.505   4.209   6.312
19710WAT      O59371   1.222   4.509   2.362
19710WAT     H159372   1.283   4.470   2.432
19710WAT     H259373   1.271   4.515   2.275
19711WAT      O59374   7.653   3.217   0.902
19711WAT     H159375   7.753   3.221   0.894
19711WAT     H259376   7.625   3.261   0.988
19712WAT      O59377   7.519   8.827   7.920
19712WAT     H159378   7.448   8.773   7.875
19712WAT     H259379   7.583   8.863   7.852
19713WAT      O59380   4.550   8.790   4.102
19713WAT     H159381   4.637   8.808   4.056
19713WAT     H259382   4.560   8.714   4.166
19714WAT      O59383   7.564   7.254   7.188
19714WAT     H159384   7.540   7.251   7.091
19714WAT     H259385   7.496   7.204   7.241
19715WAT      O59386   5.010   1.818   0.460
19715WAT     H159387   4.987   1.900   0.408
19715WAT     H259388   5.093   1.776   0.422
19716WAT      O59389   4.466   3.279   3.271
19716WAT     H159390   4.472   3.292   3.172
19716WAT     H259391   4.524   3.202   3.297
19717WAT      O59392   1.612   0.412   4.429
19717WAT     H159393   1.702   0.423   4.387
19717WAT     H259394   1.586   0.315   4.427
19718WAT      O59395   2.637   2.037   5.015
19718WAT     H159396   2.729   2.003   4.994
19718WAT     H259397   2.593   1.976   5.080
19719WAT      O59398   3.999   9.362   2.847
19719WAT     H159399   3.938   9.291   2.883
19719WAT     H259400   4.028   9.421   2.922
19720WAT      O59401   1.919   0.996   3.404
19720WAT     H159402   1.929   1.058   3.482
19720WAT     H259403   1.993   0.928   3.406
19721WAT      O59404   4.625   9.096   6.140
19721WAT     H159405   4.698   9.045   6.186
19721WAT     H259406   4.569   9.033   6.087
19722WAT      O59407   0.980   0.798   4.861
19722WAT     H159408   0.916   0.867   4.893
19722WAT     H259409   0.934   0.709   4.857
19723WAT      O59410   3.912   6.817   2.040
19723WAT     H159411   3.962   6.731   2.054
19723WAT     H259412   3.814   6.798   2.036
19724WAT      O59413   8.920   5.691   9.223
19724WAT     H159414   8.962   5.717   9.310
19724WAT     H259415   8.828   5.730   9.217
19725WAT      O59416   1.967   9.376   1.001
19725WAT     H159417   2.004   9.299   1.053
19725WAT     H259418   1.975   9.356   0.903
19726WAT      O59419   1.368   1.666   7.469
19726WAT     H159420   1.332   1.573   7.476
19726WAT     H259421   1.437   1.670   7.397
19727WAT      O59422   1.402   3.255   6.077
19727WAT     H159423   1.438   3.178   6.025
19727WAT     H259424   1.416   3.339   6.025
19728WAT      O59425   7.468   9.462   8.622
19728WAT     H159426   7.495   9.445   8.717
19728WAT     H259427   7.482   9.559   8.601
19729WAT      O59428   1.740   9.628   1.007
19729WAT     H159429   1.756   9.546   1.062
19729WAT     H259430   1.642   9.633   0.984
19730WAT      O59431   9.382   1.686   9.242
19730WAT     H159432   9.378   1.782   9.271
19730WAT     H259433   9.298   1.663   9.192
19731WAT      O59434   3.455   1.972   9.561
19731WAT     H159435   3.529   2.038   9.577
19731WAT     H259436   3.374   2.001   9.612
19732WAT      O59437   1.263   5.119   2.059
19732WAT     H159438   1.255   5.216   2.081
19732WAT     H259439   1.173   5.082   2.039
19733WAT      O59440   5.841   5.159   1.931
19733WAT     H159441   5.769   5.222   1.962
19733WAT     H259442   5.928   5.183   1.974
19734WAT      O59443   0.131   8.802   1.478
19734WAT     H159444   0.102   8.884   1.429
19734WAT     H259445   0.177   8.828   1.563
19735WAT      O59446   3.751   3.048   1.934
19735WAT     H159447   3.727   3.068   2.029
19735WAT     H259448   3.680   3.084   1.873
19736WAT      O59449   5.447   2.586   3.163
19736WAT     H159450   5.363   2.585   3.218
19736WAT     H259451   5.438   2.655   3.091
19737WAT      O59452   7.567   3.068   9.451
19737WAT     H159453   7.603   2.976   9.440
19737WAT     H259454   7.582   3.120   9.366
19738WAT      O59455   6.211   0.484   9.148
19738WAT     H159456   6.247   0.391   9.137
19738WAT     H259457   6.203   0.527   9.058
19739WAT      O59458   1.578   9.572   4.915
19739WAT     H159459   1.513   9.564   4.840
19739WAT     H259460   1.559   9.655   4.968
19740WAT      O59461   9.328   2.586   2.783
19740WAT     H159462   9.280   2.501   2.762
19740WAT     H259463   9.281   2.634   2.857
19741WAT      O59464   3.004   4.514   7.132
19741WAT     H159465   2.960   4.424   7.135
19741WAT     H259466   2.936   4.585   7.147
19742WAT      O59467   8.344   6.747   0.403
19742WAT     H159468   8.435   6.753   0.442
19742WAT     H259469   8.276   6.756   0.476
19743WAT      O59470   4.668   6.652   6.611
19743WAT     H159471   4.707   6.600   6.687
19743WAT     H259472   4.603   6.719   6.647
19744WAT      O59473   6.154   0.308   8.645
19744WAT     H159474   6.191   0.398   8.622
19744WAT     H259475   6.222   0.256   8.696
19745WAT      O59476   3.650   8.760   2.682
19745WAT     H159477   3.651   8.662   2.663
19745WAT     H259478   3.561   8.786   2.719
19746WAT      O59479   5.413   7.288   2.567
19746WAT     H159480   5.376   7.305   2.658
19746WAT     H259481   5.352   7.225   2.518
19747WAT      O59482   4.044   9.799   1.827
19747WAT     H159483   4.047   9.706   1.864
19747WAT     H259484   4.070   9.798   1.731
19748WAT      O59485   9.706   3.528   6.318
19748WAT     H159486   9.726   3.602   6.382
19748WAT     H259487   9.612   3.536   6.286
19749WAT      O59488   3.472   7.515   1.530
19749WAT     H159489   3.490   7.506   1.628
19749WAT     H259490   3.548   7.476   1.478
19750WAT      O59491   2.917   3.256   8.548
19750WAT     H159492   2.874   3.321   8.485
19750WAT     H259493   2.975   3.306   8.612
19751WAT      O59494   4.477   2.978   0.384
19751WAT     H159495   4.470   3.076   0.404
19751WAT     H259496   4.526   2.965   0.298
19752WAT      O59497   8.407   0.938   9.631
19752WAT     H159498   8.324   0.893   9.662
19752WAT     H259499   8.485   0.877   9.643
19753WAT      O59500   7.274   1.566   4.056
19753WAT     H159501   7.210   1.634   4.020
19753WAT     H259502   7.360   1.571   4.006
19754WAT      O59503   8.884   8.858   9.015
19754WAT     H159504   8.905   8.882   9.109
19754WAT     H259505   8.954   8.896   8.954
19755WAT      O59506   1.019   6.791   4.862
19755WAT     H159507   0.977   6.806   4.952
19755WAT     H259508   1.077   6.709   4.866
19756WAT      O59509   8.572   9.368   6.677
19756WAT     H159510   8.630   9.290   6.702
19756WAT     H259511   8.476   9.345   6.695
19757WAT      O59512   4.463   6.843   1.791
19757WAT     H159513   4.404   6.896   1.852
19757WAT     H259514   4.412   6.766   1.754
19758WAT      O59515   8.357   3.712   5.885
19758WAT     H159516   8.383   3.766   5.965
19758WAT     H259517   8.257   3.710   5.878
19759WAT      O59518   0.416   6.520   5.318
19759WAT     H159519   0.338   6.542   5.377
19759WAT     H259520   0.393   6.441   5.261
19760WAT      O59521   0.878   2.724   2.836
19760WAT     H159522   0.922   2.669   2.765
19760WAT     H259523   0.948   2.779   2.882
19761WAT      O59524   5.579   7.277   7.629
19761WAT     H159525   5.540   7.332   7.555
19761WAT     H259526   5.513   7.206   7.656
19762WAT      O59527   1.314   6.112   1.280
19762WAT     H159528   1.371   6.036   1.249
19762WAT     H259529   1.340   6.195   1.230
19763WAT      O59530   9.650   0.657   1.722
19763WAT     H159531   9.663   0.740   1.668
19763WAT     H259532   9.604   0.587   1.667
19764WAT      O59533   8.181   6.186   1.912
19764WAT     H159534   8.095   6.214   1.871
19764WAT     H259535   8.254   6.247   1.883
19765WAT      O59536   4.728   8.388   6.234
19765WAT     H159537   4.796   8.322   6.202
19765WAT     H259538   4.700   8.447   6.158
19766WAT      O59539   0.489   4.691   5.773
19766WAT     H159540   0.537   4.765   5.820
19766WAT     H259541   0.535   4.671   5.686
19767WAT      O59542   7.824   1.419   0.939
19767WAT     H159543   7.883   1.347   0.901
19767WAT     H259544   7.836   1.503   0.886
19768WAT      O59545   8.001   4.615   9.341
19768WAT     H159546   7.965   4.708   9.342
19768WAT     H259547   8.065   4.606   9.264
19769WAT      O59548   9.080   9.748   0.912
19769WAT     H159549   9.092   9.725   1.009
19769WAT     H259550   9.060   9.665   0.860
19770WAT      O59551   9.460   5.928   1.162
19770WAT     H159552   9.444   6.024   1.183
19770WAT     H259553   9.551   5.901   1.194
19771WAT      O59554   7.352   0.092   7.498
19771WAT     H159555   7.254   0.076   7.511
19771WAT     H259556   7.385   0.155   7.568
19772WAT      O59557   3.707   2.844   6.355
19772WAT     H159558   3.683   2.940   6.368
19772WAT     H259559   3.805   2.832   6.367
19773WAT      O59560   4.492   7.682   9.204
19773WAT     H159561   4.573   7.720   9.248
19773WAT     H259562   4.517   7.644   9.115
19774WAT      O59563   4.272   7.977   9.538
19774WAT     H159564   4.311   7.959   9.447
19774WAT     H259565   4.196   7.915   9.554
19775WAT      O59566   0.752   3.931   4.271
19775WAT     H159567   0.713   4.015   4.234
19775WAT     H259568   0.737   3.927   4.370
19776WAT      O59569   2.883   5.303   7.524
19776WAT     H159570   2.964   5.296   7.582
19776WAT     H259571   2.911   5.323   7.430
19777WAT      O59572   3.115   3.284   6.174
19777WAT     H159573   3.150   3.198   6.211
19777WAT     H259574   3.118   3.282   6.074
19778WAT      O59575   3.503   5.888   8.925
19778WAT     H159576   3.505   5.856   8.831
19778WAT     H259577   3.562   5.829   8.981
19779WAT      O59578   9.050   5.866   2.584
19779WAT     H159579   9.081   5.775   2.554
19779WAT     H259580   9.077   5.934   2.516
19780WAT      O59581   1.163   7.398   5.989
19780WAT     H159582   1.263   7.407   5.994
19780WAT     H259583   1.140   7.312   5.943
19781WAT      O59584   7.745   8.883   1.017
19781WAT     H159585   7.707   8.974   1.002
19781WAT     H259586   7.768   8.842   0.929
19782WAT      O59587   5.954   3.270   9.800
19782WAT     H159588   5.901   3.192   9.768
19782WAT     H259589   5.933   3.288   9.896
19783WAT      O59590   5.152   7.262   1.006
19783WAT     H159591   5.237   7.212   0.994
19783WAT     H259592   5.079   7.216   0.956
19784WAT      O59593   8.749   0.979   7.227
19784WAT     H159594   8.839   0.988   7.186
19784WAT     H259595   8.722   0.882   7.229
19785WAT      O59596   2.342   4.722   2.257
19785WAT     H159597   2.333   4.682   2.166
19785WAT     H259598   2.436   4.710   2.290
19786WAT      O59599   8.616   5.986   3.072
19786WAT     H159600   8.687   6.054   3.049
19786WAT     H259601   8.605   5.982   3.171
19787WAT      O59602   4.121   1.048   2.832
19787WAT     H159603   4.092   1.119   2.896
19787WAT     H259604   4.040   1.002   2.794
19788WAT      O59605   6.547   9.116   7.835
19788WAT     H159606   6.529   9.162   7.748
19788WAT     H259607   6.495   9.030   7.838
19789WAT      O59608   5.121   2.858   3.897
19789WAT     H159609   5.049   2.927   3.892
19789WAT     H259610   5.174   2.858   3.812
19790WAT      O59611   5.093   8.163   7.382
19790WAT     H159612   4.995   8.185   7.388
19790WAT     H259613   5.126   8.186   7.291
19791WAT      O59614   3.322   2.133   2.888
19791WAT     H159615   3.267   2.216   2.894
19791WAT     H259616   3.273   2.058   2.933
19792WAT      O59617   7.118   2.307   0.654
19792WAT     H159618   7.083   2.221   0.616
19792WAT     H259619   7.212   2.294   0.684
19793WAT      O59620   1.733   1.894   7.919
19793WAT     H159621   1.760   1.847   8.002
19793WAT     H259622   1.677   1.834   7.862
19794WAT      O59623   2.139   1.280   3.667
19794WAT     H159624   2.183   1.369   3.668
19794WAT     H259625   2.049   1.287   3.624
19795WAT      O59626   1.021   0.787   1.209
19795WAT     H159627   1.109   0.835   1.203
19795WAT     H259628   0.947   0.853   1.207
19796WAT      O59629   8.313   2.754   9.541
19796WAT     H159630   8.309   2.696   9.460
19796WAT     H259631   8.285   2.700   9.621
19797WAT      O59632   5.133   3.528   5.193
19797WAT     H159633   5.035   3.535   5.175
19797WAT     H259634   5.148   3.466   5.270
19798WAT      O59635   2.201   3.135   9.559
19798WAT     H159636   2.268   3.109   9.489
19798WAT     H259637   2.114   3.091   9.539
19799WAT      O59638   2.688   2.279   6.035
19799WAT     H159639   2.681   2.230   6.122
19799WAT     H259640   2.769   2.337   6.036
19800WAT      O59641   4.386   6.161   3.616
19800WAT     H159642   4.372   6.259   3.632
19800WAT     H259643   4.365   6.110   3.699
19801WAT      O59644   7.016   4.006   2.737
19801WAT     H159645   7.033   4.015   2.835
19801WAT     H259646   7.103   4.010   2.687
19802WAT      O59647   9.794   4.699   9.378
19802WAT     H159648   9.783   4.630   9.450
19802WAT     H259649   9.709   4.750   9.367
19803WAT      O59650   2.040   7.790   3.159
19803WAT     H159651   2.031   7.752   3.067
19803WAT     H259652   1.978   7.742   3.222
19804WAT      O59653   2.647   7.355   3.824
19804WAT     H159654   2.652   7.453   3.846
19804WAT     H259655   2.733   7.326   3.783
19805WAT      O59656   8.811   8.921   6.855
19805WAT     H159657   8.813   8.898   6.952
19805WAT     H259658   8.810   8.837   6.801
19806WAT      O59659   7.774   4.471   5.719
19806WAT     H159660   7.843   4.540   5.696
19806WAT     H259661   7.720   4.450   5.638
19807WAT      O59662   1.589   8.825   1.571
19807WAT     H159663   1.539   8.912   1.560
19807WAT     H259664   1.640   8.828   1.657
19808WAT      O59665   1.132   4.291   2.606
19808WAT     H159666   1.042   4.288   2.560
19808WAT     H259667   1.120   4.325   2.699
19809WAT      O59668   3.276   2.165   6.168
19809WAT     H159669   3.333   2.221   6.227
19809WAT     H259670   3.333   2.097   6.120
19810WAT      O59671   3.875   6.893   4.517
19810WAT     H159672   3.965   6.857   4.541
19810WAT     H259673   3.812   6.883   4.594
19811WAT      O59674   0.799   5.847   9.389
19811WAT     H159675   0.793   5.834   9.488
19811WAT     H259676   0.895   5.838   9.360
19812WAT      O59677   2.286   7.440   8.481
19812WAT     H159678   2.235   7.359   8.511
19812WAT     H259679   2.224   7.502   8.431
19813WAT      O59680   4.997   9.656   5.405
19813WAT     H159681   5.045   9.641   5.491
19813WAT     H259682   4.929   9.584   5.392
19814WAT      O59683   2.066   7.537   7.890
19814WAT     H159684   2.109   7.626   7.875
19814WAT     H259685   2.104   7.470   7.826
19815WAT      O59686   2.572   6.228   8.822
19815WAT     H159687   2.632   6.227   8.742
19815WAT     H259688   2.478   6.247   8.793
19816WAT      O59689   3.800   8.047   5.936
19816WAT     H159690   3.781   8.015   6.029
19816WAT     H259691   3.894   8.025   5.911
19817WAT      O59692   2.636   5.844   2.141
19817WAT     H159693   2.708   5.848   2.210
19817WAT     H259694   2.625   5.750   2.110
19818WAT      O59695   7.262   4.452   5.106
19818WAT     H159696   7.183   4.441   5.044
19818WAT     H259697   7.346   4.440   5.054
19819WAT      O59698   4.600   1.010   0.488
19819WAT     H159699   4.590   0.954   0.570
19819WAT     H259700   4.626   0.952   0.411
19820WAT      O59701   5.674   0.772   7.932
19820WAT     H159702   5.771   0.769   7.908
19820WAT     H259703   5.656   0.856   7.984
19821WAT      O59704   4.666   5.987   6.856
19821WAT     H159705   4.689   5.902   6.904
19821WAT     H259706   4.749   6.033   6.827
19822WAT      O59707   8.986   0.488   4.150
19822WAT     H159708   8.894   0.525   4.140
19822WAT     H259709   9.017   0.500   4.244
19823WAT      O59710   4.268   2.363   7.057
19823WAT     H159711   4.325   2.430   7.104
19823WAT     H259712   4.205   2.410   6.995
19824WAT      O59713   9.128   0.459   8.847
19824WAT     H159714   9.184   0.542   8.856
19824WAT     H259715   9.145   0.400   8.926
19825WAT      O59716   0.846   4.840   8.321
19825WAT     H159717   0.905   4.877   8.392
19825WAT     H259718   0.844   4.903   8.243
19826WAT      O59719   3.849   9.766   9.790
19826WAT     H159720   3.763   9.803   9.756
19826WAT     H259721   3.899   9.724   9.714
19827WAT      O59722   7.852   8.470   9.387
19827WAT     H159723   7.925   8.407   9.414
19827WAT     H259724   7.816   8.517   9.467
19828WAT      O59725   3.816   8.050   9.533
19828WAT     H159726   3.798   7.985   9.607
19828WAT     H259727   3.774   8.017   9.448
19829WAT      O59728   4.612   8.991   2.795
19829WAT     H159729   4.551   9.033   2.862
19829WAT     H259730   4.637   8.899   2.825
19830WAT      O59731   3.441   9.845   2.735
19830WAT     H159732   3.509   9.822   2.665
19830WAT     H259733   3.388   9.763   2.758
19831WAT      O59734   3.989   3.224   1.938
19831WAT     H159735   4.017   3.277   1.858
19831WAT     H259736   3.918   3.159   1.912
19832WAT      O59737   0.212   8.118   7.431
19832WAT     H159738   0.119   8.144   7.459
19832WAT     H259739   0.214   8.108   7.331
19833WAT      O59740   0.536   9.233   1.059
19833WAT     H159741   0.460   9.241   0.995
19833WAT     H259742   0.569   9.138   1.060
19834WAT      O59743   3.727   0.672   4.732
19834WAT     H159744   3.730   0.577   4.764
19834WAT     H259745   3.719   0.673   4.632
19835WAT      O59746   7.000   8.917   1.138
19835WAT     H159747   6.925   8.851   1.138
19835WAT     H259748   7.087   8.868   1.150
19836WAT      O59749   0.700   4.394   0.919
19836WAT     H159750   0.680   4.414   1.015
19836WAT     H259751   0.648   4.456   0.860
19837WAT      O59752   9.579   8.063   6.736
19837WAT     H159753   9.575   7.984   6.674
19837WAT     H259754   9.591   8.031   6.830
19838WAT      O59755   8.700   9.789   1.437
19838WAT     H159756   8.694   9.701   1.389
19838WAT     H259757   8.659   9.861   1.380
19839WAT      O59758   9.121   2.730   6.227
19839WAT     H159759   9.219   2.711   6.231
19839WAT     H259760   9.076   2.694   6.309
19840WAT      O59761   7.431   4.976   9.857
19840WAT     H159762   7.341   5.020   9.854
19840WAT     H259763   7.448   4.941   9.949
19841WAT      O59764   4.132   4.654   0.623
19841WAT     H159765   4.207   4.610   0.673
19841WAT     H259766   4.120   4.609   0.535
19842WAT      O59767   1.017   7.598   0.093
19842WAT     H159768   0.962   7.542   0.155
19842WAT     H259769   1.068   7.539   0.031
19843WAT      O59770   3.285   2.656   8.081
19843WAT     H159771   3.346   2.706   8.020
19843WAT     H259772   3.288   2.558   8.060
19844WAT      O59773   0.644   5.660   9.303
19844WAT     H159774   0.694   5.576   9.280
19844WAT     H259775   0.705   5.724   9.348
19845WAT      O59776   5.011   7.668   9.414
19845WAT     H159777   4.915   7.657   9.387
19845WAT     H259778   5.069   7.617   9.350
19846WAT      O59779   1.870   7.595   4.213
19846WAT     H159780   1.836   7.589   4.119
19846WAT     H259781   1.922   7.512   4.235
19847WAT      O59782   7.086   7.778   1.363
19847WAT     H159783   7.052   7.692   1.401
19847WAT     H259784   7.015   7.818   1.305
19848WAT      O59785   2.569   0.735   4.604
19848WAT     H159786   2.631   0.668   4.645
19848WAT     H259787   2.482   0.691   4.584
19849WAT      O59788   5.710   4.075   0.601
19849WAT     H159789   5.617   4.072   0.566
19849WAT     H259790   5.714   4.030   0.690
19850WAT      O59791   4.799   9.524   5.963
19850WAT     H159792   4.699   9.531   5.962
19850WAT     H259793   4.835   9.574   6.042
19851WAT      O59794   4.218   8.888   8.497
19851WAT     H159795   4.123   8.858   8.497
19851WAT     H259796   4.277   8.816   8.461
19852WAT      O59797   4.697   8.718   2.842
19852WAT     H159798   4.629   8.688   2.909
19852WAT     H259799   4.664   8.699   2.750
19853WAT      O59800   4.703   1.823   2.993
19853WAT     H159801   4.748   1.900   2.948
19853WAT     H259802   4.605   1.824   2.971
19854WAT      O59803   4.627   4.575   3.157
19854WAT     H159804   4.534   4.598   3.187
19854WAT     H259805   4.681   4.545   3.236
19855WAT      O59806   8.594   3.772   4.944
19855WAT     H159807   8.555   3.862   4.924
19855WAT     H259808   8.690   3.771   4.918
19856WAT      O59809   9.840   6.730   8.550
19856WAT     H159810   9.840   6.819   8.504
19856WAT     H259811   9.846   6.743   8.649
19857WAT      O59812   5.359   8.760   7.573
19857WAT     H159813   5.345   8.665   7.544
19857WAT     H259814   5.298   8.820   7.521
19858WAT      O59815   1.663   2.761   3.721
19858WAT     H159816   1.643   2.665   3.700
19858WAT     H259817   1.743   2.791   3.669
19859WAT      O59818   9.170   6.166   7.696
19859WAT     H159819   9.191   6.100   7.768
19859WAT     H259820   9.071   6.178   7.690
19860WAT      O59821   2.895   0.012   6.150
19860WAT     H159822   2.990   0.011   6.179
19860WAT     H259823   2.841   0.067   6.214
19861WAT      O59824   6.832   0.218   9.686
19861WAT     H159825   6.881   0.224   9.773
19861WAT     H259826   6.734   0.228   9.702
19862WAT      O59827   8.483   1.355   8.875
19862WAT     H159828   8.449   1.441   8.913
19862WAT     H259829   8.407   1.292   8.862
19863WAT      O59830   0.308   2.587   4.577
19863WAT     H159831   0.283   2.490   4.585
19863WAT     H259832   0.391   2.596   4.523
19864WAT      O59833   1.644   3.386   5.758
19864WAT     H159834   1.649   3.468   5.701
19864WAT     H259835   1.583   3.319   5.714
19865WAT      O59836   4.439   4.408   9.184
19865WAT     H159837   4.500   4.333   9.160
19865WAT     H259838   4.451   4.432   9.280
19866WAT      O59839   3.180   0.192   9.270
19866WAT     H159840   3.264   0.245   9.279
19866WAT     H259841   3.182   0.115   9.334
19867WAT      O59842   2.525   2.759   0.132
19867WAT     H159843   2.429   2.747   0.161
19867WAT     H259844   2.575   2.807   0.204
19868WAT      O59845   5.940   2.328   2.587
19868WAT     H159846   5.965   2.276   2.668
19868WAT     H259847   5.868   2.393   2.610
19869WAT      O59848   7.220   6.177   3.373
19869WAT     H159849   7.180   6.119   3.444
19869WAT     H259850   7.227   6.271   3.406
19870WAT      O59851   3.583   1.367   7.844
19870WAT     H159852   3.549   1.324   7.928
19870WAT     H259853   3.534   1.330   7.765
19871WAT      O59854   1.746   6.085   0.823
19871WAT     H159855   1.824   6.085   0.761
19871WAT     H259856   1.741   6.173   0.871
19872WAT      O59857   1.514   0.627   7.776
19872WAT     H159858   1.446   0.671   7.834
19872WAT     H259859   1.574   0.570   7.833
19873WAT      O59860   8.873   5.863   9.559
19873WAT     H159861   8.795   5.802   9.568
19873WAT     H259862   8.947   5.817   9.509
19874WAT      O59863   3.135   8.136   2.427
19874WAT     H159864   3.044   8.160   2.393
19874WAT     H259865   3.135   8.041   2.458
19875WAT      O59866   5.848   7.782   2.743
19875WAT     H159867   5.932   7.767   2.691
19875WAT     H259868   5.770   7.747   2.691
19876WAT      O59869   3.468   3.306   0.027
19876WAT     H159870   3.428   3.239  -0.035
19876WAT     H259871   3.428   3.396   0.010
19877WAT      O59872   8.769   5.669   2.315
19877WAT     H159873   8.737   5.742   2.375
19877WAT     H259874   8.731   5.582   2.346
19878WAT      O59875   3.375   6.684   1.724
19878WAT     H159876   3.361   6.776   1.762
19878WAT     H259877   3.399   6.691   1.628
19879WAT      O59878   2.475   0.647   1.590
19879WAT     H159879   2.500   0.715   1.659
19879WAT     H259880   2.502   0.680   1.499
19880WAT      O59881   0.737   3.944   7.184
19880WAT     H159882   0.713   3.880   7.111
19880WAT     H259883   0.712   3.904   7.273
19881WAT      O59884   6.051   8.556   8.597
19881WAT     H159885   5.981   8.607   8.547
19881WAT     H259886   6.054   8.462   8.562
19882WAT      O59887   0.997   2.035   9.587
19882WAT     H159888   0.921   2.033   9.521
19882WAT     H259889   1.083   2.015   9.539
19883WAT      O59890   5.021   6.100   9.216
19883WAT     H159891   5.041   6.003   9.228
19883WAT     H259892   4.974   6.134   9.297
19884WAT      O59893   4.843   5.592   9.868
19884WAT     H159894   4.786   5.567   9.947
19884WAT     H259895   4.922   5.644   9.900
19885WAT      O59896   3.693   1.647   2.973
19885WAT     H159897   3.643   1.668   3.057
19885WAT     H259898   3.629   1.614   2.903
19886WAT      O59899   2.399   9.271   8.629
19886WAT     H159900   2.384   9.187   8.682
19886WAT     H259901   2.498   9.290   8.625
19887WAT      O59902   9.736   1.626   1.404
19887WAT     H159903   9.673   1.569   1.456
19887WAT     H259904   9.741   1.593   1.309
19888WAT      O59905   9.727   5.514   6.107
19888WAT     H159906   9.757   5.419   6.096
19888WAT     H259907   9.663   5.537   6.033
19889WAT      O59908   8.854   4.799   8.220
19889WAT     H159909   8.820   4.816   8.313
19889WAT     H259910   8.857   4.885   8.169
19890WAT      O59911   6.257   8.096   0.463
19890WAT     H159912   6.303   8.008   0.450
19890WAT     H259913   6.288   8.138   0.548
19891WAT      O59914   3.867   9.152   7.219
19891WAT     H159915   3.813   9.163   7.302
19891WAT     H259916   3.853   9.230   7.158
19892WAT      O59917   5.861   2.391   3.168
19892WAT     H159918   5.931   2.346   3.224
19892WAT     H259919   5.899   2.408   3.077
19893WAT      O59920   9.569   8.169   1.373
19893WAT     H159921   9.565   8.268   1.358
19893WAT     H259922   9.493   8.141   1.431
19894WAT      O59923   2.621   6.132   4.286
19894WAT     H159924   2.642   6.070   4.211
19894WAT     H259925   2.662   6.098   4.371
19895WAT      O59926   0.546   7.657   7.435
19895WAT     H159927   0.602   7.660   7.352
19895WAT     H259928   0.601   7.684   7.514
19896WAT      O59929   4.162   8.710   5.385
19896WAT     H159930   4.120   8.763   5.310
19896WAT     H259931   4.261   8.707   5.372
19897WAT      O59932   3.174   5.225   4.372
19897WAT     H159933   3.138   5.294   4.310
19897WAT     H259934   3.241   5.266   4.434
19898WAT      O59935   6.229   3.352   0.502
19898WAT     H159936   6.234   3.295   0.420
19898WAT     H259937   6.225   3.293   0.583
19899WAT      O59938   2.848   3.005   2.091
19899WAT     H159939   2.834   2.994   2.189
19899WAT     H259940   2.876   3.099   2.071
19900WAT      O59941   7.403   8.664   9.416
19900WAT     H159942   7.441   8.580   9.379
19900WAT     H259943   7.428   8.673   9.512
19901WAT      O59944   3.370   9.337   6.441
19901WAT     H159945   3.288   9.326   6.497
19901WAT     H259946   3.429   9.256   6.452
19902WAT      O59947   4.934   8.551   7.634
19902WAT     H159948   4.878   8.601   7.701
19902WAT     H259949   4.895   8.564   7.543
19903WAT      O59950   5.514   2.946   7.467
19903WAT     H159951   5.561   3.004   7.401
19903WAT     H259952   5.425   2.986   7.490
19904WAT      O59953   7.954   1.152   0.968
19904WAT     H159954   8.021   1.091   1.012
19904WAT     H259955   7.865   1.140   1.012
19905WAT      O59956   7.426   5.811   8.443
19905WAT     H159957   7.394   5.716   8.439
19905WAT     H259958   7.518   5.817   8.405
19906WAT      O59959   7.746   8.021   1.086
19906WAT     H159960   7.739   8.117   1.113
19906WAT     H259961   7.769   7.965   1.166
19907WAT      O59962   9.338   6.207   6.589
19907WAT     H159963   9.407   6.160   6.643
19907WAT     H259964   9.346   6.181   6.493
19908WAT      O59965   0.797   2.971   3.134
19908WAT     H159966   0.881   2.918   3.126
19908WAT     H259967   0.815   3.066   3.107
19909WAT      O59968   8.801   7.313   2.985
19909WAT     H159969   8.860   7.394   2.985
19909WAT     H259970   8.855   7.233   2.959
19910WAT      O59971   9.760   4.190   5.239
19910WAT     H159972   9.770   4.095   5.270
19910WAT     H259973   9.769   4.194   5.140
19911WAT      O59974   7.984   5.553   3.303
19911WAT     H159975   8.035   5.602   3.374
19911WAT     H259976   8.032   5.469   3.280
19912WAT      O59977   0.122   1.800   4.731
19912WAT     H159978   0.145   1.736   4.658
19912WAT     H259979   0.026   1.826   4.722
19913WAT      O59980   8.167   3.857   6.616
19913WAT     H159981   8.260   3.858   6.652
19913WAT     H259982   8.102   3.863   6.692
19914WAT      O59983   2.966   2.595   8.366
19914WAT     H159984   2.960   2.603   8.267
19914WAT     H259985   3.024   2.668   8.402
19915WAT      O59986   9.721   2.960   4.425
19915WAT     H159987   9.681   2.927   4.510
19915WAT     H259988   9.811   3.000   4.444
19916WAT      O59989   2.997   5.476   4.598
19916WAT     H159990   3.072   5.422   4.635
19916WAT     H259991   2.937   5.417   4.543
19917WAT      O59992   8.117   5.151   2.702
19917WAT     H159993   8.212   5.174   2.722
19917WAT     H259994   8.069   5.233   2.670
19918WAT      O59995   4.244   6.630   6.428
19918WAT     H159996   4.294   6.553   6.467
19918WAT     H259997   4.206   6.687   6.501
19919WAT      O59998   6.407   2.814   6.430
19919WAT     H159999   6.318   2.826   6.473
19919WAT     H260000   6.475   2.788   6.498
19920WAT      O60001   2.913   7.861   6.861
19920WAT     H160002   2.858   7.936   6.823
19920WAT     H260003   3.006   7.866   6.824
19921WAT      O60004   6.366   7.657   4.503
19921WAT     H160005   6.355   7.756   4.498
19921WAT     H260006   6.295   7.612   4.449
19922WAT      O60007   4.672   0.052   6.129
19922WAT     H160008   4.603  -0.020   6.132
19922WAT     H260009   4.642   0.124   6.067
19923WAT      O60010   7.827   3.884   4.667
19923WAT     H160011   7.824   3.902   4.765
19923WAT     H260012   7.859   3.966   4.619
19924WAT      O60013   2.786   9.323   4.986
19924WAT     H160014   2.722   9.398   5.002
19924WAT     H260015   2.880   9.358   4.990
19925WAT      O60016   0.584   6.386   7.341
19925WAT     H160017   0.500   6.339   7.314
19925WAT     H260018   0.660   6.321   7.339
19926WAT      O60019   0.481   3.123   9.669
19926WAT     H160020   0.529   3.036   9.679
19926WAT     H260021   0.533   3.196   9.712
19927WAT      O60022   8.063   8.698   2.083
19927WAT     H160023   8.130   8.758   2.128
19927WAT     H260024   8.084   8.603   2.103
19928WAT      O60025   2.211   8.168   2.224
19928WAT     H160026   2.177   8.257   2.195
19928WAT     H260027   2.252   8.176   2.315
19929WAT      O60028   1.122   5.010   8.269
19929WAT     H160029   1.081   5.101   8.275
19929WAT     H260030   1.139   4.987   8.173
19930WAT      O60031   1.291   6.203   3.032
19930WAT     H160032   1.378   6.158   3.013
19930WAT     H260033   1.265   6.188   3.128
19931WAT      O60034   5.273   8.700   5.272
19931WAT     H160035   5.228   8.748   5.348
19931WAT     H260036   5.372   8.700   5.287
19932WAT      O60037   3.898   7.252   8.920
19932WAT     H160038   3.934   7.223   9.009
19932WAT     H260039   3.824   7.190   8.892
19933WAT      O60040   6.624   4.874   7.221
19933WAT     H160041   6.532   4.909   7.202
19933WAT     H260042   6.618   4.778   7.248
19934WAT      O60043   1.547   3.832   2.378
19934WAT     H160044   1.643   3.857   2.377
19934WAT     H260045   1.512   3.831   2.284
19935WAT      O60046   3.916   3.192   8.204
19935WAT     H160047   3.842   3.129   8.179
19935WAT     H260048   3.987   3.190   8.133
19936WAT      O60049   2.787   8.028   5.292
19936WAT     H160050   2.844   8.109   5.280
19936WAT     H260051   2.781   7.979   5.206
19937WAT      O60052   4.582   4.413   6.695
19937WAT     H160053   4.590   4.512   6.705
19937WAT     H260054   4.493   4.383   6.728
19938WAT      O60055   6.845   0.410   4.519
19938WAT     H160056   6.821   0.423   4.423
19938WAT     H260057   6.767   0.375   4.570
19939WAT      O60058   9.020   9.517   4.900
19939WAT     H160059   8.983   9.435   4.855
19939WAT     H260060   9.118   9.503   4.919
19940WAT      O60061   1.658   6.559   9.152
19940WAT     H160062   1.640   6.461   9.162
19940WAT     H260063   1.625   6.590   9.063
19941WAT      O60064   9.340   5.727   8.911
19941WAT     H160065   9.378   5.768   8.828
19941WAT     H260066   9.246   5.761   8.925
19942WAT      O60067   4.138   6.418   3.970
19942WAT     H160068   4.225   6.418   3.921
19942WAT     H260069   4.064   6.399   3.906
19943WAT      O60070   8.988   6.950   8.727
19943WAT     H160071   8.977   7.033   8.781
19943WAT     H260072   8.995   6.975   8.630
19944WAT      O60073   2.334   7.059   0.287
19944WAT     H160074   2.426   7.024   0.305
19944WAT     H260075   2.274   6.983   0.261
19945WAT      O60076   2.605   4.663   3.776
19945WAT     H160077   2.630   4.760   3.776
19945WAT     H260078   2.635   4.621   3.862
19946WAT      O60079   0.272   0.390   1.098
19946WAT     H160080   0.239   0.406   1.191
19946WAT     H260081   0.372   0.393   1.098
19947WAT      O60082   8.386   2.754   4.127
19947WAT     H160083   8.462   2.707   4.082
19947WAT     H260084   8.300   2.730   4.082
19948WAT      O60085   3.739   8.736   4.652
19948WAT     H160086   3.735   8.824   4.604
19948WAT     H260087   3.711   8.749   4.747
19949WAT      O60088   3.248   9.340   9.201
19949WAT     H160089   3.315   9.292   9.145
19949WAT     H260090   3.272   9.437   9.206
19950WAT      O60091   3.460   1.962   3.871
19950WAT     H160092   3.520   2.030   3.830
19950WAT     H260093   3.506   1.919   3.949
19951WAT      O60094   5.699   2.050   2.639
19951WAT     H160095   5.600   2.048   2.624
19951WAT     H260096   5.721   1.997   2.721
19952WAT      O60097   6.486   3.536   8.877
19952WAT     H160098   6.529   3.624   8.856
19952WAT     H260099   6.443   3.500   8.794
19953WAT      O60100   1.870   1.761   2.045
19953WAT     H160101   1.811   1.792   1.970
19953WAT     H260102   1.920   1.680   2.016
19954WAT      O60103   4.343   4.978   1.065
19954WAT     H160104   4.405   4.973   1.144
19954WAT     H260105   4.349   5.069   1.024
19955WAT      O60106   5.456   4.870   1.683
19955WAT     H160107   5.503   4.921   1.612
19955WAT     H260108   5.521   4.815   1.734
19956WAT      O60109   3.534   5.265   7.108
19956WAT     H160110   3.517   5.329   7.184
19956WAT     H260111   3.560   5.317   7.027
19957WAT      O60112   1.314   1.613   3.112
19957WAT     H160113   1.259   1.530   3.100
19957WAT     H260114   1.317   1.663   3.026
19958WAT      O60115   3.546   7.475   3.220
19958WAT     H160116   3.605   7.549   3.253
19958WAT     H260117   3.580   7.444   3.131
19959WAT      O60118   8.034   2.917   6.949
19959WAT     H160119   7.957   2.928   6.885
19959WAT     H260120   8.119   2.909   6.897
19960WAT      O60121   1.102   4.542   4.834
19960WAT     H160122   1.164   4.479   4.788
19960WAT     H260123   1.154   4.621   4.870
19961WAT      O60124   9.794   7.325   5.354
19961WAT     H160125   9.727   7.276   5.410
19961WAT     H260126   9.848   7.386   5.413
19962WAT      O60127   0.725   5.550   6.020
19962WAT     H160128   0.791   5.514   5.955
19962WAT     H260129   0.730   5.499   6.106
19963WAT      O60130   3.796   2.356   3.927
19963WAT     H160131   3.794   2.442   3.978
19963WAT     H260132   3.880   2.306   3.949
19964WAT      O60133   5.624   2.597   4.458
19964WAT     H160134   5.611   2.508   4.415
19964WAT     H260135   5.622   2.588   4.557
19965WAT      O60136   3.437   8.831   5.455
19965WAT     H160137   3.456   8.822   5.358
19965WAT     H260138   3.516   8.801   5.508
19966WAT      O60139   2.951   8.413   3.951
19966WAT     H160140   3.032   8.355   3.943
19966WAT     H260141   2.968   8.501   3.905
19967WAT      O60142   3.037   7.184   0.995
19967WAT     H160143   2.992   7.224   0.915
19967WAT     H260144   3.129   7.221   1.004
19968WAT      O60145   6.837   7.420   1.603
19968WAT     H160146   6.831   7.334   1.552
19968WAT     H260147   6.752   7.471   1.593
19969WAT      O60148   1.083   2.943   3.204
19969WAT     H160149   1.167   2.997   3.207
19969WAT     H260150   1.074   2.902   3.113
19970WAT      O60151   3.525   2.709   4.423
19970WAT     H160152   3.578   2.790   4.396
19970WAT     H260153   3.440   2.739   4.467
19971WAT      O60154   9.473   5.641   2.545
19971WAT     H160155   9.476   5.541   2.536
19971WAT     H260156   9.437   5.680   2.460
19972WAT      O60157   8.032   3.253   6.327
19972WAT     H160158   8.021   3.318   6.402
19972WAT     H260159   7.946   3.246   6.277
19973WAT      O60160   5.331   7.203   9.267
19973WAT     H160161   5.274   7.192   9.186
19973WAT     H260162   5.411   7.258   9.245
19974WAT      O60163   6.817   3.389   2.498
19974WAT     H160164   6.866   3.451   2.437
19974WAT     H260165   6.732   3.433   2.529
19975WAT      O60166   7.863   5.899   7.685
19975WAT     H160167   7.955   5.867   7.705
19975WAT     H260168   7.819   5.838   7.619
19976WAT      O60169   6.263   8.283   5.243
19976WAT     H160170   6.163   8.277   5.237
19976WAT     H260171   6.297   8.218   5.311
19977WAT      O60172   1.214   4.251   7.237
19977WAT     H160173   1.132   4.194   7.233
19977WAT     H260174   1.294   4.196   7.212
19978WAT      O60175   5.946   9.118   2.750
19978WAT     H160176   5.973   9.181   2.823
19978WAT     H260177   6.026   9.091   2.697
19979WAT      O60178   1.567   9.703   8.166
19979WAT     H160179   1.619   9.620   8.145
19979WAT     H260180   1.613   9.753   8.239
19980WAT      O60181   0.880   0.755   6.787
19980WAT     H160182   0.841   0.846   6.774
19980WAT     H260183   0.968   0.749   6.740
19981WAT      O60184   2.908   7.213   8.813
19981WAT     H160185   2.817   7.238   8.779
19981WAT     H260186   2.929   7.269   8.893
19982WAT      O60187   0.032   7.523   5.509
19982WAT     H160188   0.087   7.586   5.454
19982WAT     H260189   0.078   7.505   5.596
19983WAT      O60190   2.018   1.753   4.909
19983WAT     H160191   2.073   1.675   4.940
19983WAT     H260192   1.923   1.724   4.898
19984WAT      O60193   1.433   6.150   5.781
19984WAT     H160194   1.510   6.096   5.814
19984WAT     H260195   1.402   6.113   5.693
19985WAT      O60196   8.928   7.771   6.234
19985WAT     H160197   8.954   7.825   6.154
19985WAT     H260198   8.846   7.812   6.276
19986WAT      O60199   6.520   0.371   9.502
19986WAT     H160200   6.541   0.455   9.453
19986WAT     H260201   6.423   0.371   9.527
19987WAT      O60202   7.407   7.980   9.490
19987WAT     H160203   7.394   7.962   9.588
19987WAT     H260204   7.319   7.973   9.443
19988WAT      O60205   2.652   8.251   8.115
19988WAT     H160206   2.640   8.294   8.205
19988WAT     H260207   2.748   8.257   8.088
19989WAT      O60208   6.171   3.458   8.806
19989WAT     H160209   6.231   3.526   8.849
19989WAT     H260210   6.089   3.504   8.772
19990WAT      O60211   5.162   7.284   8.167
19990WAT     H160212   5.210   7.301   8.081
19990WAT     H260213   5.228   7.256   8.237
19991WAT      O60214   3.269   3.431   9.559
19991WAT     H160215   3.262   3.341   9.516
19991WAT     H260216   3.219   3.431   9.645
19992WAT      O60217   6.178   7.139   8.156
19992WAT     H160218   6.108   7.139   8.085
19992WAT     H260219   6.140   7.171   8.242
19993WAT      O60220   5.703   0.559   1.637
19993WAT     H160221   5.628   0.550   1.703
19993WAT     H260222   5.722   0.656   1.621
19994WAT      O60223   6.337   4.227   3.514
19994WAT     H160224   6.246   4.203   3.548
19994WAT     H260225   6.370   4.309   3.562
19995WAT      O60226   1.739   8.564   0.494
19995WAT     H160227   1.663   8.500   0.509
19995WAT     H260228   1.775   8.593   0.582
19996WAT      O60229   3.137   6.518   1.966
19996WAT     H160230   3.127   6.427   1.925
19996WAT     H260231   3.104   6.587   1.901
19997WAT      O60232   4.396   5.920   1.739
19997WAT     H160233   4.336   5.905   1.660
19997WAT     H260234   4.355   5.878   1.820
19998WAT      O60235   4.954   2.831   5.649
19998WAT     H160236   4.914   2.743   5.625
19998WAT     H260237   4.995   2.872   5.568
19999WAT      O60238   4.471   2.658   9.758
19999WAT     H160239   4.518   2.740   9.789
19999WAT     H260240   4.388   2.684   9.708
20000WAT      O60241   2.595   6.568   7.558
20000WAT     H160242   2.539   6.485   7.556
20000WAT     H260243   2.563   6.629   7.630
20001WAT      O60244   5.339   9.012   5.316
20001WAT     H160245   5.385   9.036   5.401
20001WAT     H260246   5.247   8.979   5.336
20002WAT      O60247   8.998   3.169   0.980
20002WAT     H160248   9.074   3.161   1.044
20002WAT     H260249   9.027   3.139   0.889
20003WAT      O60250   6.241   7.107   8.688
20003WAT     H160251   6.243   7.024   8.632
20003WAT     H260252   6.176   7.094   8.763
20004WAT      O60253   0.324   4.165   6.197
20004WAT     H160254   0.367   4.149   6.107
20004WAT     H260255   0.339   4.085   6.255
20005WAT      O60256   5.733   6.291   8.836
20005WAT     H160257   5.678   6.323   8.913
20005WAT     H260258   5.814   6.348   8.826
20006WAT      O60259   8.465   6.890   1.535
20006WAT     H160260   8.488   6.951   1.460
20006WAT     H260261   8.370   6.906   1.563
20007WAT      O60262   4.574   6.041   6.253
20007WAT     H160263   4.575   6.137   6.223
20007WAT     H260264   4.665   6.016   6.288
20008WAT      O60265   2.652   9.573   7.652
20008WAT     H160266   2.712   9.557   7.731
20008WAT     H260267   2.589   9.496   7.643
20009WAT      O60268   8.257   8.596   9.890
20009WAT     H160269   8.322   8.671   9.886
20009WAT     H260270   8.244   8.557   9.799
20010WAT      O60271   5.837   8.353   8.008
20010WAT     H160272   5.745   8.345   8.045
20010WAT     H260273   5.863   8.267   7.964
20011WAT      O60274   8.328   4.126   4.716
20011WAT     H160275   8.367   4.218   4.709
20011WAT     H260276   8.251   4.128   4.780
20012WAT      O60277   6.610   0.302   8.803
20012WAT     H160278   6.560   0.334   8.883
20012WAT     H260279   6.703   0.339   8.805
20013WAT      O60280   9.657   9.600   0.572
20013WAT     H160281   9.593   9.658   0.522
20013WAT     H260282   9.745   9.647   0.579
20014WAT      O60283   6.333   1.715   5.897
20014WAT     H160284   6.408   1.726   5.832
20014WAT     H260285   6.341   1.784   5.969
20015WAT      O60286   6.409   3.830   9.491
20015WAT     H160287   6.443   3.901   9.429
20015WAT     H260288   6.430   3.857   9.586
20016WAT      O60289   7.773   0.836   8.773
20016WAT     H160290   7.802   0.751   8.729
20016WAT     H260291   7.734   0.816   8.862
20017WAT      O60292   4.938   4.415   4.721
20017WAT     H160293   4.877   4.495   4.719
20017WAT     H260294   4.949   4.379   4.629
20018WAT      O60295   9.038   8.405   5.638
20018WAT     H160296   9.072   8.316   5.607
20018WAT     H260297   8.938   8.400   5.647
20019WAT      O60298   8.396   3.062   3.503
20019WAT     H160299   8.336   3.031   3.430
20019WAT     H260300   8.345   3.122   3.565
20020WAT      O60301   4.650   9.541   7.388
20020WAT     H160302   4.583   9.567   7.318
20020WAT     H260303   4.660   9.442   7.389
20021WAT      O60304   1.377   3.374   4.985
20021WAT     H160305   1.309   3.447   4.982
20021WAT     H260306   1.462   3.409   5.023
20022WAT      O60307   4.605   4.170   6.937
20022WAT     H160308   4.605   4.264   6.969
20022WAT     H260309   4.661   4.163   6.854
20023WAT      O60310   7.839   5.115   7.193
20023WAT     H160311   7.932   5.104   7.157
20023WAT     H260312   7.843   5.134   7.291
20024WAT      O60313   0.396   1.881   3.362
20024WAT     H160314   0.437   1.908   3.449
20024WAT     H260315   0.423   1.787   3.340
20025WAT      O60316   3.666   7.894   1.302
20025WAT     H160317   3.630   7.967   1.244
20025WAT     H260318   3.597   7.865   1.367
20026WAT      O60319   3.935   1.709   2.348
20026WAT     H160320   3.884   1.785   2.307
20026WAT     H260321   3.876   1.660   2.412
20027WAT      O60322   3.568   5.029   8.516
20027WAT     H160323   3.660   5.030   8.557
20027WAT     H260324   3.517   4.951   8.553
20028WAT      O60325   0.103   6.196   7.709
20028WAT     H160326   0.084   6.255   7.787
20028WAT     H260327   0.031   6.128   7.699
20029WAT      O60328   5.583   6.641   5.254
20029WAT     H160329   5.519   6.648   5.331
20029WAT     H260330   5.556   6.566   5.194
20030WAT      O60331   1.481   0.289   0.964
20030WAT     H160332   1.494   0.385   0.941
20030WAT     H260333   1.396   0.256   0.922
20031WAT      O60334   3.723   9.552   3.493
20031WAT     H160335   3.724   9.456   3.465
20031WAT     H260336   3.672   9.561   3.579
20032WAT      O60337   6.046   7.129   1.402
20032WAT     H160338   6.099   7.175   1.331
20032WAT     H260339   5.953   7.164   1.402
20033WAT      O60340   7.100   4.758   2.226
20033WAT     H160341   7.098   4.763   2.326
20033WAT     H260342   7.015   4.718   2.193
20034WAT      O60343   7.628   0.243   7.024
20034WAT     H160344   7.588   0.209   7.109
20034WAT     H260345   7.561   0.234   6.950
20035WAT      O60346   8.891   9.051   0.868
20035WAT     H160347   8.854   9.114   0.937
20035WAT     H260348   8.833   8.969   0.864
20036WAT      O60349   0.204   0.828   0.013
20036WAT     H160350   0.148   0.778   0.079
20036WAT     H260351   0.262   0.763  -0.036
20037WAT      O60352   5.983   7.328   2.349
20037WAT     H160353   5.992   7.360   2.254
20037WAT     H260354   5.935   7.397   2.403
20038WAT      O60355   7.008   7.544   9.835
20038WAT     H160356   7.003   7.622   9.897
20038WAT     H260357   7.097   7.543   9.789
20039WAT      O60358   3.605   6.916   1.078
20039WAT     H160359   3.654   6.844   1.028
20039WAT     H260360   3.520   6.878   1.115
20040WAT      O60361   4.008   5.518   7.934
20040WAT     H160362   3.949   5.582   7.886
20040WAT     H260363   4.091   5.501   7.880
20041WAT      O60364   6.974   0.228   8.497
20041WAT     H160365   7.044   0.202   8.430
20041WAT     H260366   6.941   0.320   8.477
20042WAT      O60367   7.974   1.633   9.681
20042WAT     H160368   7.987   1.536   9.705
20042WAT     H260369   8.001   1.690   9.757
20043WAT      O60370   3.769   1.707   9.548
20043WAT     H160371   3.758   1.743   9.455
20043WAT     H260372   3.685   1.723   9.600
20044WAT      O60373   7.364   1.958   7.899
20044WAT     H160374   7.369   1.859   7.894
20044WAT     H260375   7.273   1.986   7.929
20045WAT      O60376   0.602   7.939   2.557
20045WAT     H160377   0.515   7.891   2.549
20045WAT     H260378   0.606   8.013   2.490
20046WAT      O60379   1.548   3.011   6.322
20046WAT     H160380   1.631   3.002   6.377
20046WAT     H260381   1.469   2.987   6.379
20047WAT      O60382   0.776   6.689   6.875
20047WAT     H160383   0.831   6.616   6.915
20047WAT     H260384   0.728   6.655   6.794
20048WAT      O60385   0.872   1.906   3.816
20048WAT     H160386   0.959   1.954   3.825
20048WAT     H260387   0.821   1.942   3.737
20049WAT      O60388   2.971   1.439   6.980
20049WAT     H160389   2.872   1.440   6.962
20049WAT     H260390   3.016   1.379   6.914
20050WAT      O60391   6.220   0.697   5.957
20050WAT     H160392   6.308   0.701   5.910
20050WAT     H260393   6.231   0.731   6.051
20051WAT      O60394   6.676   8.229   8.592
20051WAT     H160395   6.697   8.260   8.499
20051WAT     H260396   6.750   8.257   8.654
20052WAT      O60397   1.033   7.255   3.771
20052WAT     H160398   1.053   7.345   3.733
20052WAT     H260399   1.109   7.193   3.752
20053WAT      O60400   8.244   1.104   2.262
20053WAT     H160401   8.303   1.171   2.305
20053WAT     H260402   8.168   1.083   2.323
20054WAT      O60403   5.160   2.319   0.065
20054WAT     H160404   5.064   2.345   0.082
20054WAT     H260405   5.163   2.230   0.019
20055WAT      O60406   5.899   0.586   0.959
20055WAT     H160407   5.902   0.553   1.053
20055WAT     H260408   5.817   0.550   0.914
20056WAT      O60409   4.594   8.770   5.827
20056WAT     H160410   4.561   8.806   5.915
20056WAT     H260411   4.533   8.697   5.797
20057WAT      O60412   6.802   5.677   2.619
20057WAT     H160413   6.899   5.679   2.643
20057WAT     H260414   6.754   5.747   2.673
20058WAT      O60415   3.566   0.380   3.870
20058WAT     H160416   3.603   0.442   3.801
20058WAT     H260417   3.471   0.406   3.890
20059WAT      O60418   2.062   8.512   2.638
20059WAT     H160419   2.028   8.530   2.731
20059WAT     H260420   2.012   8.436   2.598
20060WAT      O60421   6.676   7.369   1.258
20060WAT     H160422   6.683   7.357   1.159
20060WAT     H260423   6.702   7.462   1.282
20061WAT      O60424   6.976   7.002   3.456
20061WAT     H160425   7.047   7.041   3.515
20061WAT     H260426   6.993   7.029   3.362
20062WAT      O60427   2.976   0.111   0.592
20062WAT     H160428   2.978   0.081   0.497
20062WAT     H260429   2.891   0.080   0.635
20063WAT      O60430   3.466   5.335   8.696
20063WAT     H160431   3.531   5.287   8.755
20063WAT     H260432   3.505   5.344   8.604
20064WAT      O60433   4.063   9.335   7.317
20064WAT     H160434   4.005   9.396   7.371
20064WAT     H260435   4.008   9.260   7.281
20065WAT      O60436   2.217   9.498   9.060
20065WAT     H160437   2.261   9.496   8.970
20065WAT     H260438   2.151   9.424   9.067
20066WAT      O60439   3.222   8.666   9.878
20066WAT     H160440   3.150   8.729   9.907
20066WAT     H260441   3.214   8.650   9.779
20067WAT      O60442   9.769   2.325   8.626
20067WAT     H160443   9.727   2.416   8.628
20067WAT     H260444   9.751   2.281   8.538
20068WAT      O60445   2.245   4.005   7.803
20068WAT     H160446   2.173   3.941   7.830
20068WAT     H260447   2.258   4.073   7.874
20069WAT      O60448   4.985   5.022   2.225
20069WAT     H160449   4.905   5.027   2.165
20069WAT     H260450   5.000   5.112   2.267
20070WAT      O60451   5.430   1.105   5.259
20070WAT     H160452   5.448   1.192   5.214
20070WAT     H260453   5.499   1.038   5.232
20071WAT      O60454   1.312   6.565   6.778
20071WAT     H160455   1.350   6.479   6.811
20071WAT     H260456   1.376   6.640   6.799
20072WAT      O60457   3.496   2.350   3.104
20072WAT     H160458   3.507   2.256   3.072
20072WAT     H260459   3.552   2.411   3.048
20073WAT      O60460   9.176   0.529   6.236
20073WAT     H160461   9.228   0.452   6.273
20073WAT     H260462   9.231   0.578   6.168
20074WAT      O60463   3.734   9.587   1.858
20074WAT     H160464   3.825   9.559   1.889
20074WAT     H260465   3.679   9.614   1.937
20075WAT      O60466   3.250   7.965   7.225
20075WAT     H160467   3.226   7.917   7.141
20075WAT     H260468   3.308   7.906   7.282
20076WAT      O60469   3.720   5.591   3.963
20076WAT     H160470   3.631   5.576   4.006
20076WAT     H260471   3.740   5.689   3.960
20077WAT      O60472   2.942   8.234   3.698
20077WAT     H160473   2.920   8.159   3.760
20077WAT     H260474   3.040   8.235   3.681
20078WAT      O60475   2.975   3.305   7.406
20078WAT     H160476   3.062   3.269   7.438
20078WAT     H260477   2.951   3.387   7.458
20079WAT      O60478   4.302   5.660   8.469
20079WAT     H160479   4.279   5.620   8.380
20079WAT     H260480   4.235   5.731   8.491
20080WAT      O60481   7.427   7.718   3.037
20080WAT     H160482   7.464   7.639   2.987
20080WAT     H260483   7.357   7.763   2.981
20081WAT      O60484   9.085   3.028   5.595
20081WAT     H160485   9.073   2.939   5.553
20081WAT     H260486   9.176   3.064   5.572
20082WAT      O60487   6.595   4.320   8.071
20082WAT     H160488   6.608   4.221   8.062
20082WAT     H260489   6.603   4.363   7.981
20083WAT      O60490   4.453   4.919   3.480
20083WAT     H160491   4.537   4.934   3.428
20083WAT     H260492   4.474   4.867   3.563
20084WAT      O60493   2.403   8.134   3.238
20084WAT     H160494   2.308   8.106   3.253
20084WAT     H260495   2.457   8.110   3.319
20085WAT      O60496   6.208   1.383   8.545
20085WAT     H160497   6.121   1.431   8.536
20085WAT     H260498   6.283   1.450   8.548
20086WAT      O60499   6.767   8.810   5.151
20086WAT     H160500   6.704   8.768   5.216
20086WAT     H260501   6.827   8.740   5.112
20087WAT      O60502   1.783   9.081   9.445
20087WAT     H160503   1.817   8.995   9.407
20087WAT     H260504   1.815   9.157   9.389
20088WAT      O60505   6.320   6.412   9.347
20088WAT     H160506   6.256   6.340   9.320
20088WAT     H260507   6.269   6.494   9.375
20089WAT      O60508   8.634   4.507   2.755
20089WAT     H160509   8.621   4.427   2.813
20089WAT     H260510   8.699   4.569   2.798
20090WAT      O60511   5.310   5.834   7.064
20090WAT     H160512   5.242   5.763   7.084
20090WAT     H260513   5.321   5.893   7.145
20091WAT      O60514   2.097   0.770   6.655
20091WAT     H160515   2.043   0.849   6.686
20091WAT     H260516   2.192   0.797   6.643
20092WAT      O60517   0.592   6.639   7.194
20092WAT     H160518   0.528   6.597   7.258
20092WAT     H260519   0.649   6.567   7.152
20093WAT      O60520   1.242   8.860   6.505
20093WAT     H160521   1.329   8.889   6.465
20093WAT     H260522   1.208   8.779   6.456
20094WAT      O60523   4.485   3.326   1.090
20094WAT     H160524   4.537   3.264   1.148
20094WAT     H260525   4.548   3.387   1.042
20095WAT      O60526   5.900   6.090   9.241
20095WAT     H160527   5.807   6.114   9.268
20095WAT     H260528   5.905   6.081   9.142
20096WAT      O60529   9.013   6.567   9.625
20096WAT     H160530   8.999   6.478   9.668
20096WAT     H260531   9.039   6.634   9.694
20097WAT      O60532   8.788   7.667   3.620
20097WAT     H160533   8.880   7.679   3.659
20097WAT     H260534   8.767   7.745   3.561
20098WAT      O60535   8.834   2.313   2.981
20098WAT     H160536   8.813   2.350   3.071
20098WAT     H260537   8.811   2.382   2.911
20099WAT      O60538   1.601   2.450   9.457
20099WAT     H160539   1.671   2.520   9.469
20099WAT     H260540   1.565   2.423   9.547
20100WAT      O60541   7.703   8.723   3.668
20100WAT     H160542   7.772   8.784   3.705
20100WAT     H260543   7.674   8.659   3.739
20101WAT      O60544   8.628   6.614   0.675
20101WAT     H160545   8.595   6.520   0.673
20101WAT     H260546   8.647   6.640   0.770
20102WAT      O60547   7.410   0.651   9.649
20102WAT     H160548   7.483   0.707   9.687
20102WAT     H260549   7.394   0.572   9.709
20103WAT      O60550   4.957   0.096   7.485
20103WAT     H160551   4.973   0.102   7.583
20103WAT     H260552   4.894   0.168   7.457
20104WAT      O60553   1.498   7.009   5.211
20104WAT     H160554   1.490   7.012   5.311
20104WAT     H260555   1.436   6.939   5.175
20105WAT      O60556   8.059   8.004   1.982
20105WAT     H160557   8.090   7.999   1.887
20105WAT     H260558   8.053   7.912   2.021
20106WAT      O60559   8.160   7.545   3.267
20106WAT     H160560   8.145   7.453   3.302
20106WAT     H260561   8.112   7.611   3.325
20107WAT      O60562   5.129   2.680   8.448
20107WAT     H160563   5.172   2.717   8.366
20107WAT     H260564   5.114   2.582   8.437
20108WAT      O60565   0.008   4.584   0.077
20108WAT     H160566  -0.027   4.632  -0.004
20108WAT     H260567   0.104   4.560   0.063
20109WAT      O60568   1.251   7.590   2.817
20109WAT     H160569   1.200   7.645   2.752
20109WAT     H260570   1.188   7.531   2.868
20110WAT      O60571   5.947   1.509   3.285
20110WAT     H160572   5.992   1.578   3.342
20110WAT     H260573   5.939   1.542   3.191
20111WAT      O60574   9.818   6.022   7.590
20111WAT     H160575   9.828   6.087   7.514
20111WAT     H260576   9.838   5.930   7.558
20112WAT      O60577   0.499   1.557   8.054
20112WAT     H160578   0.487   1.466   8.013
20112WAT     H260579   0.454   1.559   8.143
20113WAT      O60580   8.937   6.861   1.411
20113WAT     H160581   9.005   6.932   1.431
20113WAT     H260582   8.914   6.813   1.496
20114WAT      O60583   0.504   2.679   1.580
20114WAT     H160584   0.574   2.732   1.531
20114WAT     H260585   0.419   2.681   1.527
20115WAT      O60586   1.851   3.270   7.479
20115WAT     H160587   1.863   3.261   7.578
20115WAT     H260588   1.810   3.187   7.442
20116WAT      O60589   2.288   4.557   4.879
20116WAT     H160590   2.337   4.592   4.958
20116WAT     H260591   2.268   4.633   4.816
20117WAT      O60592   8.482   7.007   3.000
20117WAT     H160593   8.475   6.989   3.098
20117WAT     H260594   8.391   7.004   2.959
20118WAT      O60595   7.287   4.736   6.431
20118WAT     H160596   7.298   4.642   6.463
20118WAT     H260597   7.366   4.760   6.374
20119WAT      O60598   0.012   0.058   5.952
20119WAT     H160599   0.093   0.009   5.920
20119WAT     H260600  -0.070   0.003   5.935
20120WAT      O60601   7.734   6.270   2.975
20120WAT     H160602   7.719   6.240   3.069
20120WAT     H260603   7.812   6.222   2.937
20121WAT      O60604   3.773   0.591   6.288
20121WAT     H160605   3.812   0.503   6.259
20121WAT     H260606   3.713   0.577   6.367
20122WAT      O60607   2.284   6.942   2.076
20122WAT     H160608   2.265   7.024   2.022
20122WAT     H260609   2.337   6.877   2.021
20123WAT      O60610   8.828   7.730   2.834
20123WAT     H160611   8.863   7.793   2.764
20123WAT     H260612   8.822   7.638   2.796
20124WAT      O60613   5.471   3.631   1.187
20124WAT     H160614   5.472   3.721   1.144
20124WAT     H260615   5.400   3.575   1.146
20125WAT      O60616   8.046   3.717   5.394
20125WAT     H160617   7.993   3.644   5.350
20125WAT     H260618   8.126   3.738   5.338
20126WAT      O60619   7.994   5.674   0.343
20126WAT     H160620   7.952   5.638   0.426
20126WAT     H260621   8.022   5.598   0.285
20127WAT      O60622   0.912   0.051   2.728
20127WAT     H160623   0.984   0.030   2.662
20127WAT     H260624   0.941   0.020   2.819
20128WAT      O60625   1.989   2.882   6.981
20128WAT     H160626   1.957   2.936   7.059
20128WAT     H260627   2.053   2.812   7.014
20129WAT      O60628   5.581   1.461   0.373
20129WAT     H160629   5.562   1.559   0.373
20129WAT     H260630   5.539   1.418   0.293
20130WAT      O60631   5.826   2.654   2.170
20130WAT     H160632   5.782   2.701   2.094
20130WAT     H260633   5.925   2.655   2.158
20131WAT      O60634   1.141   1.914   9.230
20131WAT     H160635   1.058   1.860   9.240
20131WAT     H260636   1.120   1.997   9.177
20132WAT      O60637   7.775   6.596   7.041
20132WAT     H160638   7.758   6.498   7.048
20132WAT     H260639   7.690   6.646   7.054
20133WAT      O60640   6.441   4.320   2.693
20133WAT     H160641   6.418   4.387   2.623
20133WAT     H260642   6.539   4.324   2.712
20134WAT      O60643   1.167   6.678   0.296
20134WAT     H160644   1.078   6.663   0.253
20134WAT     H260645   1.233   6.706   0.226
20135WAT      O60646   4.292   3.726   6.364
20135WAT     H160647   4.338   3.750   6.279
20135WAT     H260648   4.296   3.627   6.377
20136WAT      O60649   5.857   1.873   6.927
20136WAT     H160650   5.780   1.906   6.873
20136WAT     H260651   5.937   1.930   6.909
20137WAT      O60652   7.140   2.940   1.083
20137WAT     H160653   7.077   2.937   1.160
20137WAT     H260654   7.158   3.035   1.058
20138WAT      O60655   9.738   7.224   0.774
20138WAT     H160656   9.651   7.203   0.732
20138WAT     H260657   9.726   7.301   0.837
20139WAT      O60658   4.428   6.509   8.677
20139WAT     H160659   4.481   6.537   8.597
20139WAT     H260660   4.411   6.589   8.735
20140WAT      O60661   3.870   8.520   0.864
20140WAT     H160662   3.955   8.556   0.826
20140WAT     H260663   3.847   8.570   0.948
20141WAT      O60664   5.231   7.523   6.476
20141WAT     H160665   5.247   7.433   6.437
20141WAT     H260666   5.173   7.577   6.414
20142WAT      O60667   8.667   2.235   6.566
20142WAT     H160668   8.743   2.187   6.523
20142WAT     H260669   8.581   2.201   6.530
20143WAT      O60670   2.994   0.514   5.412
20143WAT     H160671   2.913   0.455   5.405
20143WAT     H260672   3.070   0.472   5.362
20144WAT      O60673   8.090   2.682   6.541
20144WAT     H160674   8.001   2.723   6.524
20144WAT     H260675   8.162   2.746   6.515
20145WAT      O60676   5.798   1.928   0.811
20145WAT     H160677   5.735   1.859   0.777
20145WAT     H260678   5.885   1.886   0.836
20146WAT      O60679   0.673   1.274   0.760
20146WAT     H160680   0.611   1.272   0.682
20146WAT     H260681   0.636   1.337   0.829
20147WAT      O60682   1.147   2.695   6.508
20147WAT     H160683   1.205   2.620   6.538
20147WAT     H260684   1.181   2.781   6.547
20148WAT      O60685   0.782   6.229   7.015
20148WAT     H160686   0.690   6.265   7.001
20148WAT     H260687   0.777   6.141   7.063
20149WAT      O60688   1.158   3.487   0.434
20149WAT     H160689   1.066   3.512   0.404
20149WAT     H260690   1.221   3.562   0.415
20150WAT      O60691   8.028   2.024   1.708
20150WAT     H160692   8.074   1.936   1.700
20150WAT     H260693   7.932   2.010   1.733
20151WAT      O60694   1.221   0.655   0.453
20151WAT     H160695   1.191   0.563   0.427
20151WAT     H260696   1.304   0.679   0.403
20152WAT      O60697   3.448   6.162   8.903
20152WAT     H160698   3.352   6.177   8.879
20152WAT     H260699   3.463   6.064   8.919
20153WAT      O60700   6.450   1.769   4.618
20153WAT     H160701   6.530   1.766   4.679
20153WAT     H260702   6.480   1.762   4.523
20154WAT      O60703   6.210   8.503   2.989
20154WAT     H160704   6.159   8.540   3.067
20154WAT     H260705   6.150   8.444   2.934
20155WAT      O60706   7.627   5.246   6.392
20155WAT     H160707   7.654   5.342   6.397
20155WAT     H260708   7.699   5.194   6.347
20156WAT      O60709   2.386   6.116   7.814
20156WAT     H160710   2.308   6.073   7.768
20156WAT     H260711   2.402   6.207   7.776
20157WAT      O60712   4.302   3.661   3.603
20157WAT     H160713   4.391   3.618   3.610
20157WAT     H260714   4.302   3.747   3.654
20158WAT      O60715   6.338   5.276   1.912
20158WAT     H160716   6.411   5.299   1.977
20158WAT     H260717   6.338   5.342   1.837
20159WAT      O60718   2.367   9.490   9.316
20159WAT     H160719   2.432   9.557   9.280
20159WAT     H260720   2.288   9.484   9.255
20160WAT      O60721   3.146   2.597   4.424
20160WAT     H160722   3.184   2.626   4.336
20160WAT     H260723   3.189   2.648   4.498
20161WAT      O60724   9.410   1.586   5.479
20161WAT     H160725   9.498   1.540   5.465
20161WAT     H260726   9.411   1.675   5.434
20162WAT      O60727   0.688   4.393   9.706
20162WAT     H160728   0.779   4.432   9.717
20162WAT     H260729   0.652   4.366   9.795
20163WAT      O60730   8.492   8.057   9.431
20163WAT     H160731   8.556   7.991   9.473
20163WAT     H260732   8.508   8.060   9.332
20164WAT      O60733   2.103   0.209   8.663
20164WAT     H160734   2.090   0.232   8.566
20164WAT     H260735   2.066   0.282   8.720
20165WAT      O60736   1.052   5.810   3.205
20165WAT     H160737   1.087   5.774   3.292
20165WAT     H260738   1.127   5.852   3.154
20166WAT      O60739   0.222   7.058   7.148
20166WAT     H160740   0.237   7.102   7.059
20166WAT     H260741   0.281   6.978   7.155
20167WAT      O60742   4.905   5.726   6.304
20167WAT     H160743   4.925   5.729   6.206
20167WAT     H260744   4.842   5.650   6.321
20168WAT      O60745   6.012   7.225   3.757
20168WAT     H160746   6.020   7.156   3.685
20168WAT     H260747   6.089   7.289   3.750
20169WAT      O60748   6.150   9.337   4.420
20169WAT     H160749   6.118   9.430   4.438
20169WAT     H260750   6.231   9.319   4.475
20170WAT      O60751   1.998   3.452   9.209
20170WAT     H160752   1.928   3.411   9.267
20170WAT     H260753   2.074   3.483   9.266
20171WAT      O60754   4.603   1.310   6.187
20171WAT     H160755   4.539   1.326   6.112
20171WAT     H260756   4.623   1.212   6.193
20172WAT      O60757   6.875   2.453   3.336
20172WAT     H160758   6.797   2.516   3.336
20172WAT     H260759   6.915   2.448   3.245
20173WAT      O60760   3.079   3.783   4.190
20173WAT     H160761   3.080   3.856   4.121
20173WAT     H260762   2.985   3.768   4.221
20174WAT      O60763   6.802   4.571   8.799
20174WAT     H160764   6.807   4.623   8.885
20174WAT     H260765   6.828   4.476   8.816
20175WAT      O60766   7.937   7.555   7.353
20175WAT     H160767   7.879   7.551   7.435
20175WAT     H260768   7.962   7.650   7.334
20176WAT      O60769   0.108   7.449   9.862
20176WAT     H160770   0.057   7.364   9.874
20176WAT     H260771   0.097   7.506   9.944
20177WAT      O60772   7.097   0.230   8.244
20177WAT     H160773   7.031   0.298   8.212
20177WAT     H260774   7.092   0.149   8.185
20178WAT      O60775   2.941   2.637   5.797
20178WAT     H160776   2.869   2.594   5.743
20178WAT     H260777   2.996   2.696   5.739
20179WAT      O60778   4.029   3.224   8.695
20179WAT     H160779   4.101   3.291   8.671
20179WAT     H260780   4.009   3.167   8.615
20180WAT      O60781   6.848   3.384   6.663
20180WAT     H160782   6.791   3.462   6.689
20180WAT     H260783   6.803   3.299   6.689
20181WAT      O60784   2.968   6.452   2.341
20181WAT     H160785   3.053   6.499   2.364
20181WAT     H260786   2.935   6.484   2.253
20182WAT      O60787   7.161   2.886   1.370
20182WAT     H160788   7.075   2.835   1.383
20182WAT     H260789   7.214   2.843   1.297
20183WAT      O60790   0.977   8.149   9.598
20183WAT     H160791   0.882   8.119   9.588
20183WAT     H260792   1.030   8.077   9.643
20184WAT      O60793   2.934   6.137   2.305
20184WAT     H160794   2.888   6.173   2.224
20184WAT     H260795   2.959   6.212   2.366
20185WAT      O60796   5.834   0.372   1.486
20185WAT     H160797   5.779   0.441   1.534
20185WAT     H260798   5.926   0.370   1.525
20186WAT      O60799   5.066   5.550   9.171
20186WAT     H160800   5.083   5.638   9.126
20186WAT     H260801   5.136   5.535   9.241
20187WAT      O60802   7.480   0.960   2.463
20187WAT     H160803   7.536   0.882   2.436
20187WAT     H260804   7.496   1.037   2.401
20188WAT      O60805   7.070   7.334   6.912
20188WAT     H160806   6.999   7.368   6.850
20188WAT     H260807   7.151   7.392   6.905
20189WAT      O60808   6.180   2.617   3.659
20189WAT     H160809   6.096   2.669   3.672
20189WAT     H260810   6.201   2.610   3.562
20190WAT      O60811   3.870   8.017   1.458
20190WAT     H160812   3.804   7.970   1.400
20190WAT     H260813   3.886   8.109   1.423
20191WAT      O60814   5.831   6.791   3.200
20191WAT     H160815   5.827   6.832   3.109
20191WAT     H260816   5.814   6.861   3.270
20192WAT      O60817   0.959   7.009   8.335
20192WAT     H160818   0.914   7.096   8.316
20192WAT     H260819   0.943   6.946   8.258
20193WAT      O60820   4.243   2.003   3.869
20193WAT     H160821   4.143   2.005   3.860
20193WAT     H260822   4.284   2.052   3.792
20194WAT      O60823   1.649   7.062   6.308
20194WAT     H160824   1.672   6.988   6.246
20194WAT     H260825   1.685   7.041   6.399
20195WAT      O60826   2.832   0.663   1.345
20195WAT     H160827   2.783   0.582   1.315
20195WAT     H260828   2.839   0.728   1.269
20196WAT      O60829   8.768   6.603   3.827
20196WAT     H160830   8.764   6.639   3.734
20196WAT     H260831   8.864   6.598   3.856
20197WAT      O60832   9.612   6.772   8.036
20197WAT     H160833   9.638   6.684   7.995
20197WAT     H260834   9.596   6.839   7.963
20198WAT      O60835   9.765   4.238   2.066
20198WAT     H160836   9.678   4.273   2.032
20198WAT     H260837   9.763   4.138   2.069
20199WAT      O60838   6.006   4.240   3.312
20199WAT     H160839   6.006   4.159   3.254
20199WAT     H260840   6.054   4.220   3.397
20200WAT      O60841   2.321   4.381   0.115
20200WAT     H160842   2.246   4.429   0.161
20200WAT     H260843   2.286   4.296   0.077
20201WAT      O60844   0.403   8.673   7.065
20201WAT     H160845   0.310   8.692   7.035
20201WAT     H260846   0.434   8.747   7.125
20202WAT      O60847   9.146   1.522   2.126
20202WAT     H160848   9.231   1.551   2.171
20202WAT     H260849   9.091   1.603   2.104
20203WAT      O60850   4.989   9.188   8.956
20203WAT     H160851   4.998   9.131   8.874
20203WAT     H260852   4.904   9.240   8.951
20204WAT      O60853   0.457   0.189   0.321
20204WAT     H160854   0.399   0.109   0.307
20204WAT     H260855   0.402   0.265   0.353
20205WAT      O60856   1.724   5.536   1.317
20205WAT     H160857   1.625   5.529   1.312
20205WAT     H260858   1.764   5.515   1.228
20206WAT      O60859   6.812   9.698   8.922
20206WAT     H160860   6.753   9.776   8.942
20206WAT     H260861   6.908   9.727   8.930
20207WAT      O60862   3.065   2.930   4.614
20207WAT     H160863   3.040   2.974   4.700
20207WAT     H260864   3.135   2.860   4.632
20208WAT      O60865   0.998   0.138   2.403
20208WAT     H160866   1.039   0.067   2.460
20208WAT     H260867   0.992   0.106   2.309
20209WAT      O60868   0.590   0.768   2.790
20209WAT     H160869   0.511   0.788   2.732
20209WAT     H260870   0.665   0.734   2.733
20210WAT      O60871   7.475   2.365   1.518
20210WAT     H160872   7.396   2.317   1.481
20210WAT     H260873   7.475   2.460   1.484
20211WAT      O60874   2.609   2.632   3.763
20211WAT     H160875   2.564   2.667   3.681
20211WAT     H260876   2.610   2.532   3.761
20212WAT      O60877   7.509   4.848   3.934
20212WAT     H160878   7.482   4.796   3.853
20212WAT     H260879   7.470   4.804   4.015
20213WAT      O60880   2.052   8.619   3.258
20213WAT     H160881   2.150   8.623   3.276
20213WAT     H260882   2.001   8.640   3.341
20214WAT      O60883   2.999   7.849   3.200
20214WAT     H160884   3.091   7.812   3.195
20214WAT     H260885   2.953   7.836   3.112
20215WAT      O60886   1.440   7.244   8.305
20215WAT     H160887   1.476   7.285   8.389
20215WAT     H260888   1.341   7.260   8.300
20216WAT      O60889   6.543   4.525   6.397
20216WAT     H160890   6.446   4.512   6.420
20216WAT     H260891   6.573   4.614   6.432
20217WAT      O60892   9.456   7.855   1.613
20217WAT     H160893   9.422   7.764   1.590
20217WAT     H260894   9.405   7.924   1.561
20218WAT      O60895   8.898   1.371   1.389
20218WAT     H160896   8.982   1.393   1.440
20218WAT     H260897   8.921   1.311   1.312
20219WAT      O60898   7.943   8.772   4.780
20219WAT     H160899   8.036   8.786   4.815
20219WAT     H260900   7.884   8.742   4.855
20220WAT      O60901   7.495   5.293   1.192
20220WAT     H160902   7.551   5.363   1.147
20220WAT     H260903   7.520   5.203   1.157
20221WAT      O60904   8.261   5.381   8.298
20221WAT     H160905   8.246   5.465   8.247
20221WAT     H260906   8.190   5.314   8.274
20222WAT      O60907   2.042   4.377   9.050
20222WAT     H160908   2.026   4.383   8.951
20222WAT     H260909   2.122   4.319   9.067
20223WAT      O60910   0.021   9.166   5.818
20223WAT     H160911   0.093   9.203   5.759
20223WAT     H260912  -0.057   9.229   5.819
20224WAT      O60913   5.325   7.804   0.322
20224WAT     H160914   5.370   7.792   0.234
20224WAT     H260915   5.247   7.742   0.328
20225WAT      O60916   3.279   9.162   8.304
20225WAT     H160917   3.311   9.245   8.350
20225WAT     H260918   3.183   9.146   8.328
20226WAT      O60919   6.006   5.028   5.152
20226WAT     H160920   5.912   5.043   5.184
20226WAT     H260921   6.006   4.957   5.081
20227WAT      O60922   6.545   1.148   4.373
20227WAT     H160923   6.627   1.187   4.414
20227WAT     H260924   6.495   1.095   4.441
20228WAT      O60925   0.097   1.783   8.295
20228WAT     H160926   0.130   1.876   8.278
20228WAT     H260927   0.019   1.764   8.236
20229WAT      O60928   0.503   4.984   6.203
20229WAT     H160929   0.524   5.055   6.270
20229WAT     H260930   0.533   5.014   6.112
20230WAT      O60931   4.455   3.729   6.161
20230WAT     H160932   4.464   3.648   6.102
20230WAT     H260933   4.472   3.811   6.106
20231WAT      O60934   7.752   4.713   5.330
20231WAT     H160935   7.802   4.789   5.371
20231WAT     H260936   7.703   4.662   5.401
20232WAT      O60937   6.939   1.204   9.862
20232WAT     H160938   6.896   1.120   9.895
20232WAT     H260939   7.038   1.197   9.872
20233WAT      O60940   7.097   8.407   8.093
20233WAT     H160941   7.077   8.310   8.075
20233WAT     H260942   7.149   8.415   8.178
20234WAT      O60943   1.841   7.585   8.766
20234WAT     H160944   1.745   7.613   8.763
20234WAT     H260945   1.889   7.639   8.836
20235WAT      O60946   7.058   7.108   0.812
20235WAT     H160947   7.009   7.022   0.823
20235WAT     H260948   7.142   7.106   0.865
20236WAT      O60949   3.891   8.253   1.341
20236WAT     H160950   3.990   8.260   1.355
20236WAT     H260951   3.868   8.287   1.250
20237WAT      O60952   2.380   6.179   1.276
20237WAT     H160953   2.411   6.237   1.200
20237WAT     H260954   2.440   6.100   1.285
20238WAT      O60955   7.896   1.894   9.103
20238WAT     H160956   7.845   1.810   9.123
20238WAT     H260957   7.994   1.878   9.113
20239WAT      O60958   0.320   7.328   2.572
20239WAT     H160959   0.338   7.238   2.611
20239WAT     H260960   0.271   7.385   2.638
20240WAT      O60961   7.104   5.293   8.762
20240WAT     H160962   7.133   5.311   8.856
20240WAT     H260963   7.120   5.374   8.706
20241WAT      O60964   8.232   5.830   4.746
20241WAT     H160965   8.236   5.928   4.767
20241WAT     H260966   8.319   5.787   4.769
20242WAT      O60967   6.660   6.663   7.257
20242WAT     H160968   6.569   6.704   7.269
20242WAT     H260969   6.729   6.724   7.296
20243WAT      O60970   4.803   0.596   3.929
20243WAT     H160971   4.774   0.614   3.835
20243WAT     H260972   4.888   0.543   3.928
20244WAT      O60973   5.540   2.287   3.959
20244WAT     H160974   5.619   2.225   3.964
20244WAT     H260975   5.523   2.327   4.049
20245WAT      O60976   6.658   8.400   6.555
20245WAT     H160977   6.697   8.360   6.472
20245WAT     H260978   6.572   8.355   6.577
20246WAT      O60979   3.208   2.152   2.428
20246WAT     H160980   3.196   2.146   2.329
20246WAT     H260981   3.140   2.094   2.473
20247WAT      O60982   1.230   9.231   3.242
20247WAT     H160983   1.307   9.265   3.188
20247WAT     H260984   1.145   9.249   3.192
20248WAT      O60985   8.011   2.430   5.309
20248WAT     H160986   8.049   2.492   5.241
20248WAT     H260987   8.045   2.453   5.399
20249WAT      O60988   9.647   9.575   4.525
20249WAT     H160989   9.674   9.587   4.429
20249WAT     H260990   9.589   9.494   4.533
20250WAT      O60991   2.140   1.487   0.650
20250WAT     H160992   2.175   1.394   0.649
20250WAT     H260993   2.200   1.545   0.705
20251WAT      O60994   0.495   8.456   9.289
20251WAT     H160995   0.582   8.490   9.325
20251WAT     H260996   0.420   8.506   9.332
20252WAT      O60997   4.458   0.219   3.419
20252WAT     H160998   4.443   0.174   3.507
20252WAT     H260999   4.523   0.165   3.365
20253WAT      O61000   5.847   3.385   2.300
20253WAT     H161001   5.936   3.385   2.346
20253WAT     H261002   5.775   3.402   2.367
20254WAT      O61003   1.027   6.572   9.557
20254WAT     H161004   0.993   6.632   9.484
20254WAT     H261005   0.952   6.517   9.593
20255WAT      O61006   5.346   3.142   0.512
20255WAT     H161007   5.403   3.066   0.479
20255WAT     H261008   5.401   3.226   0.513
20256WAT      O61009   6.202   8.486   1.647
20256WAT     H161010   6.117   8.469   1.598
20256WAT     H261011   6.244   8.570   1.613
20257WAT      O61012   8.012   4.593   4.998
20257WAT     H161013   7.916   4.610   4.975
20257WAT     H261014   8.023   4.499   5.030
20258WAT      O61015   2.528   3.318   4.288
20258WAT     H161016   2.580   3.240   4.323
20258WAT     H261017   2.452   3.338   4.350
20259WAT      O61018   4.347   6.171   7.848
20259WAT     H161019   4.280   6.096   7.850
20259WAT     H261020   4.307   6.252   7.890
20260WAT      O61021   2.825   6.593   6.739
20260WAT     H161022   2.851   6.524   6.673
20260WAT     H261023   2.892   6.596   6.813
20261WAT      O61024   8.063   7.943   6.144
20261WAT     H161025   8.072   7.861   6.088
20261WAT     H261026   8.002   7.924   6.221
20262WAT      O61027   4.189   1.046   8.481
20262WAT     H161028   4.209   1.033   8.384
20262WAT     H261029   4.250   0.989   8.536
20263WAT      O61030   1.686   1.845   2.938
20263WAT     H161031   1.683   1.890   3.028
20263WAT     H261032   1.729   1.756   2.948
20264WAT      O61033   1.256   1.771   9.607
20264WAT     H161034   1.265   1.864   9.570
20264WAT     H261035   1.320   1.759   9.683
20265WAT      O61036   6.265   1.725   0.773
20265WAT     H161037   6.211   1.789   0.827
20265WAT     H261038   6.284   1.766   0.683
20266WAT      O61039   6.274   2.424   0.918
20266WAT     H161040   6.205   2.468   0.976
20266WAT     H261041   6.231   2.392   0.833
20267WAT      O61042   5.292   4.258   6.286
20267WAT     H161043   5.326   4.267   6.192
20267WAT     H261044   5.363   4.286   6.350
20268WAT      O61045   2.853   4.591   5.333
20268WAT     H161046   2.823   4.680   5.301
20268WAT     H261047   2.952   4.593   5.351
20269WAT      O61048   0.259   6.887   2.915
20269WAT     H161049   0.308   6.898   3.002
20269WAT     H261050   0.172   6.842   2.932
20270WAT      O61051   8.355   9.398   4.700
20270WAT     H161052   8.283   9.392   4.630
20270WAT     H261053   8.429   9.335   4.677
20271WAT      O61054   9.337   5.938   5.532
20271WAT     H161055   9.400   5.866   5.502
20271WAT     H261056   9.244   5.915   5.502
20272WAT      O61057   9.257   5.962   6.175
20272WAT     H161058   9.315   5.882   6.158
20272WAT     H261059   9.181   5.936   6.235
20273WAT      O61060   5.459   4.274   3.785
20273WAT     H161061   5.552   4.293   3.753
20273WAT     H261062   5.411   4.360   3.800
20274WAT      O61063   7.295   6.747   3.309
20274WAT     H161064   7.346   6.683   3.253
20274WAT     H261065   7.278   6.831   3.257
20275WAT      O61066   9.296   7.142   2.580
20275WAT     H161067   9.362   7.205   2.620
20275WAT     H261068   9.334   7.049   2.581
20276WAT      O61069   1.667   0.972   4.155
20276WAT     H161070   1.643   1.068   4.173
20276WAT     H261071   1.663   0.921   4.241
20277WAT      O61072   6.368   5.836   1.105
20277WAT     H161073   6.347   5.741   1.128
20277WAT     H261074   6.312   5.896   1.161
20278WAT      O61075   2.103   4.899   8.554
20278WAT     H161076   2.135   4.865   8.642
20278WAT     H261077   2.014   4.942   8.564
20279WAT      O61078   2.758   2.113   5.612
20279WAT     H161079   2.700   2.109   5.693
20279WAT     H261080   2.735   2.194   5.559
20280WAT      O61081   9.092   1.821   1.580
20280WAT     H161082   9.033   1.761   1.525
20280WAT     H261083   9.140   1.884   1.519
20281WAT      O61084   9.128   8.865   8.065
20281WAT     H161085   9.052   8.917   8.027
20281WAT     H261086   9.123   8.770   8.033
20282WAT      O61087   5.672   2.298   8.868
20282WAT     H161088   5.687   2.370   8.801
20282WAT     H261089   5.691   2.333   8.960
20283WAT      O61090   1.325   2.626   4.316
20283WAT     H161091   1.367   2.665   4.234
20283WAT     H261092   1.243   2.575   4.290
20284WAT      O61093   1.230   9.144   1.959
20284WAT     H161094   1.220   9.242   1.941
20284WAT     H261095   1.257   9.097   1.875
20285WAT      O61096   6.444   7.242   3.250
20285WAT     H161097   6.541   7.243   3.276
20285WAT     H261098   6.389   7.214   3.329
20286WAT      O61099   8.036   6.412   3.143
20286WAT     H161100   7.991   6.497   3.168
20286WAT     H261101   7.978   6.334   3.168
20287WAT      O61102   8.157   3.362   0.798
20287WAT     H161103   8.152   3.461   0.809
20287WAT     H261104   8.224   3.340   0.726
20288WAT      O61105   2.514   5.670   2.698
20288WAT     H161106   2.463   5.740   2.749
20288WAT     H261107   2.552   5.603   2.762
20289WAT      O61108   1.861   4.001   5.296
20289WAT     H161109   1.770   4.006   5.255
20289WAT     H261110   1.929   3.989   5.224
20290WAT      O61111   6.088   3.448   8.223
20290WAT     H161112   6.144   3.520   8.265
20290WAT     H261113   6.062   3.382   8.293
20291WAT      O61114   1.880   6.402   8.451
20291WAT     H161115   1.925   6.421   8.365
20291WAT     H261116   1.807   6.468   8.467
20292WAT      O61117   7.778   6.602   4.873
20292WAT     H161118   7.776   6.699   4.895
20292WAT     H261119   7.749   6.588   4.778
20293WAT      O61120   1.179   8.063   6.149
20293WAT     H161121   1.201   8.157   6.125
20293WAT     H261122   1.163   8.055   6.247
20294WAT      O61123   1.701   9.435   1.210
20294WAT     H161124   1.763   9.376   1.261
20294WAT     H261125   1.607   9.407   1.227
20295WAT      O61126   1.142   8.384   2.266
20295WAT     H161127   1.072   8.313   2.274
20295WAT     H261128   1.106   8.470   2.302
20296WAT      O61129   2.516   2.598   9.683
20296WAT     H161130   2.589   2.580   9.749
20296WAT     H261131   2.487   2.693   9.691
20297WAT      O61132   4.706   1.736   5.191
20297WAT     H161133   4.780   1.803   5.198
20297WAT     H261134   4.662   1.725   5.280
20298WAT      O61135   8.860   6.467   1.127
20298WAT     H161136   8.865   6.368   1.136
20298WAT     H261137   8.766   6.497   1.144
20299WAT      O61138   5.332   1.223   0.480
20299WAT     H161139   5.365   1.264   0.396
20299WAT     H261140   5.409   1.185   0.532
20300WAT      O61141   2.079   3.905   0.425
20300WAT     H161142   2.034   3.994   0.436
20300WAT     H261143   2.153   3.897   0.491
20301WAT      O61144   5.074   1.809   8.558
20301WAT     H161145   5.045   1.902   8.536
20301WAT     H261146   5.106   1.763   8.475
20302WAT      O61147   5.308   7.324   7.959
20302WAT     H161148   5.317   7.416   7.921
20302WAT     H261149   5.390   7.270   7.937
20303WAT      O61150   9.290   1.090   0.516
20303WAT     H161151   9.230   1.010   0.516
20303WAT     H261152   9.248   1.164   0.464
20304WAT      O61153   1.879   5.503   9.506
20304WAT     H161154   1.861   5.538   9.414
20304WAT     H261155   1.806   5.438   9.531
20305WAT      O61156   2.321   8.376   6.345
20305WAT     H161157   2.298   8.412   6.435
20305WAT     H261158   2.258   8.414   6.277
20306WAT      O61159   0.875   8.061   5.567
20306WAT     H161160   0.962   8.018   5.591
20306WAT     H261161   0.817   8.069   5.648
20307WAT      O61162   0.312   4.445   0.277
20307WAT     H161163   0.342   4.350   0.288
20307WAT     H261164   0.268   4.456   0.188
20308WAT      O61165   5.275   0.919   2.630
20308WAT     H161166   5.253   0.962   2.717
20308WAT     H261167   5.354   0.965   2.589
20309WAT      O61168   8.544   2.783   8.662
20309WAT     H161169   8.473   2.798   8.593
20309WAT     H261170   8.634   2.800   8.623
20310WAT      O61171   7.102   7.616   4.018
20310WAT     H161172   7.019   7.666   3.996
20310WAT     H261173   7.081   7.542   4.082
20311WAT      O61174   7.704   2.036   9.261
20311WAT     H161175   7.634   2.007   9.196
20311WAT     H261176   7.756   1.957   9.293
20312WAT      O61177   4.607   8.654   9.629
20312WAT     H161178   4.689   8.711   9.643
20312WAT     H261179   4.607   8.579   9.695
20313WAT      O61180   4.972   6.651   8.513
20313WAT     H161181   4.924   6.622   8.596
20313WAT     H261182   4.907   6.690   8.448
20314WAT      O61183   7.915   6.037   3.323
20314WAT     H161184   7.860   5.954   3.335
20314WAT     H261185   7.933   6.051   3.225
20315WAT      O61186   2.185   8.559   1.078
20315WAT     H161187   2.199   8.460   1.078
20315WAT     H261188   2.137   8.586   1.162
20316WAT      O61189   1.289   8.855   2.515
20316WAT     H161190   1.326   8.764   2.497
20316WAT     H261191   1.286   8.871   2.614
20317WAT      O61192   0.403   7.549   7.838
20317WAT     H161193   0.466   7.616   7.801
20317WAT     H261194   0.437   7.457   7.820
20318WAT      O61195   1.550   6.618   9.815
20318WAT     H161196   1.614   6.613   9.738
20318WAT     H261197   1.465   6.660   9.785
20319WAT      O61198   9.667   3.568   0.706
20319WAT     H161199   9.655   3.582   0.608
20319WAT     H261200   9.722   3.642   0.744
20320WAT      O61201   0.739   9.520   3.245
20320WAT     H161202   0.788   9.471   3.317
20320WAT     H261203   0.654   9.472   3.223
20321WAT      O61204   0.873   3.535   0.274
20321WAT     H161205   0.793   3.482   0.247
20321WAT     H261206   0.859   3.631   0.250
20322WAT      O61207   5.250   4.529   5.808
20322WAT     H161208   5.185   4.457   5.783
20322WAT     H261209   5.309   4.550   5.729
20323WAT      O61210   0.901   3.361   1.745
20323WAT     H161211   0.962   3.352   1.666
20323WAT     H261212   0.955   3.385   1.826
20324WAT      O61213   3.964   0.443   4.104
20324WAT     H161214   3.951   0.371   4.035
20324WAT     H261215   3.916   0.417   4.188
20325WAT      O61216   4.514   0.068   1.724
20325WAT     H161217   4.517  -0.029   1.749
20325WAT     H261218   4.428   0.108   1.756
20326WAT      O61219   6.456   1.057   7.311
20326WAT     H161220   6.450   1.134   7.248
20326WAT     H261221   6.367   1.041   7.353
20327WAT      O61222   4.285   8.287   5.157
20327WAT     H161223   4.373   8.335   5.162
20327WAT     H261224   4.246   8.298   5.065
20328WAT      O61225   2.175   8.020   3.239
20328WAT     H161226   2.167   7.925   3.210
20328WAT     H261227   2.123   8.034   3.323
20329WAT      O61228   4.081   8.830   4.748
20329WAT     H161229   4.010   8.897   4.726
20329WAT     H261230   4.045   8.738   4.735
20330WAT      O61231   1.087   2.444   5.787
20330WAT     H161232   1.117   2.501   5.863
20330WAT     H261233   1.102   2.348   5.809
20331WAT      O61234   1.446   8.165   3.459
20331WAT     H161235   1.493   8.091   3.507
20331WAT     H261236   1.367   8.127   3.410
20332WAT      O61237   0.531   5.379   4.061
20332WAT     H161238   0.432   5.396   4.064
20332WAT     H261239   0.580   5.458   4.096
20333WAT      O61240   8.477   6.039   8.955
20333WAT     H161241   8.430   6.090   8.882
20333WAT     H261242   8.573   6.067   8.958
20334WAT      O61243   4.568   9.278   4.554
20334WAT     H161244   4.595   9.182   4.545
20334WAT     H261245   4.475   9.283   4.590
20335WAT      O61246   5.256   9.505   4.036
20335WAT     H161247   5.165   9.464   4.029
20335WAT     H261248   5.253   9.581   4.101
20336WAT      O61249   3.483   9.608   1.408
20336WAT     H161250   3.535   9.564   1.481
20336WAT     H261251   3.435   9.539   1.354
20337WAT      O61252   0.716   7.695   8.370
20337WAT     H161253   0.657   7.756   8.423
20337WAT     H261254   0.667   7.610   8.351
20338WAT      O61255   8.781   1.318   5.994
20338WAT     H161256   8.751   1.410   6.017
20338WAT     H261257   8.760   1.298   5.899
20339WAT      O61258   5.622   9.595   6.632
20339WAT     H161259   5.532   9.553   6.619
20339WAT     H261260   5.632   9.627   6.726
20340WAT      O61261   2.668   5.092   9.521
20340WAT     H161262   2.730   5.104   9.599
20340WAT     H261263   2.708   5.028   9.456
20341WAT      O61264   2.575   0.653   8.807
20341WAT     H161265   2.574   0.751   8.826
20341WAT     H261266   2.583   0.603   8.893
20342WAT      O61267   2.915   5.927   6.201
20342WAT     H161268   2.873   5.919   6.291
20342WAT     H261269   2.843   5.928   6.131
20343WAT      O61270   7.375   0.927   1.770
20343WAT     H161271   7.465   0.968   1.786
20343WAT     H261272   7.384   0.827   1.767
20344WAT      O61273   5.779   5.520   6.023
20344WAT     H161274   5.724   5.597   6.054
20344WAT     H261275   5.855   5.552   5.967
20345WAT      O61276   0.167   8.243   0.920
20345WAT     H161277   0.088   8.281   0.969
20345WAT     H261278   0.251   8.275   0.962
20346WAT      O61279   3.240   6.278   2.461
20346WAT     H161280   3.324   6.229   2.438
20346WAT     H261281   3.255   6.331   2.545
20347WAT      O61282   1.460   1.189   2.594
20347WAT     H161283   1.417   1.131   2.664
20347WAT     H261284   1.430   1.160   2.503
20348WAT      O61285   4.707   7.032   9.820
20348WAT     H161286   4.618   7.035   9.774
20348WAT     H261287   4.730   6.937   9.842
20349WAT      O61288   1.992   3.499   6.250
20349WAT     H161289   1.961   3.590   6.277
20349WAT     H261290   1.914   3.442   6.227
20350WAT      O61291   1.959   1.189   8.478
20350WAT     H161292   2.005   1.110   8.519
20350WAT     H261293   1.896   1.158   8.407
20351WAT      O61294   0.922   6.985   6.180
20351WAT     H161295   0.941   7.078   6.210
20351WAT     H261296   0.829   6.959   6.208
20352WAT      O61297   8.298   9.068   1.990
20352WAT     H161298   8.201   9.091   2.005
20352WAT     H261299   8.356   9.135   2.036
20353WAT      O61300   1.321   5.948   5.131
20353WAT     H161301   1.271   5.932   5.046
20353WAT     H261302   1.417   5.965   5.111
20354WAT      O61303   3.021   6.554   7.367
20354WAT     H161304   2.931   6.527   7.401
20354WAT     H261305   3.027   6.653   7.363
20355WAT      O61306   2.889   8.803   0.809
20355WAT     H161307   2.965   8.738   0.808
20355WAT     H261308   2.831   8.784   0.888
20356WAT      O61309   2.595   2.413   7.734
20356WAT     H161310   2.569   2.441   7.827
20356WAT     H261311   2.645   2.488   7.689
20357WAT      O61312   6.346   4.626   1.194
20357WAT     H161313   6.295   4.627   1.108
20357WAT     H261314   6.444   4.625   1.175
20358WAT      O61315   8.215   5.251   9.197
20358WAT     H161316   8.118   5.229   9.183
20358WAT     H261317   8.239   5.333   9.145
20359WAT      O61318   2.083   5.675   3.321
20359WAT     H161319   2.059   5.764   3.362
20359WAT     H261320   2.139   5.623   3.385
20360WAT      O61321   9.144   8.390   7.742
20360WAT     H161322   9.075   8.452   7.705
20360WAT     H261323   9.226   8.393   7.685
20361WAT      O61324   7.142   3.222   8.117
20361WAT     H161325   7.216   3.289   8.122
20361WAT     H261326   7.175   3.138   8.074
20362WAT      O61327   4.964   2.183   1.488
20362WAT     H161328   4.978   2.155   1.393
20362WAT     H261329   4.928   2.107   1.541
20363WAT      O61330   0.160   0.560   9.179
20363WAT     H161331   0.208   0.477   9.209
20363WAT     H261332   0.174   0.633   9.246
20364WAT      O61333   7.865   2.466   4.762
20364WAT     H161334   7.839   2.554   4.803
20364WAT     H261335   7.792   2.435   4.701
20365WAT      O61336   2.207   3.629   4.338
20365WAT     H161337   2.249   3.716   4.314
20365WAT     H261338   2.120   3.646   4.384
20366WAT      O61339   0.058   6.402   5.890
20366WAT     H161340   0.095   6.411   5.982
20366WAT     H261341  -0.037   6.435   5.889
20367WAT      O61342   5.910   6.447   1.674
20367WAT     H161343   5.829   6.502   1.694
20367WAT     H261344   5.901   6.405   1.584
20368WAT      O61345   2.291   3.887   4.323
20368WAT     H161346   2.345   3.951   4.378
20368WAT     H261347   2.320   3.893   4.227
20369WAT      O61348   7.374   0.430   2.653
20369WAT     H161349   7.292   0.465   2.699
20369WAT     H261350   7.392   0.485   2.572
20370WAT      O61351   7.524   9.198   3.763
20370WAT     H161352   7.574   9.169   3.681
20370WAT     H261353   7.491   9.291   3.751
20371WAT      O61354   6.326   2.779   5.820
20371WAT     H161355   6.341   2.710   5.891
20371WAT     H261356   6.365   2.866   5.850
20372WAT      O61357   8.132   7.946   1.707
20372WAT     H161358   8.230   7.965   1.698
20372WAT     H261359   8.113   7.855   1.671
20373WAT      O61360   7.241   8.108   0.062
20373WAT     H161361   7.171   8.139  -0.002
20373WAT     H261362   7.235   8.160   0.147
20374WAT      O61363   9.275   7.767   8.271
20374WAT     H161364   9.357   7.810   8.232
20374WAT     H261365   9.277   7.776   8.370
20375WAT      O61366   4.234   7.106   8.229
20375WAT     H161367   4.301   7.051   8.179
20375WAT     H261368   4.273   7.197   8.247
20376WAT      O61369   9.678   5.631   0.314
20376WAT     H161370   9.602   5.608   0.375
20376WAT     H261371   9.643   5.641   0.220
20377WAT      O61372   5.051   9.536   1.256
20377WAT     H161373   4.987   9.465   1.285
20377WAT     H261374   5.110   9.562   1.333
20378WAT      O61375   8.901   8.420   6.424
20378WAT     H161376   8.991   8.379   6.440
20378WAT     H261377   8.910   8.519   6.420
20379WAT      O61378   4.652   1.085   4.282
20379WAT     H161379   4.629   1.000   4.329
20379WAT     H261380   4.681   1.065   4.188
20380WAT      O61381   2.583   6.520   8.871
20380WAT     H161382   2.531   6.454   8.926
20380WAT     H261383   2.579   6.495   8.775
20381WAT      O61384   5.729   0.464   9.659
20381WAT     H161385   5.670   0.526   9.606
20381WAT     H261386   5.813   0.512   9.684
20382WAT      O61387   4.205   0.624   2.370
20382WAT     H161388   4.299   0.640   2.340
20382WAT     H261389   4.196   0.529   2.400
20383WAT      O61390   8.466   6.514   5.203
20383WAT     H161391   8.377   6.522   5.248
20383WAT     H261392   8.494   6.418   5.201
20384WAT      O61393   2.130   4.262   5.640
20384WAT     H161394   2.094   4.289   5.551
20384WAT     H261395   2.202   4.193   5.627
20385WAT      O61396   1.356   8.311   8.278
20385WAT     H161397   1.404   8.247   8.339
20385WAT     H261398   1.332   8.264   8.194
20386WAT      O61399   1.342   3.527   1.457
20386WAT     H161400   1.400   3.566   1.386
20386WAT     H261401   1.297   3.600   1.508
20387WAT      O61402   9.098   5.005   8.410
20387WAT     H161403   9.154   5.084   8.430
20387WAT     H261404   9.049   5.019   8.324
20388WAT      O61405   1.439   7.482   5.924
20388WAT     H161406   1.520   7.539   5.914
20388WAT     H261407   1.437   7.442   6.016
20389WAT      O61408   3.387   4.318   8.316
20389WAT     H161409   3.320   4.354   8.251
20389WAT     H261410   3.358   4.228   8.348
20390WAT      O61411   8.363   5.806   1.721
20390WAT     H161412   8.453   5.778   1.755
20390WAT     H261413   8.373   5.847   1.631
20391WAT      O61414   7.333   3.161   5.226
20391WAT     H161415   7.254   3.169   5.166
20391WAT     H261416   7.395   3.091   5.190
20392WAT      O61417   6.210   4.142   7.493
20392WAT     H161418   6.173   4.189   7.413
20392WAT     H261419   6.204   4.043   7.480
20393WAT      O61420   1.248   7.023   9.563
20393WAT     H161421   1.156   7.012   9.525
20393WAT     H261422   1.311   7.049   9.490
20394WAT      O61423   3.218   4.209   2.168
20394WAT     H161424   3.275   4.200   2.250
20394WAT     H261425   3.231   4.129   2.109
20395WAT      O61426   5.071   8.718   1.662
20395WAT     H161427   5.084   8.683   1.754
20395WAT     H261428   4.977   8.702   1.633
20396WAT      O61429   4.169   6.198   8.934
20396WAT     H161430   4.073   6.179   8.912
20396WAT     H261431   4.174   6.278   8.994
20397WAT      O61432   8.912   0.624   4.957
20397WAT     H161433   8.878   0.610   4.864
20397WAT     H261434   8.878   0.551   5.017
20398WAT      O61435   3.511   0.046   6.728
20398WAT     H161436   3.586   0.073   6.788
20398WAT     H261437   3.453  -0.021   6.775
20399WAT      O61438   4.167   7.795   4.636
20399WAT     H161439   4.130   7.718   4.584
20399WAT     H261440   4.123   7.799   4.726
20400WAT      O61441   8.899   1.794   4.018
20400WAT     H161442   8.863   1.734   4.089
20400WAT     H261443   8.997   1.778   4.007
20401WAT      O61444   5.630   1.371   1.263
20401WAT     H161445   5.537   1.333   1.265
20401WAT     H261446   5.664   1.380   1.356
20402WAT      O61447   1.858   5.556   4.418
20402WAT     H161448   1.898   5.470   4.447
20402WAT     H261449   1.863   5.622   4.493
20403WAT      O61450   8.412   2.611   6.519
20403WAT     H161451   8.374   2.561   6.597
20403WAT     H261452   8.367   2.700   6.512
20404WAT      O61453   6.206   7.322   3.984
20404WAT     H161454   6.199   7.360   3.892
20404WAT     H261455   6.129   7.353   4.039
20405WAT      O61456   5.820   0.444   2.840
20405WAT     H161457   5.857   0.355   2.816
20405WAT     H261458   5.887   0.515   2.817
20406WAT      O61459   9.834   8.507   7.402
20406WAT     H161460   9.910   8.457   7.361
20406WAT     H261461   9.748   8.461   7.378
20407WAT      O61462   2.919   1.727   3.518
20407WAT     H161463   3.019   1.726   3.512
20407WAT     H261464   2.891   1.688   3.606
20408WAT      O61465   5.532   1.984   1.964
20408WAT     H161466   5.582   2.062   2.003
20408WAT     H261467   5.499   2.008   1.873
20409WAT      O61468   0.715   0.239   2.400
20409WAT     H161469   0.657   0.171   2.355
20409WAT     H261470   0.804   0.199   2.419
20410WAT      O61471   1.363   2.474   5.489
20410WAT     H161472   1.458   2.493   5.464
20410WAT     H261473   1.322   2.556   5.529
20411WAT      O61474   4.470   6.450   7.183
20411WAT     H161475   4.536   6.524   7.172
20411WAT     H261476   4.385   6.486   7.222
20412WAT      O61477   2.999   7.193   5.062
20412WAT     H161478   2.905   7.193   5.098
20412WAT     H261479   3.045   7.277   5.091
20413WAT      O61480   9.359   9.836   7.648
20413WAT     H161481   9.365   9.813   7.551
20413WAT     H261482   9.279   9.894   7.664
20414WAT      O61483   5.674   4.732   7.960
20414WAT     H161484   5.634   4.815   7.921
20414WAT     H261485   5.720   4.754   8.046
20415WAT      O61486   3.983   7.992   0.757
20415WAT     H161487   3.923   7.927   0.710
20415WAT     H261488   3.936   8.028   0.838
20416WAT      O61489   4.116   5.118   6.168
20416WAT     H161490   4.142   5.212   6.147
20416WAT     H261491   4.175   5.082   6.240
20417WAT      O61492   8.654   5.127   0.977
20417WAT     H161493   8.666   5.039   0.932
20417WAT     H261494   8.718   5.194   0.939
20418WAT      O61495   1.518   8.630   5.808
20418WAT     H161496   1.601   8.580   5.832
20418WAT     H261497   1.506   8.629   5.709
20419WAT      O61498   4.670   3.579   9.711
20419WAT     H161499   4.636   3.502   9.657
20419WAT     H261500   4.632   3.575   9.803
20420WAT      O61501   8.636   8.984   8.601
20420WAT     H161502   8.665   9.065   8.550
20420WAT     H261503   8.557   8.943   8.556
20421WAT      O61504   5.831   1.491   2.384
20421WAT     H161505   5.903   1.444   2.332
20421WAT     H261506   5.748   1.494   2.329
20422WAT      O61507   6.860   3.007   0.598
20422WAT     H161508   6.900   3.098   0.592
20422WAT     H261509   6.763   3.015   0.621
20423WAT      O61510   4.477   1.588   9.500
20423WAT     H161511   4.563   1.545   9.526
20423WAT     H261512   4.452   1.559   9.408
20424WAT      O61513   0.887   1.796   8.172
20424WAT     H161514   0.882   1.757   8.264
20424WAT     H261515   0.916   1.891   8.178
20425WAT      O61516   0.801   0.724   2.637
20425WAT     H161517   0.779   0.672   2.554
20425WAT     H261518   0.823   0.819   2.612
20426WAT      O61519   4.278   0.627   7.278
20426WAT     H161520   4.192   0.606   7.230
20426WAT     H261521   4.315   0.543   7.318
20427WAT      O61522   6.689   0.905   7.806
20427WAT     H161523   6.674   0.849   7.725
20427WAT     H261524   6.706   1.000   7.779
20428WAT      O61525   4.300   0.728   5.819
20428WAT     H161526   4.280   0.820   5.851
20428WAT     H261527   4.388   0.698   5.856
20429WAT      O61528   9.765   9.786   6.773
20429WAT     H161529   9.768   9.851   6.849
20429WAT     H261530   9.824   9.818   6.699
20430WAT      O61531   3.248   9.406   0.224
20430WAT     H161532   3.248   9.503   0.202
20430WAT     H261533   3.342   9.371   0.222
20431WAT      O61534   9.813   3.372   4.089
20431WAT     H161535   9.735   3.416   4.134
20431WAT     H261536   9.790   3.277   4.069
20432WAT      O61537   3.039   5.577   9.165
20432WAT     H161538   3.136   5.590   9.189
20432WAT     H261539   2.991   5.664   9.176
20433WAT      O61540   6.829   8.515   4.291
20433WAT     H161541   6.821   8.613   4.308
20433WAT     H261542   6.740   8.472   4.304
20434WAT      O61543   5.557   6.682   4.583
20434WAT     H161544   5.637   6.694   4.642
20434WAT     H261545   5.580   6.710   4.490
20435WAT      O61546   9.156   5.009   6.240
20435WAT     H161547   9.146   5.007   6.340
20435WAT     H261548   9.124   4.923   6.202
20436WAT      O61549   1.323   2.137   3.682
20436WAT     H161550   1.295   2.181   3.768
20436WAT     H261551   1.405   2.183   3.647
20437WAT      O61552   1.591   3.080   1.911
20437WAT     H161553   1.635   3.152   1.857
20437WAT     H261554   1.493   3.100   1.919
20438WAT      O61555   7.512   0.994   6.199
20438WAT     H161556   7.444   1.038   6.142
20438WAT     H261557   7.603   1.006   6.159
20439WAT      O61558   7.583   0.706   6.169
20439WAT     H161559   7.683   0.707   6.178
20439WAT     H261560   7.545   0.791   6.205
20440WAT      O61561   8.317   4.144   3.505
20440WAT     H161562   8.248   4.208   3.539
20440WAT     H261563   8.389   4.194   3.459
20441WAT      O61564   9.736   8.690   4.247
20441WAT     H161565   9.652   8.733   4.282
20441WAT     H261566   9.764   8.736   4.162
20442WAT      O61567   4.884   8.212   3.710
20442WAT     H161568   4.906   8.191   3.806
20442WAT     H261569   4.801   8.164   3.683
20443WAT      O61570   7.321   8.759   4.272
20443WAT     H161571   7.302   8.662   4.259
20443WAT     H261572   7.317   8.782   4.369
20444WAT      O61573   4.637   2.573   0.538
20444WAT     H161574   4.580   2.503   0.581
20444WAT     H261575   4.647   2.651   0.600
20445WAT      O61576   5.027   3.250   0.611
20445WAT     H161577   5.021   3.185   0.535
20445WAT     H261578   5.066   3.204   0.691
20446WAT      O61579   4.415   3.161   7.320
20446WAT     H161580   4.502   3.112   7.323
20446WAT     H261581   4.339   3.096   7.332
20447WAT      O61582   9.643   8.188   0.773
20447WAT     H161583   9.625   8.234   0.860
20447WAT     H261584   9.588   8.105   0.766
20448WAT      O61585   2.344   3.101   4.922
20448WAT     H161586   2.417   3.042   4.887
20448WAT     H261587   2.362   3.196   4.896
20449WAT      O61588   3.126   6.091   7.242
20449WAT     H161589   3.098   6.125   7.152
20449WAT     H261590   3.053   6.034   7.280
20450WAT      O61591   7.700   3.572   3.911
20450WAT     H161592   7.766   3.571   3.986
20450WAT     H261593   7.736   3.519   3.834
20451WAT      O61594   9.615   8.707   0.310
20451WAT     H161595   9.538   8.666   0.261
20451WAT     H261596   9.627   8.660   0.398
20452WAT      O61597   6.650   5.399   2.369
20452WAT     H161598   6.610   5.489   2.383
20452WAT     H261599   6.628   5.367   2.277
20453WAT      O61600   4.808   3.595   1.157
20453WAT     H161601   4.734   3.587   1.223
20453WAT     H261602   4.863   3.676   1.177
20454WAT      O61603   2.555   8.892   4.463
20454WAT     H161604   2.648   8.868   4.491
20454WAT     H261605   2.494   8.816   4.482
20455WAT      O61606   9.748   8.105   7.951
20455WAT     H161607   9.811   8.119   8.027
20455WAT     H261608   9.766   8.172   7.879
20456WAT      O61609   2.171   1.845   1.252
20456WAT     H161610   2.101   1.788   1.209
20456WAT     H261611   2.137   1.879   1.339
20457WAT      O61612   8.339   3.630   8.231
20457WAT     H161613   8.333   3.539   8.274
20457WAT     H261614   8.247   3.664   8.212
20458WAT      O61615   4.033   7.719   7.100
20458WAT     H161616   3.970   7.654   7.141
20458WAT     H261617   4.094   7.670   7.037
20459WAT      O61618   0.371   9.556   6.790
20459WAT     H161619   0.412   9.525   6.876
20459WAT     H261620   0.338   9.476   6.739
20460WAT      O61621   3.273   0.633   1.409
20460WAT     H161622   3.185   0.659   1.451
20460WAT     H261623   3.280   0.676   1.319
20461WAT      O61624   4.593   8.337   5.351
20461WAT     H161625   4.583   8.238   5.358
20461WAT     H261626   4.687   8.359   5.325
20462WAT      O61627   4.807   9.600   9.717
20462WAT     H161628   4.862   9.517   9.733
20462WAT     H261629   4.798   9.650   9.803
20463WAT      O61630   0.995   3.384   7.670
20463WAT     H161631   0.937   3.375   7.589
20463WAT     H261632   0.952   3.447   7.734
20464WAT      O61633   0.399   6.595   8.696
20464WAT     H161634   0.409   6.563   8.790
20464WAT     H261635   0.377   6.518   8.636
20465WAT      O61636   9.034   2.738   9.113
20465WAT     H161637   9.095   2.760   9.037
20465WAT     H261638   8.953   2.796   9.110
20466WAT      O61639   9.694   9.446   9.429
20466WAT     H161640   9.775   9.483   9.473
20466WAT     H261641   9.659   9.511   9.361
20467WAT      O61642   9.161   9.118   3.349
20467WAT     H161643   9.189   9.084   3.259
20467WAT     H261644   9.088   9.185   3.338
20468WAT      O61645   6.353   2.131   8.158
20468WAT     H161646   6.329   2.035   8.172
20468WAT     H261647   6.409   2.163   8.235
20469WAT      O61648   0.150   8.044   8.712
20469WAT     H161649   0.183   7.950   8.702
20469WAT     H261650   0.096   8.051   8.796
20470WAT      O61651   1.872   8.487   9.278
20470WAT     H161652   1.881   8.387   9.282
20470WAT     H261653   1.800   8.517   9.341
20471WAT      O61654   8.865   7.659   1.290
20471WAT     H161655   8.923   7.724   1.340
20471WAT     H261656   8.772   7.664   1.326
20472WAT      O61657   9.010   3.755   3.918
20472WAT     H161658   8.987   3.738   4.014
20472WAT     H261659   9.048   3.672   3.877
20473WAT      O61660   5.577   3.411   5.100
20473WAT     H161661   5.502   3.396   5.036
20473WAT     H261662   5.556   3.490   5.158
20474WAT      O61663   0.214   8.638   6.525
20474WAT     H161664   0.274   8.715   6.505
20474WAT     H261665   0.121   8.660   6.496
20475WAT      O61666   8.271   3.149   9.577
20475WAT     H161667   8.270   3.243   9.545
20475WAT     H261668   8.346   3.100   9.533
20476WAT      O61669   0.982   3.777   4.222
20476WAT     H161670   0.928   3.716   4.165
20476WAT     H261671   0.925   3.852   4.256
20477WAT      O61672   2.515   8.555   5.064
20477WAT     H161673   2.454   8.630   5.089
20477WAT     H261674   2.579   8.537   5.140
20478WAT      O61675   9.328   4.522   5.678
20478WAT     H161676   9.232   4.518   5.649
20478WAT     H261677   9.333   4.559   5.771
20479WAT      O61678   2.263   8.906   0.096
20479WAT     H161679   2.172   8.878   0.067
20479WAT     H261680   2.332   8.846   0.055
20480WAT      O61681   9.223   9.601   8.502
20480WAT     H161682   9.257   9.678   8.555
20480WAT     H261683   9.172   9.539   8.562
20481WAT      O61684   8.258   8.903   5.795
20481WAT     H161685   8.328   8.880   5.728
20481WAT     H261686   8.256   9.003   5.808
20482WAT      O61687   5.054   9.105   4.097
20482WAT     H161688   5.009   9.154   4.172
20482WAT     H261689   5.152   9.104   4.112
20483WAT      O61690   8.543   4.088   7.435
20483WAT     H161691   8.544   4.175   7.387
20483WAT     H261692   8.590   4.098   7.523
20484WAT      O61693   0.385   7.941   9.294
20484WAT     H161694   0.309   8.006   9.297
20484WAT     H261695   0.349   7.848   9.283
20485WAT      O61696   3.585   4.476   9.153
20485WAT     H161697   3.505   4.430   9.193
20485WAT     H261698   3.607   4.433   9.066
20486WAT      O61699   4.939   2.249   3.210
20486WAT     H161700   4.913   2.192   3.288
20486WAT     H261701   5.036   2.271   3.216
20487WAT      O61702   0.293   1.497   8.984
20487WAT     H161703   0.200   1.475   8.955
20487WAT     H261704   0.304   1.476   9.081
20488WAT      O61705   7.282   5.056   3.972
20488WAT     H161706   7.295   5.140   3.919
20488WAT     H261707   7.225   4.992   3.920
20489WAT      O61708   3.867   6.063   0.344
20489WAT     H161709   3.788   6.015   0.307
20489WAT     H261710   3.911   6.116   0.272
20490WAT      O61711   6.571   1.984   7.657
20490WAT     H161712   6.644   1.951   7.717
20490WAT     H261713   6.611   2.042   7.586
20491WAT      O61714   5.838   7.391   8.108
20491WAT     H161715   5.749   7.421   8.144
20491WAT     H261716   5.887   7.470   8.072
20492WAT      O61717   5.678   3.086   6.994
20492WAT     H161718   5.700   3.050   7.085
20492WAT     H261719   5.709   3.181   6.988
20493WAT      O61720   3.086   7.151   4.573
20493WAT     H161721   3.032   7.089   4.516
20493WAT     H261722   3.051   7.150   4.667
20494WAT      O61723   2.079   7.550   3.623
20494WAT     H161724   2.046   7.499   3.702
20494WAT     H261725   2.178   7.538   3.615
20495WAT      O61726   8.878   1.432   2.983
20495WAT     H161727   8.933   1.356   2.950
20495WAT     H261728   8.861   1.421   3.081
20496WAT      O61729   7.123   0.631   5.137
20496WAT     H161730   7.212   0.592   5.115
20496WAT     H261731   7.067   0.563   5.184
20497WAT      O61732   1.538   5.191   1.645
20497WAT     H161733   1.476   5.262   1.611
20497WAT     H261734   1.519   5.105   1.599
20498WAT      O61735   7.933   9.099   9.001
20498WAT     H161736   7.908   9.095   8.904
20498WAT     H261737   7.994   9.023   9.023
20499WAT      O61738   2.216   6.236   0.746
20499WAT     H161739   2.294   6.210   0.689
20499WAT     H261740   2.215   6.335   0.758
20500WAT      O61741   4.189   8.352   3.029
20500WAT     H161742   4.092   8.371   3.046
20500WAT     H261743   4.199   8.312   2.938
20501WAT      O61744   0.222   9.551   1.946
20501WAT     H161745   0.268   9.637   1.970
20501WAT     H261746   0.144   9.537   2.007
20502WAT      O61747   8.146   3.828   8.173
20502WAT     H161748   8.179   3.851   8.265
20502WAT     H261749   8.067   3.885   8.150
20503WAT      O61750   7.383   5.097   6.298
20503WAT     H161751   7.453   5.137   6.356
20503WAT     H261752   7.396   4.997   6.294
20504WAT      O61753   6.548   8.377   7.732
20504WAT     H161754   6.603   8.454   7.763
20504WAT     H261755   6.540   8.380   7.633
20505WAT      O61756   3.907   1.130   8.958
20505WAT     H161757   3.841   1.058   8.981
20505WAT     H261758   3.940   1.117   8.865
20506WAT      O61759   9.282   7.848   7.020
20506WAT     H161760   9.291   7.831   7.119
20506WAT     H261761   9.365   7.817   6.974
20507WAT      O61762   3.554   9.242   3.817
20507WAT     H161763   3.555   9.145   3.840
20507WAT     H261764   3.494   9.258   3.738
20508WAT      O61765   7.265   0.895   7.126
20508WAT     H161766   7.261   0.936   7.035
20508WAT     H261767   7.353   0.917   7.168
20509WAT      O61768   7.912   0.742   0.852
20509WAT     H161769   7.859   0.719   0.770
20509WAT     H261770   7.996   0.789   0.825
20510WAT      O61771   1.912   3.959   5.562
20510WAT     H161772   1.927   3.861   5.571
20510WAT     H261773   1.892   3.982   5.467
20511WAT      O61774   1.062   8.336   3.133
20511WAT     H161775   0.989   8.332   3.065
20511WAT     H261776   1.049   8.264   3.201
20512WAT      O61777   2.060   5.694   8.915
20512WAT     H161778   2.041   5.604   8.874
20512WAT     H261779   2.099   5.681   9.006
20513WAT      O61780   7.554   4.930   7.383
20513WAT     H161781   7.634   4.936   7.324
20513WAT     H261782   7.477   4.976   7.338
20514WAT      O61783   0.567   1.850   5.169
20514WAT     H161784   0.631   1.820   5.097
20514WAT     H261785   0.485   1.887   5.126
20515WAT      O61786   6.353   0.757   4.037
20515WAT     H161787   6.443   0.762   4.079
20515WAT     H261788   6.284   0.788   4.102
20516WAT      O61789   7.869   3.494   5.298
20516WAT     H161790   7.842   3.400   5.276
20516WAT     H261791   7.857   3.551   5.217
20517WAT      O61792   0.496   2.487   2.332
20517WAT     H161793   0.458   2.419   2.269
20517WAT     H261794   0.584   2.455   2.367
20518WAT      O61795   0.372   8.682   4.110
20518WAT     H161796   0.283   8.684   4.155
20518WAT     H261797   0.409   8.776   4.105
20519WAT      O61798   1.042   8.638   2.403
20519WAT     H161799   0.957   8.655   2.354
20519WAT     H261800   1.118   8.680   2.353
20520WAT      O61801   0.207   6.230   0.340
20520WAT     H161802   0.143   6.166   0.382
20520WAT     H261803   0.156   6.300   0.289
20521WAT      O61804   0.800   0.566   1.544
20521WAT     H161805   0.848   0.550   1.457
20521WAT     H261806   0.745   0.487   1.566
20522WAT      O61807   1.211   9.213   9.699
20522WAT     H161808   1.239   9.123   9.666
20522WAT     H261809   1.290   9.275   9.699
20523WAT      O61810   3.990   6.597   1.246
20523WAT     H161811   4.045   6.564   1.323
20523WAT     H261812   3.944   6.520   1.202
20524WAT      O61813   1.643   4.208   1.887
20524WAT     H161814   1.578   4.210   1.811
20524WAT     H261815   1.728   4.254   1.859
20525WAT      O61816   6.206   7.781   1.852
20525WAT     H161817   6.241   7.835   1.775
20525WAT     H261818   6.127   7.827   1.892
20526WAT      O61819   1.059   2.584   7.853
20526WAT     H161820   1.058   2.624   7.944
20526WAT     H261821   0.972   2.536   7.837
20527WAT      O61822   3.675   5.387   0.223
20527WAT     H161823   3.665   5.372   0.321
20527WAT     H261824   3.591   5.428   0.187
20528WAT      O61825   1.864   0.867   0.890
20528WAT     H161826   1.794   0.937   0.903
20528WAT     H261827   1.872   0.812   0.973
20529WAT      O61828   1.393   9.684   1.537
20529WAT     H161829   1.447   9.659   1.618
20529WAT     H261830   1.296   9.667   1.555
20530WAT      O61831   6.006   7.083   9.616
20530WAT     H161832   5.958   7.008   9.662
20530WAT     H261833   6.015   7.160   9.679
20531WAT      O61834   9.540   9.356   0.616
20531WAT     H161835   9.513   9.315   0.529
20531WAT     H261836   9.565   9.452   0.602
20532WAT      O61837   1.205   6.200   7.514
20532WAT     H161838   1.148   6.142   7.573
20532WAT     H261839   1.240   6.146   7.438
20533WAT      O61840   6.458   7.908   1.698
20533WAT     H161841   6.556   7.904   1.716
20533WAT     H261842   6.427   8.003   1.701
20534WAT      O61843   0.450   2.939   8.383
20534WAT     H161844   0.528   2.949   8.321
20534WAT     H261845   0.365   2.947   8.332
20535WAT      O61846   8.710   5.433   7.508
20535WAT     H161847   8.765   5.404   7.430
20535WAT     H261848   8.648   5.506   7.481
20536WAT      O61849   0.995   5.251   8.236
20536WAT     H161850   0.917   5.290   8.188
20536WAT     H261851   1.072   5.315   8.232
20537WAT      O61852   0.812   7.332   7.899
20537WAT     H161853   0.903   7.291   7.911
20537WAT     H261854   0.756   7.272   7.842
20538WAT      O61855   7.878   4.369   3.693
20538WAT     H161856   7.826   4.361   3.608
20538WAT     H261857   7.897   4.465   3.713
20539WAT      O61858   6.557   0.580   9.303
20539WAT     H161859   6.539   0.487   9.274
20539WAT     H261860   6.558   0.641   9.223
20540WAT      O61861   3.554   5.752   2.258
20540WAT     H161862   3.525   5.661   2.227
20540WAT     H261863   3.587   5.747   2.352
20541WAT      O61864   3.704   4.595   8.645
20541WAT     H161865   3.649   4.653   8.704
20541WAT     H261866   3.653   4.573   8.562
20542WAT      O61867   6.439   5.634   8.519
20542WAT     H161868   6.489   5.588   8.593
20542WAT     H261869   6.380   5.705   8.557
20543WAT      O61870   8.291   7.196   5.332
20543WAT     H161871   8.382   7.162   5.358
20543WAT     H261872   8.283   7.292   5.356
20544WAT      O61873   4.269   7.486   9.230
20544WAT     H161874   4.200   7.488   9.158
20544WAT     H261875   4.325   7.568   9.225
20545WAT      O61876   5.485   7.976   6.433
20545WAT     H161877   5.425   8.005   6.508
20545WAT     H261878   5.540   7.899   6.464
20546WAT      O61879   8.572   1.129   3.724
20546WAT     H161880   8.556   1.211   3.669
20546WAT     H261881   8.574   1.155   3.821
20547WAT      O61882   7.407   0.630   7.663
20547WAT     H161883   7.381   0.700   7.730
20547WAT     H261884   7.422   0.674   7.574
20548WAT      O61885   7.720   6.563   2.229
20548WAT     H161886   7.627   6.600   2.236
20548WAT     H261887   7.766   6.603   2.150
20549WAT      O61888   9.769   7.387   4.653
20549WAT     H161889   9.689   7.402   4.710
20549WAT     H261890   9.848   7.435   4.692
20550WAT      O61891   5.955   0.770   7.967
20550WAT     H161892   6.004   0.719   7.897
20550WAT     H261893   6.015   0.787   8.045
20551WAT      O61894   3.662   8.476   8.872
20551WAT     H161895   3.648   8.504   8.967
20551WAT     H261896   3.578   8.435   8.836
20552WAT      O61897   5.984   7.733   6.554
20552WAT     H161898   5.995   7.829   6.578
20552WAT     H261899   5.996   7.676   6.635
20553WAT      O61900   1.118   4.986   4.755
20553WAT     H161901   1.193   5.021   4.699
20553WAT     H261902   1.135   5.008   4.851
20554WAT      O61903   6.310   6.126   0.701
20554WAT     H161904   6.230   6.185   0.716
20554WAT     H261905   6.382   6.179   0.659
20555WAT      O61906   4.041   3.231   6.314
20555WAT     H161907   4.019   3.142   6.274
20555WAT     H261908   4.024   3.302   6.246
20556WAT      O61909   5.798   3.920   4.400
20556WAT     H161910   5.714   3.911   4.347
20556WAT     H261911   5.809   4.015   4.430
20557WAT      O61912   9.297   7.214   7.117
20557WAT     H161913   9.228   7.274   7.077
20557WAT     H261914   9.268   7.119   7.108
20558WAT      O61915   8.505   7.590   5.396
20558WAT     H161916   8.534   7.558   5.486
20558WAT     H261917   8.550   7.535   5.325
20559WAT      O61918   0.497   4.548   3.857
20559WAT     H161919   0.444   4.487   3.916
20559WAT     H261920   0.587   4.507   3.840
20560WAT      O61921   1.437   0.468   4.096
20560WAT     H161922   1.406   0.375   4.117
20560WAT     H261923   1.479   0.469   4.005
20561WAT      O61924   1.937   6.670   3.503
20561WAT     H161925   1.992   6.676   3.420
20561WAT     H261926   1.923   6.762   3.540
20562WAT      O61927   9.059   6.710   5.813
20562WAT     H161928   9.006   6.746   5.891
20562WAT     H261929   9.014   6.734   5.728
20563WAT      O61930   1.849   1.660   2.301
20563WAT     H161931   1.797   1.712   2.368
20563WAT     H261932   1.850   1.708   2.214
20564WAT      O61933   1.192   6.861   5.348
20564WAT     H161934   1.154   6.786   5.402
20564WAT     H261935   1.147   6.946   5.373
20565WAT      O61936   4.287   6.159   1.220
20565WAT     H161937   4.303   6.063   1.240
20565WAT     H261938   4.190   6.174   1.201
20566WAT      O61939   8.326   4.773   9.111
20566WAT     H161940   8.316   4.861   9.064
20566WAT     H261941   8.406   4.725   9.076
20567WAT      O61942   4.343   1.675   0.529
20567WAT     H161943   4.325   1.728   0.446
20567WAT     H261944   4.366   1.581   0.504
20568WAT      O61945   5.782   9.503   7.336
20568WAT     H161946   5.738   9.590   7.357
20568WAT     H261947   5.880   9.510   7.353
20569WAT      O61948   8.708   3.376   9.585
20569WAT     H161949   8.758   3.419   9.661
20569WAT     H261950   8.760   3.298   9.551
20570WAT      O61951   4.562   4.236   1.008
20570WAT     H161952   4.638   4.214   1.071
20570WAT     H261953   4.539   4.333   1.018
20571WAT      O61954   8.160   2.760   1.362
20571WAT     H161955   8.182   2.719   1.450
20571WAT     H261956   8.134   2.856   1.376
20572WAT      O61957   9.206   3.590   8.900
20572WAT     H161958   9.255   3.503   8.902
20572WAT     H261959   9.175   3.613   8.992
20573WAT      O61960   4.495   0.965   3.700
20573WAT     H161961   4.524   0.870   3.705
20573WAT     H261962   4.400   0.973   3.729
20574WAT      O61963   2.252   6.857   5.521
20574WAT     H161964   2.246   6.766   5.563
20574WAT     H261965   2.286   6.922   5.589
20575WAT      O61966   3.683   1.524   0.348
20575WAT     H161967   3.652   1.429   0.349
20575WAT     H261968   3.643   1.572   0.270
20576WAT      O61969   6.822   7.150   9.333
20576WAT     H161970   6.782   7.235   9.301
20576WAT     H261971   6.908   7.169   9.380
20577WAT      O61972   8.972   5.952   1.916
20577WAT     H161973   8.972   6.016   1.993
20577WAT     H261974   8.904   5.880   1.933
20578WAT      O61975   1.430   0.981   4.848
20578WAT     H161976   1.407   1.040   4.770
20578WAT     H261977   1.358   0.988   4.917
20579WAT      O61978   4.278   3.460   5.509
20579WAT     H161979   4.332   3.527   5.457
20579WAT     H261980   4.197   3.506   5.548
20580WAT      O61981   5.236   6.170   2.046
20580WAT     H161982   5.303   6.150   1.975
20580WAT     H261983   5.282   6.174   2.135
20581WAT      O61984   3.679   9.278   7.896
20581WAT     H161985   3.743   9.210   7.860
20581WAT     H261986   3.624   9.237   7.968
20582WAT      O61987   3.562   4.645   1.142
20582WAT     H161988   3.548   4.548   1.161
20582WAT     H261989   3.614   4.655   1.057
20583WAT      O61990   9.602   7.337   4.019
20583WAT     H161991   9.671   7.388   3.967
20583WAT     H261992   9.511   7.360   3.985
20584WAT      O61993   4.909   0.193   2.765
20584WAT     H161994   4.844   0.245   2.822
20584WAT     H261995   4.914   0.099   2.799
20585WAT      O61996   5.203   6.568   8.769
20585WAT     H161997   5.192   6.665   8.745
20585WAT     H261998   5.118   6.519   8.748
20586WAT      O61999   0.362   6.423   2.769
20586WAT     H162000   0.305   6.394   2.846
20586WAT     H262001   0.325   6.385   2.684
20587WAT      O62002   2.654   3.843   0.847
20587WAT     H162003   2.625   3.895   0.766
20587WAT     H262004   2.642   3.745   0.829
20588WAT      O62005   6.322   0.550   1.460
20588WAT     H162006   6.294   0.645   1.476
20588WAT     H262007   6.248   0.501   1.413
20589WAT      O62008   2.001   6.775   6.798
20589WAT     H162009   1.939   6.733   6.863
20589WAT     H262010   2.051   6.849   6.842
20590WAT      O62011   7.196   5.915   5.834
20590WAT     H162012   7.173   6.010   5.815
20590WAT     H262013   7.251   5.878   5.759
20591WAT      O62014   3.401   0.533   0.454
20591WAT     H162015   3.366   0.607   0.511
20591WAT     H262016   3.499   0.520   0.473
20592WAT      O62017   6.180   1.762   7.249
20592WAT     H162018   6.194   1.729   7.342
20592WAT     H262019   6.126   1.695   7.197
20593WAT      O62020   0.570   8.864   2.489
20593WAT     H162021   0.516   8.932   2.538
20593WAT     H262022   0.654   8.906   2.454
20594WAT      O62023   6.813   7.152   9.041
20594WAT     H162024   6.831   7.137   9.138
20594WAT     H262025   6.720   7.124   9.019
20595WAT      O62026   1.670   2.601   5.120
20595WAT     H162027   1.730   2.674   5.152
20595WAT     H262028   1.578   2.638   5.105
20596WAT      O62029   0.771   4.545   7.356
20596WAT     H162030   0.783   4.585   7.265
20596WAT     H262031   0.710   4.466   7.351
20597WAT      O62032   9.854   6.673   0.736
20597WAT     H162033   9.908   6.670   0.821
20597WAT     H262034   9.793   6.594   0.732
20598WAT      O62035   2.916   6.486   9.356
20598WAT     H162036   2.941   6.565   9.411
20598WAT     H262037   2.883   6.413   9.416
20599WAT      O62038   7.243   0.786   0.451
20599WAT     H162039   7.198   0.738   0.375
20599WAT     H262040   7.184   0.858   0.486
20600WAT      O62041   2.674   1.824   8.360
20600WAT     H162042   2.773   1.835   8.369
20600WAT     H262043   2.629   1.910   8.384
20601WAT      O62044   9.448   4.675   6.797
20601WAT     H162045   9.492   4.755   6.755
20601WAT     H262046   9.350   4.678   6.780
20602WAT      O62047   4.129   1.598   6.516
20602WAT     H162048   4.063   1.638   6.580
20602WAT     H262049   4.125   1.647   6.429
20603WAT      O62050   1.250   6.032   0.186
20603WAT     H162051   1.284   5.978   0.263
20603WAT     H262052   1.287   6.125   0.191
20604WAT      O62053   2.282   4.458   1.327
20604WAT     H162054   2.216   4.393   1.292
20604WAT     H262055   2.237   4.545   1.345
20605WAT      O62056   7.340   2.001   0.872
20605WAT     H162057   7.243   2.012   0.891
20605WAT     H262058   7.384   1.956   0.949
20606WAT      O62059   9.287   3.675   9.734
20606WAT     H162060   9.331   3.618   9.665
20606WAT     H262061   9.292   3.771   9.707
20607WAT      O62062   4.555   5.292   4.642
20607WAT     H162063   4.578   5.320   4.735
20607WAT     H262064   4.600   5.354   4.577
20608WAT      O62065   5.136   4.842   5.684
20608WAT     H162066   5.096   4.867   5.596
20608WAT     H262067   5.078   4.773   5.728
20609WAT      O62068   5.112   7.540   8.656
20609WAT     H162069   5.035   7.563   8.715
20609WAT     H262070   5.090   7.563   8.562
20610WAT      O62071   2.675   7.057   9.610
20610WAT     H162072   2.610   7.003   9.664
20610WAT     H262073   2.665   7.154   9.633
20611WAT      O62074   9.731   9.237   6.747
20611WAT     H162075   9.747   9.329   6.710
20611WAT     H262076   9.814   9.206   6.793
20612WAT      O62077   2.276   0.874   3.170
20612WAT     H162078   2.358   0.930   3.172
20612WAT     H262079   2.207   0.918   3.113
20613WAT      O62080   8.731   4.348   7.238
20613WAT     H162081   8.741   4.419   7.308
20613WAT     H262082   8.634   4.332   7.221
20614WAT      O62083   8.595   0.526   5.718
20614WAT     H162084   8.540   0.568   5.646
20614WAT     H262085   8.575   0.571   5.805
20615WAT      O62086   5.443   3.528   8.367
20615WAT     H162087   5.409   3.546   8.459
20615WAT     H262088   5.484   3.437   8.363
20616WAT      O62089   6.540   0.189   1.644
20616WAT     H162090   6.616   0.150   1.695
20616WAT     H262091   6.529   0.139   1.558
20617WAT      O62092   4.049   9.599   2.992
20617WAT     H162093   4.022   9.653   2.913
20617WAT     H262094   4.148   9.606   3.006
20618WAT      O62095   2.975   6.077   1.183
20618WAT     H162096   2.976   5.989   1.135
20618WAT     H262097   3.014   6.066   1.274
20619WAT      O62098   3.492   1.780   6.559
20619WAT     H162099   3.410   1.745   6.515
20619WAT     H262100   3.509   1.730   6.644
20620WAT      O62101   0.701   1.340   9.761
20620WAT     H162102   0.686   1.431   9.800
20620WAT     H262103   0.798   1.328   9.742
20621WAT      O62104   0.965   5.337   0.821
20621WAT     H162105   1.056   5.366   0.793
20621WAT     H262106   0.920   5.290   0.745
20622WAT      O62107   0.190   0.719   1.866
20622WAT     H162108   0.285   0.721   1.835
20622WAT     H262109   0.145   0.805   1.842
20623WAT      O62110   3.141   4.290   6.390
20623WAT     H162111   3.163   4.383   6.419
20623WAT     H262112   3.224   4.234   6.392
20624WAT      O62113   9.164   5.855   2.166
20624WAT     H162114   9.193   5.828   2.075
20624WAT     H262115   9.115   5.942   2.162
20625WAT      O62116   5.930   4.696   8.671
20625WAT     H162117   5.984   4.703   8.755
20625WAT     H262118   5.916   4.788   8.633
20626WAT      O62119   1.205   3.388   7.194
20626WAT     H162120   1.127   3.327   7.185
20626WAT     H262121   1.200   3.436   7.281
20627WAT      O62122   4.753   3.643   1.948
20627WAT     H162123   4.670   3.587   1.956
20627WAT     H262124   4.729   3.739   1.955
20628WAT      O62125   3.271   8.803   2.625
20628WAT     H162126   3.264   8.897   2.590
20628WAT     H262127   3.335   8.800   2.702
20629WAT      O62128   2.662   1.816   1.085
20629WAT     H162129   2.652   1.720   1.058
20629WAT     H262130   2.745   1.826   1.140
20630WAT      O62131   3.782   9.423   1.114
20630WAT     H162132   3.738   9.497   1.165
20630WAT     H262133   3.820   9.356   1.177
20631WAT      O62134   9.155   0.705   4.781
20631WAT     H162135   9.081   0.732   4.843
20631WAT     H262136   9.203   0.626   4.819
20632WAT      O62137   6.754   3.686   9.004
20632WAT     H162138   6.710   3.700   8.915
20632WAT     H262139   6.687   3.650   9.069
20633WAT      O62140   8.849   2.457   0.611
20633WAT     H162141   8.756   2.464   0.648
20633WAT     H262142   8.860   2.523   0.536
20634WAT      O62143   6.040   5.560   0.412
20634WAT     H162144   6.018   5.546   0.316
20634WAT     H262145   5.979   5.505   0.469
20635WAT      O62146   4.518   6.824   6.396
20635WAT     H162147   4.435   6.784   6.357
20635WAT     H262148   4.585   6.752   6.414
20636WAT      O62149   9.128   0.957   9.431
20636WAT     H162150   9.122   1.056   9.437
20636WAT     H262151   9.183   0.931   9.352
20637WAT      O62152   3.933   3.653   0.224
20637WAT     H162153   3.883   3.721   0.278
20637WAT     H262154   4.021   3.692   0.195
20638WAT      O62155   7.644   9.219   3.495
20638WAT     H162156   7.561   9.245   3.445
20638WAT     H262157   7.650   9.119   3.500
20639WAT      O62158   6.602   2.907   3.122
20639WAT     H162159   6.670   2.927   3.051
20639WAT     H262160   6.521   2.964   3.107
20640WAT      O62161   5.307   5.226   0.744
20640WAT     H162162   5.316   5.207   0.646
20640WAT     H262163   5.377   5.292   0.771
20641WAT      O62164   7.779   1.438   6.166
20641WAT     H162165   7.856   1.374   6.175
20641WAT     H262166   7.693   1.386   6.160
20642WAT      O62167   4.246   1.155   4.115
20642WAT     H162168   4.228   1.137   4.018
20642WAT     H262169   4.306   1.084   4.151
20643WAT      O62170   2.708   2.929   5.973
20643WAT     H162171   2.792   2.920   6.028
20643WAT     H262172   2.645   2.856   5.999
20644WAT      O62173   3.839   2.316   5.583
20644WAT     H162174   3.882   2.227   5.568
20644WAT     H262175   3.802   2.319   5.676
20645WAT      O62176   8.665   4.042   9.065
20645WAT     H162177   8.681   3.972   8.996
20645WAT     H262178   8.604   4.006   9.135
20646WAT      O62179   0.869   1.377   7.992
20646WAT     H162180   0.812   1.355   7.913
20646WAT     H262181   0.841   1.465   8.030
20647WAT      O62182   2.819   1.278   4.279
20647WAT     H162183   2.856   1.188   4.259
20647WAT     H262184   2.848   1.342   4.208
20648WAT      O62185   2.558   1.611   6.249
20648WAT     H162186   2.626   1.678   6.220
20648WAT     H262187   2.486   1.603   6.180
20649WAT      O62188   0.416   8.992   0.756
20649WAT     H162189   0.397   9.079   0.802
20649WAT     H262190   0.350   8.979   0.681
20650WAT      O62191   3.694   7.534   5.368
20650WAT     H162192   3.599   7.510   5.385
20650WAT     H262193   3.748   7.518   5.451
20651WAT      O62194   9.149   8.344   1.409
20651WAT     H162195   9.168   8.413   1.339
20651WAT     H262196   9.058   8.358   1.446
20652WAT      O62197   3.647   7.930   5.070
20652WAT     H162198   3.702   8.000   5.116
20652WAT     H262199   3.560   7.970   5.041
20653WAT      O62200   2.505   6.277   2.170
20653WAT     H162201   2.485   6.179   2.182
20653WAT     H262202   2.494   6.324   2.258
20654WAT      O62203   5.943   6.483   7.320
20654WAT     H162204   5.873   6.514   7.255
20654WAT     H262205   6.031   6.478   7.274
20655WAT      O62206   7.657   7.743   0.886
20655WAT     H162207   7.646   7.835   0.923
20655WAT     H262208   7.599   7.679   0.937
20656WAT      O62209   4.144   5.797   0.669
20656WAT     H162210   4.152   5.891   0.636
20656WAT     H262211   4.220   5.743   0.633
20657WAT      O62212   6.459   3.907   0.955
20657WAT     H162213   6.482   3.948   0.867
20657WAT     H262214   6.525   3.937   1.024
20658WAT      O62215   3.885   0.142   0.538
20658WAT     H162216   3.823   0.116   0.613
20658WAT     H262217   3.972   0.173   0.576
20659WAT      O62218   3.857   0.742   0.089
20659WAT     H162219   3.924   0.814   0.099
20659WAT     H262220   3.777   0.778   0.041
20660WAT      O62221   4.246   0.672   6.540
20660WAT     H162222   4.204   0.642   6.626
20660WAT     H262223   4.188   0.642   6.463
20661WAT      O62224   4.210   0.721   7.850
20661WAT     H162225   4.172   0.653   7.912
20661WAT     H262226   4.173   0.707   7.758
20662WAT      O62227   9.132   1.051   9.783
20662WAT     H162228   9.174   1.029   9.872
20662WAT     H262229   9.185   1.122   9.738
20663WAT      O62230   6.328   7.506   1.089
20663WAT     H162231   6.368   7.565   1.159
20663WAT     H262232   6.396   7.486   1.019
20664WAT      O62233   0.082   9.597   1.688
20664WAT     H162234   0.114   9.588   1.783
20664WAT     H262235   0.007   9.534   1.673
20665WAT      O62236   9.192   4.161   7.200
20665WAT     H162237   9.216   4.142   7.105
20665WAT     H262238   9.258   4.226   7.239
20666WAT      O62239   0.125   7.857   6.003
20666WAT     H162240   0.164   7.895   6.087
20666WAT     H262241   0.189   7.869   5.927
20667WAT      O62242   2.696   2.719   1.108
20667WAT     H162243   2.639   2.782   1.162
20667WAT     H262244   2.652   2.629   1.104
20668WAT      O62245   9.026   4.850   7.924
20668WAT     H162246   8.928   4.841   7.942
20668WAT     H262247   9.052   4.788   7.851
20669WAT      O62248   6.431   4.507   5.135
20669WAT     H162249   6.344   4.546   5.104
20669WAT     H262250   6.480   4.469   5.057
20670WAT      O62251   9.716   9.169   8.440
20670WAT     H162252   9.674   9.094   8.492
20670WAT     H262253   9.739   9.137   8.348
20671WAT      O62254   8.129   5.120   7.465
20671WAT     H162255   8.084   5.191   7.521
20671WAT     H262256   8.147   5.040   7.523
20672WAT      O62257   6.312   1.076   2.815
20672WAT     H162258   6.215   1.090   2.795
20672WAT     H262259   6.367   1.109   2.739
20673WAT      O62260   0.932   1.073   3.911
20673WAT     H162261   0.858   1.015   3.945
20673WAT     H262262   0.933   1.072   3.811
20674WAT      O62263   5.574   8.739   4.518
20674WAT     H162264   5.631   8.768   4.594
20674WAT     H262265   5.625   8.746   4.432
20675WAT      O62266   1.582   0.356   7.120
20675WAT     H162267   1.483   0.344   7.120
20675WAT     H262268   1.626   0.276   7.079
20676WAT      O62269   6.128   1.260   4.094
20676WAT     H162270   6.162   1.318   4.169
20676WAT     H262271   6.159   1.299   4.007
20677WAT      O62272   0.501   4.366   8.558
20677WAT     H162273   0.456   4.442   8.510
20677WAT     H262274   0.572   4.327   8.500
20678WAT      O62275   9.442   1.205   7.099
20678WAT     H162276   9.395   1.261   7.168
20678WAT     H262277   9.387   1.124   7.079
20679WAT      O62278   7.509   7.515   2.412
20679WAT     H162279   7.590   7.510   2.354
20679WAT     H262280   7.495   7.427   2.458
20680WAT      O62281   2.186   6.559   6.903
20680WAT     H162282   2.241   6.543   6.821
20680WAT     H262283   2.122   6.635   6.885
20681WAT      O62284   0.475   2.295   5.663
20681WAT     H162285   0.493   2.297   5.565
20681WAT     H262286   0.384   2.257   5.680
20682WAT      O62287   8.377   7.403   1.890
20682WAT     H162288   8.392   7.500   1.871
20682WAT     H262289   8.354   7.391   1.986
20683WAT      O62290   6.098   1.446   0.509
20683WAT     H162291   6.172   1.462   0.575
20683WAT     H262292   6.083   1.348   0.500
20684WAT      O62293   2.683   4.999   4.583
20684WAT     H162294   2.771   5.000   4.536
20684WAT     H262295   2.694   4.958   4.674
20685WAT      O62296   9.417   0.895   5.437
20685WAT     H162297   9.347   0.910   5.367
20685WAT     H262298   9.410   0.967   5.506
20686WAT      O62299   3.426   5.953   1.658
20686WAT     H162300   3.428   5.856   1.633
20686WAT     H262301   3.399   5.962   1.753
20687WAT      O62302   2.961   8.138   8.420
20687WAT     H162303   2.948   8.047   8.381
20687WAT     H262304   2.873   8.172   8.456
20688WAT      O62305   9.254   6.323   1.654
20688WAT     H162306   9.336   6.374   1.680
20688WAT     H262307   9.174   6.383   1.661
20689WAT      O62308   5.177   1.939   3.251
20689WAT     H162309   5.222   1.850   3.243
20689WAT     H262310   5.227   1.996   3.316
20690WAT      O62311   7.920   7.579   6.224
20690WAT     H162312   7.945   7.554   6.317
20690WAT     H262313   7.998   7.621   6.178
20691WAT      O62314   9.821   6.384   3.106
20691WAT     H162315   9.740   6.429   3.069
20691WAT     H262316   9.869   6.447   3.167
20692WAT      O62317   2.742   9.066   5.462
20692WAT     H162318   2.741   9.149   5.406
20692WAT     H262319   2.662   9.010   5.440
20693WAT      O62320   5.450   9.491   2.530
20693WAT     H162321   5.490   9.462   2.443
20693WAT     H262322   5.378   9.427   2.556
20694WAT      O62323   4.784   1.950   6.453
20694WAT     H162324   4.834   2.035   6.472
20694WAT     H262325   4.703   1.971   6.398
20695WAT      O62326   9.257   0.688   8.307
20695WAT     H162327   9.313   0.626   8.252
20695WAT     H262328   9.262   0.660   8.403
20696WAT      O62329   5.160   4.666   7.077
20696WAT     H162330   5.232   4.710   7.023
20696WAT     H262331   5.159   4.568   7.057
20697WAT      O62332   4.244   2.065   5.356
20697WAT     H162333   4.161   2.022   5.390
20697WAT     H262334   4.236   2.081   5.257
20698WAT      O62335   6.740   8.816   8.884
20698WAT     H162336   6.778   8.805   8.975
20698WAT     H262337   6.642   8.835   8.891
20699WAT      O62338   7.430   1.162   0.407
20699WAT     H162339   7.374   1.134   0.329
20699WAT     H262340   7.506   1.219   0.374
20700WAT      O62341   3.786   5.360   8.788
20700WAT     H162342   3.853   5.386   8.857
20700WAT     H262343   3.725   5.289   8.824
20701WAT      O62344   8.580   7.009   1.292
20701WAT     H162345   8.565   7.107   1.303
20701WAT     H262346   8.667   6.994   1.245
20702WAT      O62347   4.551   7.373   7.089
20702WAT     H162348   4.609   7.350   7.168
20702WAT     H262349   4.608   7.375   7.007
20703WAT      O62350   1.637   5.824   1.598
20703WAT     H162351   1.595   5.742   1.635
20703WAT     H262352   1.730   5.833   1.633
20704WAT      O62353   4.953   0.491   6.288
20704WAT     H162354   4.870   0.442   6.261
20704WAT     H262355   5.025   0.475   6.221
20705WAT      O62356   5.869   1.866   6.284
20705WAT     H162357   5.883   1.877   6.382
20705WAT     H262358   5.947   1.819   6.244
20706WAT      O62359   3.827   7.954   4.377
20706WAT     H162360   3.729   7.942   4.395
20706WAT     H262361   3.869   7.866   4.360
20707WAT      O62362   0.222   0.205   7.348
20707WAT     H162363   0.168   0.251   7.276
20707WAT     H262364   0.163   0.189   7.427
20708WAT      O62365   4.742   2.412   4.376
20708WAT     H162366   4.790   2.328   4.400
20708WAT     H262367   4.777   2.488   4.431
20709WAT      O62368   2.433   8.487   0.288
20709WAT     H162369   2.421   8.580   0.322
20709WAT     H262370   2.529   8.460   0.300
20710WAT      O62371   2.689   2.691   8.843
20710WAT     H162372   2.626   2.674   8.767
20710WAT     H262373   2.777   2.723   8.806
20711WAT      O62374   3.290   4.079   7.540
20711WAT     H162375   3.390   4.071   7.539
20711WAT     H262376   3.251   4.010   7.601
20712WAT      O62377   1.940   1.211   1.442
20712WAT     H162378   1.968   1.116   1.425
20712WAT     H262379   1.849   1.212   1.482
20713WAT      O62380   9.082   3.290   0.571
20713WAT     H162381   9.126   3.209   0.532
20713WAT     H262382   8.987   3.268   0.594
20714WAT      O62383   5.378   9.277   5.699
20714WAT     H162384   5.413   9.361   5.659
20714WAT     H262385   5.422   9.261   5.788
20715WAT      O62386   5.238   2.518   7.465
20715WAT     H162387   5.182   2.504   7.547
20715WAT     H262388   5.180   2.546   7.389
20716WAT      O62389   8.090   9.501   6.464
20716WAT     H162390   8.020   9.470   6.528
20716WAT     H262391   8.176   9.515   6.512
20717WAT      O62392   2.916   3.784   0.892
20717WAT     H162393   2.930   3.763   0.989
20717WAT     H262394   2.821   3.810   0.876
20718WAT      O62395   5.973   6.818   7.898
20718WAT     H162396   6.064   6.788   7.927
20718WAT     H262397   5.909   6.806   7.974
20719WAT      O62398   1.528   3.572   4.328
20719WAT     H162399   1.477   3.650   4.366
20719WAT     H262400   1.609   3.605   4.280
20720WAT      O62401   6.233   6.362   3.448
20720WAT     H162402   6.226   6.418   3.366
20720WAT     H262403   6.309   6.297   3.439
20721WAT      O62404   1.741   9.021   4.458
20721WAT     H162405   1.706   8.949   4.519
20721WAT     H262406   1.835   9.043   4.482
20722WAT      O62407   3.392   7.277   3.821
20722WAT     H162408   3.347   7.290   3.909
20722WAT     H262409   3.424   7.366   3.787
20723WAT      O62410   9.551   7.948   0.753
20723WAT     H162411   9.578   7.868   0.806
20723WAT     H262412   9.487   7.921   0.681
20724WAT      O62413   2.149   7.189   0.114
20724WAT     H162414   2.172   7.183   0.016
20724WAT     H262415   2.207   7.125   0.165
20725WAT      O62416   8.836   6.510   2.272
20725WAT     H162417   8.911   6.576   2.267
20725WAT     H262418   8.753   6.555   2.304
20726WAT      O62419   0.878   0.575   7.548
20726WAT     H162420   0.779   0.561   7.553
20726WAT     H262421   0.904   0.654   7.604
20727WAT      O62422   7.527   1.496   7.542
20727WAT     H162423   7.600   1.489   7.611
20727WAT     H262424   7.567   1.491   7.451
20728WAT      O62425   3.023   5.543   2.037
20728WAT     H162426   3.058   5.545   2.130
20728WAT     H262427   3.086   5.492   1.978
20729WAT      O62428   1.591   1.210   4.187
20729WAT     H162429   1.547   1.207   4.097
20729WAT     H262430   1.630   1.301   4.202
20730WAT      O62431   4.200   1.264   1.283
20730WAT     H162432   4.254   1.344   1.305
20730WAT     H262433   4.260   1.191   1.249
20731WAT      O62434   6.917   3.409   4.658
20731WAT     H162435   6.939   3.504   4.636
20731WAT     H262436   6.961   3.383   4.743
20732WAT      O62437   9.674   8.953   4.589
20732WAT     H162438   9.749   8.990   4.644
20732WAT     H262439   9.690   8.975   4.493
20733WAT      O62440   6.704   4.901   8.249
20733WAT     H162441   6.734   4.845   8.172
20733WAT     H262442   6.784   4.942   8.293
20734WAT      O62443   6.501   2.841   5.369
20734WAT     H162444   6.493   2.798   5.459
20734WAT     H262445   6.417   2.889   5.347
20735WAT      O62446   1.044   8.526   6.163
20735WAT     H162447   0.985   8.576   6.099
20735WAT     H262448   1.102   8.464   6.111
20736WAT      O62449   8.907   5.272   0.150
20736WAT     H162450   8.983   5.210   0.133
20736WAT     H262451   8.931   5.364   0.119
20737WAT      O62452   2.205   4.553   6.763
20737WAT     H162453   2.263   4.620   6.716
20737WAT     H262454   2.113   4.589   6.773
20738WAT      O62455   8.165   3.865   4.403
20738WAT     H162456   8.194   3.857   4.498
20738WAT     H262457   8.185   3.780   4.354
20739WAT      O62458   3.892   0.349   6.196
20739WAT     H162459   3.885   0.336   6.097
20739WAT     H262460   3.987   0.333   6.225
20740WAT      O62461   7.834   5.292   8.947
20740WAT     H162462   7.849   5.196   8.923
20740WAT     H262463   7.923   5.339   8.955
20741WAT      O62464   5.224   0.689   5.308
20741WAT     H162465   5.233   0.596   5.342
20741WAT     H262466   5.209   0.687   5.209
20742WAT      O62467   8.572   4.054   2.036
20742WAT     H162468   8.658   4.008   2.058
20742WAT     H262469   8.556   4.050   1.938
20743WAT      O62470   5.606   5.855   8.148
20743WAT     H162471   5.595   5.917   8.070
20743WAT     H262472   5.676   5.786   8.127
20744WAT      O62473   0.931   0.158   4.453
20744WAT     H162474   0.952   0.074   4.404
20744WAT     H262475   0.920   0.138   4.551
20745WAT      O62476   1.402   6.550   7.787
20745WAT     H162477   1.381   6.629   7.728
20745WAT     H262478   1.443   6.477   7.733
20746WAT      O62479   3.007   6.716   9.492
20746WAT     H162480   3.106   6.721   9.483
20746WAT     H262481   2.969   6.808   9.489
20747WAT      O62482   6.175   4.430   9.227
20747WAT     H162483   6.108   4.504   9.216
20747WAT     H262484   6.261   4.469   9.258
20748WAT      O62485   6.752   6.246   4.734
20748WAT     H162486   6.733   6.336   4.772
20748WAT     H262487   6.769   6.181   4.809
20749WAT      O62488   8.842   6.220   2.561
20749WAT     H162489   8.802   6.201   2.472
20749WAT     H262490   8.914   6.153   2.580
20750WAT      O62491   7.356   5.967   0.491
20750WAT     H162492   7.314   5.987   0.580
20750WAT     H262493   7.401   6.049   0.457
20751WAT      O62494   0.014   5.807   2.696
20751WAT     H162495  -0.040   5.723   2.686
20751WAT     H262496   0.082   5.794   2.767
20752WAT      O62497   2.116   5.171   4.879
20752WAT     H162498   2.088   5.079   4.904
20752WAT     H262499   2.110   5.232   4.958
20753WAT      O62500   6.165   2.127   4.231
20753WAT     H162501   6.126   2.186   4.161
20753WAT     H262502   6.248   2.170   4.268
20754WAT      O62503   8.321   8.697   0.617
20754WAT     H162504   8.351   8.604   0.598
20754WAT     H262505   8.231   8.712   0.575
20755WAT      O62506   6.558   4.220   9.474
20755WAT     H162507   6.570   4.209   9.573
20755WAT     H262508   6.611   4.299   9.443
20756WAT      O62509   4.670   7.067   9.431
20756WAT     H162510   4.716   7.047   9.517
20756WAT     H262511   4.673   6.987   9.371
20757WAT      O62512   8.140   2.742   2.033
20757WAT     H162513   8.137   2.721   1.936
20757WAT     H262514   8.213   2.809   2.050
20758WAT      O62515   8.508   5.054   1.580
20758WAT     H162516   8.440   4.986   1.551
20758WAT     H262517   8.595   5.009   1.600
20759WAT      O62518   1.537   3.455   4.747
20759WAT     H162519   1.461   3.425   4.805
20759WAT     H262520   1.564   3.548   4.772
20760WAT      O62521   1.592   1.475   5.757
20760WAT     H162522   1.644   1.535   5.818
20760WAT     H262523   1.645   1.393   5.736
20761WAT      O62524   2.788   5.897   6.427
20761WAT     H162525   2.829   5.851   6.506
20761WAT     H262526   2.739   5.978   6.457
20762WAT      O62527   4.660   6.839   8.878
20762WAT     H162528   4.666   6.902   8.956
20762WAT     H262529   4.642   6.890   8.795
20763WAT      O62530   4.928   7.091   3.191
20763WAT     H162531   4.851   7.058   3.137
20763WAT     H262532   4.957   7.018   3.254
20764WAT      O62533   7.641   7.524   8.326
20764WAT     H162534   7.712   7.456   8.343
20764WAT     H262535   7.554   7.478   8.308
20765WAT      O62536   4.902   3.450   3.354
20765WAT     H162537   4.948   3.367   3.384
20765WAT     H262538   4.805   3.445   3.378
20766WAT      O62539   3.610   4.489   3.085
20766WAT     H162540   3.540   4.471   3.154
20766WAT     H262541   3.666   4.566   3.114
20767WAT      O62542   0.661   8.111   8.098
20767WAT     H162543   0.740   8.162   8.064
20767WAT     H262544   0.683   8.014   8.102
20768WAT      O62545   9.556   6.969   7.814
20768WAT     H162546   9.520   6.906   7.745
20768WAT     H262547   9.534   7.063   7.788
20769WAT      O62548   7.751   3.978   6.264
20769WAT     H162549   7.835   3.943   6.304
20769WAT     H262550   7.693   3.902   6.235
20770WAT      O62551   1.961   0.960   1.329
20770WAT     H162552   2.051   0.934   1.297
20770WAT     H262553   1.926   0.891   1.392
20771WAT      O62554   5.986   5.701   0.032
20771WAT     H162555   5.893   5.707  -0.004
20771WAT     H262556   5.993   5.752   0.118
20772WAT      O62557   1.549   5.256   7.860
20772WAT     H162558   1.537   5.352   7.832
20772WAT     H262559   1.506   5.243   7.950
20773WAT      O62560   5.037   8.101   1.075
20773WAT     H162561   4.987   8.187   1.084
20773WAT     H262562   4.972   8.026   1.069
20774WAT      O62563   2.721   0.227   0.134
20774WAT     H162564   2.818   0.235   0.110
20774WAT     H262565   2.681   0.318   0.143
20775WAT      O62566   3.385   9.280   6.064
20775WAT     H162567   3.376   9.181   6.048
20775WAT     H262568   3.328   9.306   6.142
20776WAT      O62569   5.401   0.554   4.698
20776WAT     H162570   5.439   0.466   4.727
20776WAT     H262571   5.446   0.627   4.749
20777WAT      O62572   6.730   8.829   1.524
20777WAT     H162573   6.704   8.925   1.526
20777WAT     H262574   6.817   8.817   1.570
20778WAT      O62575   3.120   9.379   2.439
20778WAT     H162576   3.090   9.363   2.345
20778WAT     H262577   3.141   9.292   2.484
20779WAT      O62578   0.267   9.349   6.009
20779WAT     H162579   0.348   9.395   5.973
20779WAT     H262580   0.185   9.394   5.975
20780WAT      O62581   5.018   5.979   2.807
20780WAT     H162582   4.928   5.990   2.850
20780WAT     H262583   5.006   5.945   2.713
20781WAT      O62584   6.788   0.299   3.639
20781WAT     H162585   6.779   0.338   3.547
20781WAT     H262586   6.772   0.371   3.706
20782WAT      O62587   5.178   6.500   4.393
20782WAT     H162588   5.110   6.555   4.442
20782WAT     H262589   5.256   6.558   4.370
20783WAT      O62590   5.686   6.492   9.532
20783WAT     H162591   5.704   6.578   9.483
20783WAT     H262592   5.622   6.510   9.607
20784WAT      O62593   1.502   5.279   4.311
20784WAT     H162594   1.506   5.290   4.410
20784WAT     H262595   1.417   5.233   4.286
20785WAT      O62596   5.320   4.513   4.224
20785WAT     H162597   5.317   4.583   4.295
20785WAT     H262598   5.230   4.472   4.214
20786WAT      O62599   5.927   3.432   1.315
20786WAT     H162600   5.986   3.494   1.366
20786WAT     H262601   5.937   3.339   1.352
20787WAT      O62602   8.167   8.689   0.243
20787WAT     H162603   8.087   8.750   0.240
20787WAT     H262604   8.194   8.665   0.150
20788WAT      O62605   2.576   7.774   9.658
20788WAT     H162606   2.622   7.736   9.578
20788WAT     H262607   2.481   7.795   9.635
20789WAT      O62608   6.306   1.306   0.147
20789WAT     H162609   6.307   1.231   0.212
20789WAT     H262610   6.213   1.321   0.115
20790WAT      O62611   8.548   3.428   6.693
20790WAT     H162612   8.496   3.349   6.661
20790WAT     H262613   8.497   3.474   6.765
20791WAT      O62614   1.168   9.545   5.673
20791WAT     H162615   1.186   9.585   5.583
20791WAT     H262616   1.142   9.618   5.737
20792WAT      O62617   7.244   8.080   4.441
20792WAT     H162618   7.299   8.158   4.470
20792WAT     H262619   7.279   8.046   4.354
20793WAT      O62620   0.163   0.651   0.983
20793WAT     H162621   0.258   0.640   0.954
20793WAT     H262622   0.119   0.562   0.990
20794WAT      O62623   8.465   9.224   9.025
20794WAT     H162624   8.531   9.155   8.994
20794WAT     H262625   8.510   9.288   9.087
20795WAT      O62626   4.057   0.469   1.572
20795WAT     H162627   4.047   0.526   1.653
20795WAT     H262628   4.089   0.525   1.495
20796WAT      O62629   6.869   9.119   7.533
20796WAT     H162630   6.942   9.069   7.485
20796WAT     H262631   6.781   9.077   7.513
20797WAT      O62632   5.161   8.878   2.183
20797WAT     H162633   5.062   8.894   2.191
20797WAT     H262634   5.209   8.927   2.256
20798WAT      O62635   7.841   4.937   8.394
20798WAT     H162636   7.914   4.994   8.356
20798WAT     H262637   7.805   4.981   8.477
20799WAT      O62638   6.009   5.344   9.618
20799WAT     H162639   6.041   5.413   9.682
20799WAT     H262640   5.997   5.257   9.666
20800WAT      O62641   4.779   8.483   3.162
20800WAT     H162642   4.804   8.554   3.097
20800WAT     H262643   4.838   8.489   3.242
20801WAT      O62644   2.652   5.421   9.227
20801WAT     H162645   2.739   5.449   9.268
20801WAT     H262646   2.620   5.492   9.165
20802WAT      O62647   8.275   1.144   5.618
20802WAT     H162648   8.183   1.104   5.621
20802WAT     H262649   8.270   1.235   5.576
20803WAT      O62650   1.814   0.774   4.659
20803WAT     H162651   1.729   0.789   4.710
20803WAT     H262652   1.834   0.853   4.602
20804WAT      O62653   3.169   3.837   4.682
20804WAT     H162654   3.107   3.758   4.681
20804WAT     H262655   3.158   3.889   4.597
20805WAT      O62656   5.928   6.915   8.302
20805WAT     H162657   5.997   6.844   8.284
20805WAT     H262658   5.932   6.985   8.231
20806WAT      O62659   3.170   5.965   7.724
20806WAT     H162660   3.105   5.942   7.797
20806WAT     H262661   3.263   5.963   7.761
20807WAT      O62662   9.635   1.865   3.458
20807WAT     H162663   9.730   1.843   3.433
20807WAT     H262664   9.592   1.785   3.500
20808WAT      O62665   0.935   5.339   4.335
20808WAT     H162666   0.858   5.400   4.357
20808WAT     H262667   0.915   5.247   4.369
20809WAT      O62668   5.180   6.686   1.009
20809WAT     H162669   5.149   6.758   1.070
20809WAT     H262670   5.280   6.690   1.001
20810WAT      O62671   5.075   2.927   0.963
20810WAT     H162672   5.079   2.837   0.919
20810WAT     H262673   5.120   2.924   1.052
20811WAT      O62674   1.704   5.096   9.385
20811WAT     H162675   1.723   5.190   9.413
20811WAT     H262676   1.790   5.049   9.366
20812WAT      O62677   2.287   0.666   8.978
20812WAT     H162678   2.343   0.620   8.909
20812WAT     H262679   2.220   0.725   8.932
20813WAT      O62680   7.962   6.606   7.219
20813WAT     H162681   8.046   6.551   7.213
20813WAT     H262682   7.914   6.602   7.132
20814WAT      O62683   0.327   4.996   8.860
20814WAT     H162684   0.412   5.018   8.813
20814WAT     H262685   0.284   5.081   8.891
20815WAT      O62686   7.101   5.818   3.311
20815WAT     H162687   7.136   5.894   3.256
20815WAT     H262688   7.076   5.743   3.251
20816WAT      O62689   6.589   3.285   6.487
20816WAT     H162690   6.514   3.222   6.468
20816WAT     H262691   6.571   3.373   6.445
20817WAT      O62692   1.937   5.982   2.558
20817WAT     H162693   2.004   5.986   2.632
20817WAT     H262694   1.935   5.890   2.520
20818WAT      O62695   7.345   3.111   9.634
20818WAT     H162696   7.257   3.113   9.587
20818WAT     H262697   7.419   3.108   9.566
20819WAT      O62698   5.115   1.804   4.283
20819WAT     H162699   5.019   1.805   4.253
20819WAT     H262700   5.168   1.869   4.228
20820WAT      O62701   7.152   2.649   6.035
20820WAT     H162702   7.207   2.723   5.997
20820WAT     H262703   7.189   2.561   6.006
20821WAT      O62704   2.123   4.932   3.621
20821WAT     H162705   2.037   4.968   3.659
20821WAT     H262706   2.109   4.905   3.526
20822WAT      O62707   0.247   8.337   2.371
20822WAT     H162708   0.285   8.328   2.279
20822WAT     H262709   0.309   8.393   2.427
20823WAT      O62710   7.718   4.220   7.089
20823WAT     H162711   7.741   4.305   7.042
20823WAT     H262712   7.683   4.240   7.180
20824WAT      O62713   9.869   7.599   2.910
20824WAT     H162714   9.881   7.536   2.987
20824WAT     H262715   9.858   7.692   2.944
20825WAT      O62716   4.228   5.616   3.410
20825WAT     H162717   4.295   5.661   3.470
20825WAT     H262718   4.151   5.583   3.466
20826WAT      O62719   1.613   6.419   1.940
20826WAT     H162720   1.671   6.385   1.866
20826WAT     H262721   1.609   6.519   1.937
20827WAT      O62722   2.819   9.499   7.841
20827WAT     H162723   2.837   9.405   7.869
20827WAT     H262724   2.790   9.552   7.920
20828WAT      O62725   8.843   7.798   5.830
20828WAT     H162726   8.760   7.781   5.778
20828WAT     H262727   8.877   7.711   5.868
20829WAT      O62728   0.268   7.723   5.543
20829WAT     H162729   0.331   7.788   5.585
20829WAT     H262730   0.318   7.667   5.477
20830WAT      O62731   0.314   0.294   3.313
20830WAT     H162732   0.358   0.367   3.365
20830WAT     H262733   0.219   0.319   3.294
20831WAT      O62734   5.864   1.729   2.745
20831WAT     H162735   5.924   1.735   2.825
20831WAT     H262736   5.777   1.774   2.765
20832WAT      O62737   3.639   9.548   8.842
20832WAT     H162738   3.655   9.574   8.937
20832WAT     H262739   3.712   9.583   8.784
20833WAT      O62740   8.174   1.006   1.063
20833WAT     H162741   8.248   1.013   1.131
20833WAT     H262742   8.101   0.948   1.100
20834WAT      O62743   8.622   1.707   2.858
20834WAT     H162744   8.552   1.732   2.791
20834WAT     H262745   8.681   1.636   2.820
20835WAT      O62746   7.499   2.450   9.340
20835WAT     H162747   7.496   2.379   9.410
20835WAT     H262748   7.456   2.534   9.375
20836WAT      O62749   5.405   7.572   0.072
20836WAT     H162750   5.461   7.645   0.034
20836WAT     H262751   5.425   7.486   0.024
20837WAT      O62752   2.154   2.688   7.088
20837WAT     H162753   2.200   2.656   7.006
20837WAT     H262754   2.208   2.761   7.131
20838WAT      O62755   8.943   3.617   0.233
20838WAT     H162756   8.850   3.600   0.200
20838WAT     H262757   9.009   3.573   0.172
20839WAT      O62758   7.548   3.245   0.579
20839WAT     H162759   7.610   3.171   0.549
20839WAT     H262760   7.571   3.270   0.673
20840WAT      O62761   9.396   1.221   3.305
20840WAT     H162762   9.363   1.266   3.388
20840WAT     H262763   9.328   1.153   3.276
20841WAT      O62764   7.818   0.249   9.723
20841WAT     H162765   7.817   0.211   9.631
20841WAT     H262766   7.912   0.269   9.750
20842WAT      O62767   4.340   3.030   1.322
20842WAT     H162768   4.276   2.960   1.355
20842WAT     H262769   4.434   2.998   1.337
20843WAT      O62770   3.555   4.548   0.795
20843WAT     H162771   3.532   4.552   0.697
20843WAT     H262772   3.593   4.636   0.823
20844WAT      O62773   1.650   3.034   7.909
20844WAT     H162774   1.627   3.002   8.002
20844WAT     H262775   1.570   3.024   7.850
20845WAT      O62776   8.560   9.578   6.882
20845WAT     H162777   8.629   9.536   6.823
20845WAT     H262778   8.507   9.645   6.830
20846WAT      O62779   6.718   5.067   0.052
20846WAT     H162780   6.679   5.067   0.144
20846WAT     H262781   6.648   5.042  -0.014
20847WAT      O62782   4.112   7.336   2.818
20847WAT     H162783   4.063   7.423   2.806
20847WAT     H262784   4.049   7.260   2.806
20848WAT      O62785   6.070   2.874   5.184
20848WAT     H162786   5.997   2.888   5.251
20848WAT     H262787   6.150   2.928   5.209
20849WAT      O62788   5.348   7.976   1.956
20849WAT     H162789   5.323   7.879   1.949
20849WAT     H262790   5.306   8.015   2.038
20850WAT      O62791   8.996   8.626   7.319
20850WAT     H162792   9.051   8.660   7.395
20850WAT     H262793   8.901   8.655   7.331
20851WAT      O62794   1.784   6.230   9.619
20851WAT     H162795   1.749   6.174   9.694
20851WAT     H262796   1.826   6.313   9.656
20852WAT      O62797   6.493   6.952   4.841
20852WAT     H162798   6.563   6.943   4.770
20852WAT     H262799   6.429   7.025   4.818
20853WAT      O62800   2.537   8.117   3.476
20853WAT     H162801   2.506   8.106   3.571
20853WAT     H262802   2.636   8.106   3.471
20854WAT      O62803   3.241   1.028   4.220
20854WAT     H162804   3.286   1.051   4.134
20854WAT     H262805   3.147   1.062   4.218
20855WAT      O62806   8.574   1.812   8.405
20855WAT     H162807   8.520   1.791   8.486
20855WAT     H262808   8.522   1.873   8.345
20856WAT      O62809   2.715   7.796   7.249
20856WAT     H162810   2.766   7.727   7.301
20856WAT     H262811   2.778   7.865   7.213
20857WAT      O62812   7.722   1.757   2.341
20857WAT     H162813   7.669   1.840   2.358
20857WAT     H262814   7.674   1.700   2.275
20858WAT      O62815   6.308   5.854   3.087
20858WAT     H162816   6.246   5.909   3.143
20858WAT     H262817   6.316   5.762   3.127
20859WAT      O62818   7.426   6.685   7.972
20859WAT     H162819   7.493   6.679   8.047
20859WAT     H262820   7.443   6.767   7.918
20860WAT      O62821   9.427   8.911   7.596
20860WAT     H162822   9.422   8.950   7.505
20860WAT     H262823   9.408   8.813   7.592
20861WAT      O62824   4.322   2.612   3.726
20861WAT     H162825   4.403   2.671   3.730
20861WAT     H262826   4.271   2.630   3.642
20862WAT      O62827   3.937   5.177   0.583
20862WAT     H162828   3.887   5.260   0.559
20862WAT     H262829   4.031   5.200   0.607
20863WAT      O62830   2.220   0.905   1.973
20863WAT     H162831   2.223   0.841   2.049
20863WAT     H262832   2.186   0.858   1.891
20864WAT      O62833   5.682   1.747   1.999
20864WAT     H162834   5.651   1.839   1.978
20864WAT     H262835   5.733   1.747   2.085
20865WAT      O62836   9.078   7.955   8.255
20865WAT     H162837   9.131   7.871   8.243
20865WAT     H262838   9.090   7.989   8.348
20866WAT      O62839   2.531   1.506   1.966
20866WAT     H162840   2.516   1.454   1.882
20866WAT     H262841   2.587   1.453   2.029
20867WAT      O62842   1.929   2.083   9.052
20867WAT     H162843   1.924   1.986   9.027
20867WAT     H262844   2.005   2.098   9.115
20868WAT      O62845   4.079   7.409   0.222
20868WAT     H162846   4.007   7.348   0.191
20868WAT     H262847   4.097   7.478   0.152
20869WAT      O62848   3.795   5.834   5.368
20869WAT     H162849   3.862   5.887   5.420
20869WAT     H262850   3.705   5.876   5.378
20870WAT      O62851   4.026   3.024   5.929
20870WAT     H162852   4.117   3.026   5.886
20870WAT     H262853   3.958   3.054   5.862
20871WAT      O62854   3.053   1.403   4.589
20871WAT     H162855   3.100   1.447   4.665
20871WAT     H262856   3.002   1.472   4.536
20872WAT      O62857   1.222   2.020   9.448
20872WAT     H162858   1.186   1.972   9.369
20872WAT     H262859   1.269   2.103   9.418
20873WAT      O62860   0.598   0.547   7.544
20873WAT     H162861   0.555   0.626   7.588
20873WAT     H262862   0.529   0.477   7.526
20874WAT      O62863   4.648   6.217   8.163
20874WAT     H162864   4.621   6.195   8.069
20874WAT     H262865   4.744   6.192   8.176
20875WAT      O62866   1.311   2.577   8.643
20875WAT     H162867   1.267   2.574   8.732
20875WAT     H262868   1.247   2.546   8.572
20876WAT      O62869   3.321   4.664   8.073
20876WAT     H162870   3.297   4.698   8.164
20876WAT     H262871   3.417   4.681   8.055
20877WAT      O62872   6.428   6.357   0.861
20877WAT     H162873   6.405   6.267   0.899
20877WAT     H262874   6.390   6.429   0.919
20878WAT      O62875   3.821   7.459   4.747
20878WAT     H162876   3.915   7.493   4.747
20878WAT     H262877   3.798   7.423   4.838
20879WAT      O62878   0.084   7.806   0.797
20879WAT     H162879   0.042   7.874   0.737
20879WAT     H262880   0.139   7.852   0.866
20880WAT      O62881   7.158   9.439   1.021
20880WAT     H162882   7.257   9.452   1.034
20880WAT     H262883   7.109   9.495   1.087
20881WAT      O62884   5.618   3.814   2.124
20881WAT     H162885   5.671   3.732   2.104
20881WAT     H262886   5.537   3.790   2.177
20882WAT      O62887   2.343   0.851   7.320
20882WAT     H162888   2.261   0.796   7.335
20882WAT     H262889   2.335   0.938   7.370
20883WAT      O62890   6.126   1.918   4.371
20883WAT     H162891   6.174   1.931   4.457
20883WAT     H262892   6.140   1.997   4.312
20884WAT      O62893   7.124   5.991   4.239
20884WAT     H162894   7.053   5.924   4.260
20884WAT     H262895   7.206   5.970   4.292
20885WAT      O62896   6.762   3.143   1.006
20885WAT     H162897   6.843   3.114   0.955
20885WAT     H262898   6.755   3.243   1.004
20886WAT      O62899   0.174   7.106   6.313
20886WAT     H162900   0.160   7.008   6.295
20886WAT     H262901   0.176   7.121   6.412
20887WAT      O62902   1.867   4.194   8.030
20887WAT     H162903   1.848   4.259   8.104
20887WAT     H262904   1.784   4.181   7.975
20888WAT      O62905   9.277   4.479   0.980
20888WAT     H162906   9.277   4.408   0.910
20888WAT     H262907   9.194   4.471   1.036
20889WAT      O62908   6.634   8.019   6.236
20889WAT     H162909   6.589   7.952   6.177
20889WAT     H262910   6.701   7.972   6.293
20890WAT      O62911   5.097   0.455   1.350
20890WAT     H162912   5.110   0.385   1.420
20890WAT     H262913   5.006   0.496   1.359
20891WAT      O62914   6.886   7.342   6.568
20891WAT     H162915   6.827   7.262   6.564
20891WAT     H262916   6.864   7.404   6.493
20892WAT      O62917   5.705   5.399   3.405
20892WAT     H162918   5.721   5.375   3.309
20892WAT     H262919   5.788   5.439   3.443
20893WAT      O62920   5.372   8.879   3.574
20893WAT     H162921   5.349   8.802   3.515
20893WAT     H262922   5.458   8.860   3.622
20894WAT      O62923   0.011   3.149   3.018
20894WAT     H162924   0.050   3.213   2.952
20894WAT     H262925  -0.066   3.101   2.977
20895WAT      O62926   1.352   9.111   2.419
20895WAT     H162927   1.343   9.021   2.462
20895WAT     H262928   1.397   9.102   2.330
20896WAT      O62929   5.341   4.969   5.865
20896WAT     H162930   5.350   4.918   5.951
20896WAT     H262931   5.256   4.942   5.819
20897WAT      O62932   5.245   7.012   0.641
20897WAT     H162933   5.184   6.954   0.694
20897WAT     H262934   5.241   6.985   0.545
20898WAT      O62935   4.451   3.810   0.220
20898WAT     H162936   4.501   3.804   0.306
20898WAT     H262937   4.468   3.728   0.166
20899WAT      O62938   4.563   6.965   1.313
20899WAT     H162939   4.634   6.916   1.261
20899WAT     H262940   4.515   6.900   1.372
20900WAT      O62941   5.020   8.876   4.831
20900WAT     H162942   4.935   8.926   4.817
20900WAT     H262943   5.035   8.862   4.929
20901WAT      O62944   2.940   6.542   7.958
20901WAT     H162945   2.933   6.549   7.858
20901WAT     H262946   3.012   6.477   7.982
20902WAT      O62947   1.831   7.824   1.155
20902WAT     H162948   1.864   7.820   1.249
20902WAT     H262949   1.737   7.860   1.155
20903WAT      O62950   7.565   4.687   4.604
20903WAT     H162951   7.564   4.730   4.694
20903WAT     H262952   7.656   4.696   4.563
20904WAT      O62953   6.418   1.054   1.020
20904WAT     H162954   6.366   1.107   0.953
20904WAT     H262955   6.361   0.979   1.054
20905WAT      O62956   2.095   6.749   4.780
20905WAT     H162957   2.026   6.702   4.725
20905WAT     H262958   2.138   6.683   4.843
20906WAT      O62959   7.874   4.441   7.258
20906WAT     H162960   7.792   4.471   7.308
20906WAT     H262961   7.900   4.350   7.288
20907WAT      O62962   4.613   5.114   0.545
20907WAT     H162963   4.595   5.212   0.549
20907WAT     H262964   4.613   5.077   0.638
20908WAT      O62965   8.642   5.436   2.381
20908WAT     H162966   8.575   5.391   2.321
20908WAT     H262967   8.708   5.368   2.412
20909WAT      O62968   8.574   7.729   4.749
20909WAT     H162969   8.575   7.805   4.814
20909WAT     H262970   8.480   7.702   4.730
20910WAT      O62971   9.708   2.526   3.741
20910WAT     H162972   9.803   2.557   3.737
20910WAT     H262973   9.651   2.587   3.687
20911WAT      O62974   7.264   2.049   9.284
20911WAT     H162975   7.223   1.974   9.335
20911WAT     H262976   7.196   2.090   9.223
20912WAT      O62977   7.782   3.638   4.501
20912WAT     H162978   7.812   3.689   4.420
20912WAT     H262979   7.825   3.678   4.582
20913WAT      O62980   7.346   7.458   1.219
20913WAT     H162981   7.256   7.456   1.263
20913WAT     H262982   7.390   7.369   1.230
20914WAT      O62983   2.482   3.388   3.261
20914WAT     H162984   2.473   3.488   3.258
20914WAT     H262985   2.572   3.361   3.226
20915WAT      O62986   5.939   3.477   7.403
20915WAT     H162987   6.007   3.404   7.403
20915WAT     H262988   5.973   3.554   7.459
20916WAT      O62989   2.225   4.779   4.736
20916WAT     H162990   2.138   4.810   4.698
20916WAT     H262991   2.299   4.839   4.704
20917WAT      O62992   3.277   9.620   2.412
20917WAT     H162993   3.214   9.694   2.390
20917WAT     H262994   3.227   9.544   2.453
20918WAT      O62995   4.617   4.117   0.441
20918WAT     H162996   4.665   4.174   0.508
20918WAT     H262997   4.650   4.022   0.448
20919WAT      O62998   0.040   4.836   6.997
20919WAT     H162999   0.108   4.762   6.995
20919WAT     H263000  -0.049   4.801   6.969
20920WAT      O63001   5.154   5.823   9.096
20920WAT     H163002   5.205   5.863   9.172
20920WAT     H263003   5.215   5.809   9.018
20921WAT      O63004   3.905   7.037   0.838
20921WAT     H163005   3.923   6.939   0.844
20921WAT     H263006   3.990   7.086   0.821
20922WAT      O63007   7.053   6.253   2.334
20922WAT     H163008   7.144   6.242   2.294
20922WAT     H263009   7.040   6.347   2.363
20923WAT      O63010   6.894   2.731   5.998
20923WAT     H163011   6.836   2.651   6.016
20923WAT     H263012   6.990   2.703   5.997
20924WAT      O63013   8.647   5.651   3.260
20924WAT     H163014   8.578   5.678   3.327
20924WAT     H263015   8.672   5.555   3.275
20925WAT      O63016   0.199   6.411   3.688
20925WAT     H163017   0.290   6.395   3.728
20925WAT     H263018   0.171   6.331   3.635
20926WAT      O63019   4.980   9.201   1.998
20926WAT     H163020   4.934   9.226   1.913
20926WAT     H263021   5.078   9.187   1.980
20927WAT      O63022   2.143   1.380   8.518
20927WAT     H163023   2.068   1.316   8.502
20927WAT     H263024   2.190   1.355   8.603
20928WAT      O63025   3.938   8.666   5.593
20928WAT     H163026   4.025   8.670   5.544
20928WAT     H263027   3.951   8.699   5.686
20929WAT      O63028   2.253   7.104   9.315
20929WAT     H163029   2.278   7.180   9.375
20929WAT     H263030   2.235   7.023   9.370
20930WAT      O63031   1.117   1.432   3.011
20930WAT     H163032   1.060   1.362   3.055
20930WAT     H263033   1.060   1.493   2.957
20931WAT      O63034   6.947   2.106   4.132
20931WAT     H163035   6.879   2.074   4.198
20931WAT     H263036   6.925   2.199   4.104
20932WAT      O63037   0.491   8.689   3.041
20932WAT     H163038   0.452   8.730   3.123
20932WAT     H263039   0.450   8.731   2.960
20933WAT      O63040   3.832   1.939   6.150
20933WAT     H163041   3.860   1.958   6.055
20933WAT     H263042   3.779   2.016   6.184
20934WAT      O63043   5.643   1.928   7.359
20934WAT     H163044   5.648   2.027   7.355
20934WAT     H263045   5.548   1.898   7.348
20935WAT      O63046   5.074   4.455   5.007
20935WAT     H163047   5.138   4.496   4.942
20935WAT     H263048   5.014   4.391   4.959
20936WAT      O63049   7.630   8.269   7.665
20936WAT     H163050   7.542   8.269   7.712
20936WAT     H263051   7.656   8.363   7.643
20937WAT      O63052   9.287   7.406   9.142
20937WAT     H163053   9.191   7.435   9.144
20937WAT     H263054   9.298   7.336   9.071
20938WAT      O63055   6.043   6.040   9.454
20938WAT     H163056   5.999   6.052   9.365
20938WAT     H263057   6.061   5.942   9.469
20939WAT      O63058   3.799   5.475   3.395
20939WAT     H163059   3.805   5.493   3.493
20939WAT     H263060   3.703   5.483   3.366
20940WAT      O63061   1.485   9.438   7.278
20940WAT     H163062   1.584   9.447   7.270
20940WAT     H263063   1.453   9.485   7.360
20941WAT      O63064   6.239   9.078   7.595
20941WAT     H163065   6.200   9.158   7.549
20941WAT     H263066   6.191   9.063   7.681
20942WAT      O63067   8.440   3.228   7.456
20942WAT     H163068   8.371   3.293   7.485
20942WAT     H263069   8.530   3.271   7.461
20943WAT      O63070   6.504   1.182   0.493
20943WAT     H163071   6.578   1.205   0.429
20943WAT     H263072   6.426   1.147   0.442
20944WAT      O63073   0.725   2.966   1.654
20944WAT     H163074   0.801   3.005   1.706
20944WAT     H263075   0.695   3.032   1.585
20945WAT      O63076   4.516   4.765   9.202
20945WAT     H163077   4.427   4.738   9.239
20945WAT     H263078   4.519   4.745   9.104
20946WAT      O63079   8.306   8.318   7.115
20946WAT     H163080   8.228   8.375   7.142
20946WAT     H263081   8.277   8.255   7.043
20947WAT      O63082   2.351   4.167   0.766
20947WAT     H163083   2.353   4.100   0.692
20947WAT     H263084   2.431   4.154   0.825
20948WAT      O63085   7.283   2.747   9.879
20948WAT     H163086   7.258   2.844   9.877
20948WAT     H263087   7.356   2.729   9.813
20949WAT      O63088   7.084   3.148   6.460
20949WAT     H163089   6.989   3.117   6.454
20949WAT     H263090   7.108   3.197   6.377
20950WAT      O63091   7.579   5.085   3.489
20950WAT     H163092   7.597   4.989   3.510
20950WAT     H263093   7.664   5.138   3.500
20951WAT      O63094   3.174   3.984   1.247
20951WAT     H163095   3.261   3.935   1.251
20951WAT     H263096   3.103   3.923   1.213
20952WAT      O63097   4.505   8.745   6.765
20952WAT     H163098   4.419   8.713   6.806
20952WAT     H263099   4.569   8.668   6.759
20953WAT      O63100   0.111   4.006   5.991
20953WAT     H163101   0.085   4.057   6.074
20953WAT     H263102   0.149   3.918   6.017
20954WAT      O63103   3.246   4.482   6.020
20954WAT     H163104   3.322   4.475   6.083
20954WAT     H263105   3.160   4.475   6.070
20955WAT      O63106   1.183   8.316   3.855
20955WAT     H163107   1.222   8.393   3.804
20955WAT     H263108   1.197   8.232   3.804
20956WAT      O63109   7.811   8.732   2.096
20956WAT     H163110   7.773   8.785   2.020
20956WAT     H263111   7.909   8.719   2.082
20957WAT      O63112   9.265   3.961   2.085
20957WAT     H163113   9.267   4.057   2.115
20957WAT     H263114   9.245   3.902   2.163
20958WAT      O63115   0.664   1.347   7.239
20958WAT     H163116   0.592   1.333   7.306
20958WAT     H263117   0.676   1.445   7.222
20959WAT      O63118   8.429   2.926   0.927
20959WAT     H163119   8.356   2.967   0.981
20959WAT     H263120   8.478   2.859   0.983
20960WAT      O63121   2.585   1.053   7.857
20960WAT     H163122   2.574   1.073   7.760
20960WAT     H263123   2.622   1.133   7.904
20961WAT      O63124   2.638   0.762   0.559
20961WAT     H163125   2.653   0.749   0.657
20961WAT     H263126   2.666   0.855   0.533
20962WAT      O63127   3.761   5.872   0.838
20962WAT     H163128   3.781   5.934   0.762
20962WAT     H263129   3.833   5.804   0.845
20963WAT      O63130   4.547   9.714   0.330
20963WAT     H163131   4.517   9.809   0.326
20963WAT     H263132   4.470   9.654   0.313
20964WAT      O63133   7.257   8.282   0.259
20964WAT     H163134   7.258   8.372   0.216
20964WAT     H263135   7.290   8.289   0.353
20965WAT      O63136   3.286   0.375   9.657
20965WAT     H163137   3.294   0.398   9.560
20965WAT     H263138   3.192   0.390   9.687
20966WAT      O63139   7.454   5.808   3.394
20966WAT     H163140   7.406   5.840   3.475
20966WAT     H263141   7.393   5.810   3.315
20967WAT      O63142   6.735   2.169   6.454
20967WAT     H163143   6.657   2.216   6.497
20967WAT     H263144   6.700   2.102   6.388
20968WAT      O63145   5.933   4.310   2.385
20968WAT     H163146   5.959   4.407   2.376
20968WAT     H263147   5.869   4.300   2.461
20969WAT      O63148   6.397   6.909   5.093
20969WAT     H163149   6.306   6.948   5.105
20969WAT     H263150   6.447   6.963   5.026
20970WAT      O63151   1.276   4.055   6.058
20970WAT     H163152   1.240   4.124   5.996
20970WAT     H263153   1.264   3.964   6.017
20971WAT      O63154   4.783   0.233   3.045
20971WAT     H163155   4.784   0.332   3.060
20971WAT     H263156   4.875   0.197   3.060
20972WAT      O63157   5.250   2.642   5.884
20972WAT     H163158   5.344   2.645   5.918
20972WAT     H263159   5.235   2.715   5.818
20973WAT      O63160   3.791   7.503   9.137
20973WAT     H163161   3.718   7.545   9.083
20973WAT     H263162   3.761   7.413   9.168
20974WAT      O63163   8.892   0.131   2.042
20974WAT     H163164   8.813   0.180   2.079
20974WAT     H263165   8.863   0.044   2.002
20975WAT      O63166   0.951   0.569   7.939
20975WAT     H163167   0.901   0.647   7.900
20975WAT     H263168   0.953   0.577   8.039
20976WAT      O63169   8.859   8.167   5.059
20976WAT     H163170   8.869   8.262   5.031
20976WAT     H263171   8.921   8.147   5.135
20977WAT      O63172   8.021   8.242   2.900
20977WAT     H163173   8.119   8.253   2.888
20977WAT     H263174   7.987   8.173   2.836
20978WAT      O63175   7.390   4.499   2.084
20978WAT     H163176   7.472   4.554   2.092
20978WAT     H263177   7.321   4.549   2.032
20979WAT      O63178   5.819   9.573   2.549
20979WAT     H163179   5.746   9.592   2.615
20979WAT     H263180   5.849   9.658   2.506
20980WAT      O63181   9.606   6.937   5.118
20980WAT     H163182   9.703   6.920   5.133
20980WAT     H263183   9.576   6.888   5.036
20981WAT      O63184   4.698   7.076   6.500
20981WAT     H163185   4.632   7.051   6.430
20981WAT     H263186   4.763   7.143   6.464
20982WAT      O63187   2.410   9.760   7.568
20982WAT     H163188   2.481   9.729   7.630
20982WAT     H263189   2.330   9.789   7.621
20983WAT      O63190   9.484   9.281   8.690
20983WAT     H163191   9.470   9.205   8.626
20983WAT     H263192   9.569   9.328   8.669
20984WAT      O63193   6.655   9.457   9.662
20984WAT     H163194   6.639   9.413   9.750
20984WAT     H263195   6.718   9.534   9.674
20985WAT      O63196   4.433   9.057   8.541
20985WAT     H163197   4.352   9.004   8.516
20985WAT     H263198   4.509   9.033   8.481
20986WAT      O63199   3.478   0.041   7.521
20986WAT     H163200   3.516  -0.012   7.598
20986WAT     H263201   3.381   0.020   7.511
20987WAT      O63202   9.760   1.792   8.122
20987WAT     H163203   9.754   1.843   8.037
20987WAT     H263204   9.713   1.704   8.112
20988WAT      O63205   7.055   4.116   5.087
20988WAT     H163206   6.999   4.196   5.064
20988WAT     H263207   7.082   4.069   5.003
20989WAT      O63208   6.775   5.145   3.930
20989WAT     H163209   6.790   5.100   3.842
20989WAT     H263210   6.863   5.164   3.973
20990WAT      O63211   0.769   3.257   6.365
20990WAT     H163212   0.864   3.260   6.336
20990WAT     H263213   0.754   3.323   6.438
20991WAT      O63214   8.198   4.234   5.551
20991WAT     H163215   8.228   4.143   5.522
20991WAT     H263216   8.123   4.225   5.617
20992WAT      O63217   3.044   1.013   6.941
20992WAT     H163218   2.983   1.076   6.989
20992WAT     H263219   3.125   1.063   6.910
20993WAT      O63220   0.868   8.958   4.664
20993WAT     H163221   0.796   8.979   4.597
20993WAT     H263222   0.928   8.887   4.628
20994WAT      O63223   6.927   1.835   2.413
20994WAT     H163224   6.967   1.757   2.460
20994WAT     H263225   6.879   1.894   2.479
20995WAT      O63226   4.718   4.734   2.198
20995WAT     H163227   4.692   4.812   2.254
20995WAT     H263228   4.654   4.659   2.213
20996WAT      O63229   0.190   3.964   7.114
20996WAT     H163230   0.175   3.867   7.093
20996WAT     H263231   0.153   3.985   7.204
20997WAT      O63232   3.002   7.240   2.866
20997WAT     H163233   2.942   7.178   2.916
20997WAT     H263234   2.960   7.266   2.780
20998WAT      O63235   8.897   7.462   0.467
20998WAT     H163236   8.983   7.425   0.430
20998WAT     H263237   8.888   7.437   0.563
20999WAT      O63238   5.861   0.238   1.185
20999WAT     H163239   5.800   0.161   1.205
20999WAT     H263240   5.842   0.313   1.250
21000WAT      O63241   5.553   0.091   8.633
21000WAT     H163242   5.598   0.010   8.596
21000WAT     H263243   5.553   0.087   8.733
21001WAT      O63244   4.371   2.252   1.416
21001WAT     H163245   4.309   2.263   1.494
21001WAT     H263246   4.436   2.179   1.436
21002WAT      O63247   3.759   1.900   3.280
21002WAT     H163248   3.710   1.987   3.269
21002WAT     H263249   3.840   1.900   3.221
21003WAT      O63250   0.199   7.130   5.077
21003WAT     H163251   0.274   7.068   5.100
21003WAT     H263252   0.216   7.220   5.117
21004WAT      O63253   5.360   1.775   3.874
21004WAT     H163254   5.382   1.745   3.966
21004WAT     H263255   5.306   1.859   3.879
21005WAT      O63256   8.393   6.109   3.421
21005WAT     H163257   8.324   6.180   3.407
21005WAT     H263258   8.379   6.036   3.354
21006WAT      O63259   1.417   1.955   6.262
21006WAT     H163260   1.433   2.030   6.326
21006WAT     H263261   1.348   1.982   6.194
21007WAT      O63262   6.283   0.202   9.145
21007WAT     H163263   6.288   0.195   9.245
21007WAT     H263264   6.205   0.150   9.111
21008WAT      O63265   0.261   7.491   1.662
21008WAT     H163266   0.334   7.484   1.594
21008WAT     H263267   0.277   7.424   1.734
21009WAT      O63268   7.748   7.893   7.219
21009WAT     H163269   7.834   7.859   7.256
21009WAT     H263270   7.705   7.954   7.285
21010WAT      O63271   6.653   3.289   1.385
21010WAT     H163272   6.709   3.260   1.463
21010WAT     H263273   6.572   3.338   1.419
21011WAT      O63274   6.227   1.943   1.937
21011WAT     H163275   6.277   2.014   1.889
21011WAT     H263276   6.291   1.873   1.971
21012WAT      O63277   7.565   0.532   1.952
21012WAT     H163278   7.555   0.579   2.040
21012WAT     H263279   7.648   0.565   1.907
21013WAT      O63280   4.168   6.059   2.604
21013WAT     H163281   4.141   6.153   2.626
21013WAT     H263282   4.117   6.029   2.523
21014WAT      O63283   8.715   9.184   3.839
21014WAT     H163284   8.648   9.257   3.848
21014WAT     H263285   8.679   9.100   3.881
21015WAT      O63286   4.320   5.412   4.978
21015WAT     H163287   4.225   5.392   5.002
21015WAT     H263288   4.322   5.476   4.902
21016WAT      O63289   1.647   6.602   6.158
21016WAT     H163290   1.590   6.643   6.086
21016WAT     H263291   1.713   6.670   6.191
21017WAT      O63292   4.680   1.413   7.685
21017WAT     H163293   4.602   1.399   7.746
21017WAT     H263294   4.740   1.484   7.722
21018WAT      O63295   4.362   7.754   9.826
21018WAT     H163296   4.458   7.736   9.845
21018WAT     H263297   4.335   7.711   9.740
21019WAT      O63298   5.793   7.284   9.278
21019WAT     H163299   5.828   7.201   9.234
21019WAT     H263300   5.713   7.318   9.229
21020WAT      O63301   4.465   6.550   2.800
21020WAT     H163302   4.546   6.493   2.808
21020WAT     H263303   4.416   6.550   2.887
21021WAT      O63304   5.990   9.387   5.020
21021WAT     H163305   5.924   9.355   4.952
21021WAT     H263306   6.060   9.317   5.033
21022WAT      O63307   8.607   8.770   0.261
21022WAT     H163308   8.586   8.849   0.319
21022WAT     H263309   8.541   8.697   0.280
21023WAT      O63310   1.649   1.305   2.760
21023WAT     H163311   1.690   1.352   2.682
21023WAT     H263312   1.566   1.258   2.730
21024WAT      O63313   8.002   2.396   7.180
21024WAT     H163314   8.021   2.368   7.086
21024WAT     H263315   7.998   2.314   7.238
21025WAT      O63316   4.789   2.185   7.762
21025WAT     H163317   4.721   2.257   7.756
21025WAT     H263318   4.862   2.202   7.696
21026WAT      O63319   4.219   2.901   2.663
21026WAT     H163320   4.289   2.905   2.592
21026WAT     H263321   4.152   2.973   2.649
21027WAT      O63322   6.165   4.262   8.191
21027WAT     H163323   6.251   4.257   8.241
21027WAT     H263324   6.156   4.352   8.148
21028WAT      O63325   7.940   2.855   9.603
21028WAT     H163326   7.982   2.864   9.693
21028WAT     H263327   7.946   2.942   9.554
21029WAT      O63328   1.257   7.909   5.890
21029WAT     H163329   1.225   7.967   5.965
21029WAT     H263330   1.209   7.821   5.893
21030WAT      O63331   5.560   1.158   5.703
21030WAT     H163332   5.489   1.130   5.768
21030WAT     H263333   5.575   1.084   5.638
21031WAT      O63334   3.820   6.812   9.124
21031WAT     H163335   3.756   6.886   9.106
21031WAT     H263336   3.779   6.745   9.185
21032WAT      O63337   4.054   3.707   9.691
21032WAT     H163338   4.001   3.762   9.757
21032WAT     H263339   4.003   3.624   9.669
21033WAT      O63340   6.782   7.443   9.242
21033WAT     H163341   6.765   7.429   9.144
21033WAT     H263342   6.826   7.532   9.256
21034WAT      O63343   2.792   6.580   3.849
21034WAT     H163344   2.799   6.481   3.860
21034WAT     H263345   2.834   6.607   3.763
21035WAT      O63346   6.923   5.088   8.307
21035WAT     H163347   6.925   5.154   8.382
21035WAT     H263348   6.919   5.138   8.220
21036WAT      O63349   4.642   3.205   1.673
21036WAT     H163350   4.666   3.162   1.586
21036WAT     H263351   4.590   3.288   1.656
21037WAT      O63352   7.074   3.366   1.769
21037WAT     H163353   7.136   3.307   1.718
21037WAT     H263354   6.980   3.331   1.762
21038WAT      O63355   1.632   5.686   7.442
21038WAT     H163356   1.539   5.683   7.478
21038WAT     H263357   1.679   5.601   7.466
21039WAT      O63358   6.407   3.427   0.864
21039WAT     H163359   6.473   3.501   0.852
21039WAT     H263360   6.317   3.458   0.836
21040WAT      O63361   8.701   4.121   9.632
21040WAT     H163362   8.626   4.065   9.666
21040WAT     H263363   8.765   4.065   9.580
21041WAT      O63364   7.831   2.973   5.064
21041WAT     H163365   7.874   3.008   4.980
21041WAT     H263366   7.827   3.046   5.132
21042WAT      O63367   9.575   2.171   9.332
21042WAT     H163368   9.635   2.201   9.407
21042WAT     H263369   9.631   2.132   9.259
21043WAT      O63370   4.165   8.600   4.069
21043WAT     H163371   4.158   8.512   4.116
21043WAT     H263372   4.088   8.611   4.007
21044WAT      O63373   6.665   0.322   7.983
21044WAT     H163374   6.723   0.309   7.903
21044WAT     H263375   6.692   0.258   8.055
21045WAT      O63376   6.714   8.365   6.288
21045WAT     H163377   6.657   8.319   6.220
21045WAT     H263378   6.715   8.463   6.271
21046WAT      O63379   3.350   0.832   6.801
21046WAT     H163380   3.448   0.819   6.816
21046WAT     H263381   3.332   0.928   6.780
21047WAT      O63382   2.309   0.906   9.646
21047WAT     H163383   2.312   1.005   9.657
21047WAT     H263384   2.387   0.865   9.693
21048WAT      O63385   7.530   6.247   6.131
21048WAT     H163386   7.493   6.154   6.122
21048WAT     H263387   7.628   6.245   6.111
21049WAT      O63388   9.378   8.047   5.173
21049WAT     H163389   9.389   8.005   5.263
21049WAT     H263390   9.322   8.129   5.182
21050WAT      O63391   0.633   9.155   5.976
21050WAT     H163392   0.543   9.113   5.990
21050WAT     H263393   0.639   9.191   5.884
21051WAT      O63394   9.012   0.884   3.648
21051WAT     H163395   8.940   0.943   3.685
21051WAT     H263396   8.987   0.857   3.555
21052WAT      O63397   8.694   7.313   5.921
21052WAT     H163398   8.601   7.327   5.886
21052WAT     H263399   8.690   7.270   6.011
21053WAT      O63400   9.655   5.144   6.243
21053WAT     H163401   9.563   5.180   6.252
21053WAT     H263402   9.713   5.179   6.317
21054WAT      O63403   0.102   3.324   3.851
21054WAT     H163404   0.076   3.228   3.837
21054WAT     H263405   0.077   3.353   3.943
21055WAT      O63406   8.821   4.654   4.149
21055WAT     H163407   8.840   4.655   4.051
21055WAT     H263408   8.801   4.560   4.178
21056WAT      O63409   9.365   1.427   1.970
21056WAT     H163410   9.271   1.430   2.004
21056WAT     H263411   9.378   1.344   1.916
21057WAT      O63412   1.405   4.736   1.644
21057WAT     H163413   1.503   4.726   1.662
21057WAT     H263414   1.388   4.823   1.597
21058WAT      O63415   1.871   7.530   1.154
21058WAT     H163416   1.796   7.503   1.215
21058WAT     H263417   1.864   7.627   1.133
21059WAT      O63418   4.287   8.702   0.803
21059WAT     H163419   4.315   8.744   0.889
21059WAT     H263420   4.268   8.605   0.819
21060WAT      O63421   2.912   1.910   9.705
21060WAT     H163422   2.830   1.854   9.699
21060WAT     H263423   2.992   1.856   9.680
21061WAT      O63424   0.186   5.502   5.291
21061WAT     H163425   0.122   5.561   5.341
21061WAT     H263426   0.205   5.543   5.202
21062WAT      O63427   8.705   2.757   1.897
21062WAT     H163428   8.693   2.674   1.952
21062WAT     H263429   8.629   2.819   1.915
21063WAT      O63430   0.146   7.170   9.347
21063WAT     H163431   0.214   7.238   9.374
21063WAT     H263432   0.189   7.081   9.334
21064WAT      O63433   1.956   4.362   5.787
21064WAT     H163434   2.041   4.335   5.743
21064WAT     H263435   1.879   4.344   5.726
21065WAT      O63436   8.198   0.428   1.608
21065WAT     H163437   8.135   0.350   1.612
21065WAT     H263438   8.146   0.513   1.611
21066WAT      O63439   7.997   0.969   8.739
21066WAT     H163440   8.047   0.938   8.658
21066WAT     H263441   7.909   0.921   8.744
21067WAT      O63442   9.390   7.253   7.376
21067WAT     H163443   9.390   7.247   7.277
21067WAT     H263444   9.319   7.193   7.413
21068WAT      O63445   1.455   0.420   2.449
21068WAT     H163446   1.378   0.357   2.445
21068WAT     H263447   1.516   0.394   2.524
21069WAT      O63448   5.425   4.006   3.761
21069WAT     H163449   5.430   4.106   3.770
21069WAT     H263450   5.345   3.972   3.810
21070WAT      O63451   8.294   5.492   2.555
21070WAT     H163452   8.374   5.551   2.568
21070WAT     H263453   8.216   5.530   2.605
21071WAT      O63454   4.416   6.565   2.373
21071WAT     H163455   4.349   6.594   2.442
21071WAT     H263456   4.369   6.547   2.287
21072WAT      O63457   3.557   8.384   2.232
21072WAT     H163458   3.503   8.311   2.275
21072WAT     H263459   3.497   8.461   2.211
21073WAT      O63460   4.580   0.405   5.523
21073WAT     H163461   4.669   0.375   5.557
21073WAT     H263462   4.513   0.398   5.597
21074WAT      O63463   0.202   3.743   9.143
21074WAT     H163464   0.173   3.830   9.101
21074WAT     H263465   0.224   3.677   9.072
21075WAT      O63466   5.047   3.629   4.018
21075WAT     H163467   5.114   3.670   4.079
21075WAT     H263468   5.055   3.529   4.021
21076WAT      O63469   5.875   4.345   3.852
21076WAT     H163470   5.959   4.371   3.806
21076WAT     H263471   5.797   4.382   3.802
21077WAT      O63472   6.817   7.187   4.098
21077WAT     H163473   6.763   7.195   4.014
21077WAT     H263474   6.843   7.091   4.111
21078WAT      O63475   9.333   2.105   8.147
21078WAT     H163476   9.237   2.123   8.171
21078WAT     H263477   9.385   2.086   8.230
21079WAT      O63478   6.950   0.678   6.954
21079WAT     H163479   6.974   0.642   6.864
21079WAT     H263480   6.883   0.751   6.944
21080WAT      O63481   1.048   7.459   8.967
21080WAT     H163482   1.071   7.362   8.958
21080WAT     H263483   0.950   7.469   8.983
21081WAT      O63484   5.266   1.256   2.566
21081WAT     H163485   5.170   1.228   2.567
21081WAT     H263486   5.280   1.324   2.494
21082WAT      O63487   4.503   7.278   7.869
21082WAT     H163488   4.533   7.333   7.791
21082WAT     H263489   4.412   7.307   7.899
21083WAT      O63490   9.719   5.364   9.173
21083WAT     H163491   9.700   5.266   9.166
21083WAT     H263492   9.765   5.395   9.089
21084WAT      O63493   6.868   4.902   7.456
21084WAT     H163494   6.961   4.927   7.431
21084WAT     H263495   6.804   4.947   7.394
21085WAT      O63496   6.983   5.550   3.803
21085WAT     H163497   6.959   5.623   3.866
21085WAT     H263498   6.986   5.587   3.709
21086WAT      O63499   2.446   5.906   5.350
21086WAT     H163500   2.386   5.963   5.407
21086WAT     H263501   2.540   5.942   5.355
21087WAT      O63502   4.264   3.467   0.301
21087WAT     H163503   4.179   3.474   0.354
21087WAT     H263504   4.242   3.467   0.203
21088WAT      O63505   1.126   7.732   0.304
21088WAT     H163506   1.119   7.705   0.208
21088WAT     H263507   1.218   7.766   0.322
21089WAT      O63508   8.954   8.475   6.825
21089WAT     H163509   8.936   8.392   6.876
21089WAT     H263510   8.969   8.551   6.889
21090WAT      O63511   7.387   0.631   1.761
21090WAT     H163512   7.449   0.579   1.820
21090WAT     H263513   7.297   0.588   1.760
21091WAT      O63514   1.039   5.938   8.037
21091WAT     H163515   1.042   5.959   7.939
21091WAT     H263516   1.078   6.015   8.088
21092WAT      O63517   5.006   0.469   4.945
21092WAT     H163518   5.048   0.393   4.896
21092WAT     H263519   4.918   0.440   4.983
21093WAT      O63520   2.605   8.343   5.307
21093WAT     H163521   2.551   8.311   5.229
21093WAT     H263522   2.700   8.357   5.277
21094WAT      O63523   9.674   6.131   0.666
21094WAT     H163524   9.664   6.200   0.738
21094WAT     H263525   9.655   6.172   0.577
21095WAT      O63526   1.711   6.462   7.109
21095WAT     H163527   1.797   6.435   7.152
21095WAT     H263528   1.644   6.483   7.180
21096WAT      O63529   1.237   0.385   8.582
21096WAT     H163530   1.205   0.338   8.665
21096WAT     H263531   1.329   0.353   8.559
21097WAT      O63532   5.865   0.722   6.781
21097WAT     H163533   5.862   0.638   6.726
21097WAT     H263534   5.809   0.710   6.863
21098WAT      O63535   9.328   9.055   8.070
21098WAT     H163536   9.377   9.069   7.984
21098WAT     H263537   9.256   8.987   8.057
21099WAT      O63538   1.854   0.022   1.026
21099WAT     H163539   1.801  -0.063   1.029
21099WAT     H263540   1.950   0.001   1.008
21100WAT      O63541   6.880   8.594   2.781
21100WAT     H163542   6.829   8.652   2.718
21100WAT     H263543   6.828   8.511   2.799
21101WAT      O63544   7.113   6.341   5.650
21101WAT     H163545   7.200   6.368   5.691
21101WAT     H263546   7.127   6.321   5.553
21102WAT      O63547   0.517   2.880   9.360
21102WAT     H163548   0.542   2.970   9.326
21102WAT     H263549   0.544   2.871   9.456
21103WAT      O63550   1.123   5.150   1.318
21103WAT     H163551   1.066   5.139   1.400
21103WAT     H263552   1.065   5.172   1.240
21104WAT      O63553   2.479   0.756   2.545
21104WAT     H163554   2.390   0.757   2.500
21104WAT     H263555   2.494   0.667   2.587
21105WAT      O63556   3.652   6.351   8.908
21105WAT     H163557   3.575   6.288   8.898
21105WAT     H263558   3.621   6.434   8.954
21106WAT      O63559   7.600   1.399   4.578
21106WAT     H163560   7.532   1.334   4.609
21106WAT     H263561   7.646   1.364   4.496
21107WAT      O63562   4.473   6.362   3.245
21107WAT     H163563   4.526   6.428   3.298
21107WAT     H263564   4.528   6.279   3.230
21108WAT      O63565   4.907   8.050   5.890
21108WAT     H163566   4.998   8.009   5.888
21108WAT     H263567   4.892   8.094   5.978
21109WAT      O63568   6.338   6.031   1.459
21109WAT     H163569   6.373   5.938   1.472
21109WAT     H263570   6.359   6.086   1.540
21110WAT      O63571   7.423   9.465   6.973
21110WAT     H163572   7.334   9.443   6.933
21110WAT     H263573   7.494   9.461   6.902
21111WAT      O63574   4.117   3.435   7.211
21111WAT     H163575   4.172   3.352   7.200
21111WAT     H263576   4.056   3.445   7.132
21112WAT      O63577   9.339   8.325   1.633
21112WAT     H163578   9.303   8.384   1.705
21112WAT     H263579   9.278   8.328   1.553
21113WAT      O63580   4.588   1.794   2.262
21113WAT     H163581   4.518   1.852   2.221
21113WAT     H263582   4.578   1.700   2.229
21114WAT      O63583   3.110   3.655   1.505
21114WAT     H163584   3.138   3.601   1.426
21114WAT     H263585   3.191   3.692   1.550
21115WAT      O63586   2.458   9.802   7.929
21115WAT     H163587   2.535   9.841   7.878
21115WAT     H263588   2.458   9.703   7.920
21116WAT      O63589   2.205   1.817   4.268
21116WAT     H163590   2.247   1.867   4.343
21116WAT     H263591   2.150   1.742   4.304
21117WAT      O63592   1.938   1.852   6.593
21117WAT     H163593   1.949   1.894   6.683
21117WAT     H263594   1.881   1.911   6.535
21118WAT      O63595   0.325   8.205   4.912
21118WAT     H163596   0.258   8.133   4.893
21118WAT     H263597   0.308   8.283   4.851
21119WAT      O63598   1.305   1.708   6.333
21119WAT     H163599   1.339   1.802   6.320
21119WAT     H263600   1.235   1.707   6.405
21120WAT      O63601   4.083   0.633   9.045
21120WAT     H163602   4.120   0.544   9.016
21120WAT     H263603   4.121   0.705   8.987
21121WAT      O63604   2.603   7.227   6.025
21121WAT     H163605   2.557   7.153   5.977
21121WAT     H263606   2.537   7.300   6.044
21122WAT      O63607   5.443   0.964   7.301
21122WAT     H163608   5.420   1.000   7.391
21122WAT     H263609   5.425   0.865   7.299
21123WAT      O63610   9.865   5.352   1.762
21123WAT     H163611   9.949   5.385   1.719
21123WAT     H263612   9.832   5.419   1.828
21124WAT      O63613   0.567   4.698   1.018
21124WAT     H163614   0.595   4.623   1.079
21124WAT     H263615   0.569   4.667   0.923
21125WAT      O63616   9.836   1.586   6.613
21125WAT     H163617   9.884   1.645   6.548
21125WAT     H263618   9.778   1.522   6.563
21126WAT      O63619   7.439   7.130   0.756
21126WAT     H163620   7.536   7.141   0.735
21126WAT     H263621   7.409   7.206   0.813
21127WAT      O63622   2.940   4.763   8.912
21127WAT     H163623   2.880   4.842   8.903
21127WAT     H263624   2.889   4.688   8.956
21128WAT      O63625   2.978   8.022   2.126
21128WAT     H163626   3.059   8.037   2.070
21128WAT     H263627   2.971   8.095   2.194
21129WAT      O63628   2.613   0.523   2.002
21129WAT     H163629   2.640   0.613   1.967
21129WAT     H263630   2.574   0.468   1.928
21130WAT      O63631   1.945   8.958   4.105
21130WAT     H163632   1.850   8.936   4.127
21130WAT     H263633   1.998   8.874   4.094
21131WAT      O63634   9.004   7.903   5.630
21131WAT     H163635   8.985   7.880   5.725
21131WAT     H263636   9.069   7.836   5.592
21132WAT      O63637   2.742   6.632   8.440
21132WAT     H163638   2.697   6.582   8.514
21132WAT     H263639   2.757   6.727   8.468
21133WAT      O63640   8.476   9.769   7.886
21133WAT     H163641   8.496   9.853   7.836
21133WAT     H263642   8.473   9.789   7.984
21134WAT      O63643   4.324   7.128   6.613
21134WAT     H163644   4.374   7.120   6.699
21134WAT     H263645   4.336   7.221   6.577
21135WAT      O63646   9.120   0.560   4.408
21135WAT     H163647   9.194   0.501   4.441
21135WAT     H263648   9.132   0.652   4.445
21136WAT      O63649   7.839   7.005   2.033
21136WAT     H163650   7.778   6.951   1.975
21136WAT     H263651   7.900   6.944   2.084
21137WAT      O63652   1.285   1.248   3.690
21137WAT     H163653   1.236   1.189   3.753
21137WAT     H263654   1.260   1.343   3.707
21138WAT      O63655   3.539   3.459   3.749
21138WAT     H163656   3.486   3.532   3.706
21138WAT     H263657   3.574   3.491   3.837
21139WAT      O63658   0.734   8.744   7.250
21139WAT     H163659   0.655   8.805   7.243
21139WAT     H263660   0.798   8.781   7.317
21140WAT      O63661   6.807   5.155   0.878
21140WAT     H163662   6.750   5.117   0.805
21140WAT     H263663   6.900   5.117   0.871
21141WAT      O63664   5.842   8.765   6.624
21141WAT     H163665   5.896   8.740   6.544
21141WAT     H263666   5.887   8.730   6.706
21142WAT      O63667   7.368   3.906   6.098
21142WAT     H163668   7.353   3.855   6.182
21142WAT     H263669   7.416   3.848   6.032
21143WAT      O63670   6.215   8.913   4.715
21143WAT     H163671   6.129   8.963   4.710
21143WAT     H263672   6.246   8.909   4.810
21144WAT      O63673   5.306   0.143   8.881
21144WAT     H163674   5.393   0.115   8.841
21144WAT     H263675   5.243   0.066   8.882
21145WAT      O63676   3.177   2.567   4.791
21145WAT     H163677   3.108   2.504   4.754
21145WAT     H263678   3.243   2.516   4.845
21146WAT      O63679   7.028   8.073   0.335
21146WAT     H163680   7.075   8.161   0.328
21146WAT     H263681   6.942   8.078   0.285
21147WAT      O63682   9.550   2.341   2.563
21147WAT     H163683   9.573   2.398   2.642
21147WAT     H263684   9.483   2.272   2.590
21148WAT      O63685   6.326   0.053   0.058
21148WAT     H163686   6.235   0.073   0.094
21148WAT     H263687   6.320   0.033  -0.040
21149WAT      O63688   8.581   4.611   9.691
21149WAT     H163689   8.631   4.679   9.745
21149WAT     H263690   8.644   4.538   9.664
21150WAT      O63691   0.896   7.100   0.517
21150WAT     H163692   0.842   7.044   0.453
21150WAT     H263693   0.917   7.046   0.598
21151WAT      O63694   0.809   5.279   1.784
21151WAT     H163695   0.744   5.267   1.710
21151WAT     H263696   0.804   5.200   1.845
21152WAT      O63697   2.536   2.511   0.322
21152WAT     H163698   2.558   2.604   0.353
21152WAT     H263699   2.575   2.496   0.232
21153WAT      O63700   3.164   0.948   2.223
21153WAT     H163701   3.188   0.965   2.318
21153WAT     H263702   3.120   0.858   2.215
21154WAT      O63703   3.100   0.574   3.127
21154WAT     H163704   3.108   0.629   3.044
21154WAT     H263705   3.183   0.520   3.139
21155WAT      O63706   5.529   5.138   3.144
21155WAT     H163707   5.451   5.159   3.203
21155WAT     H263708   5.500   5.079   3.069
21156WAT      O63709   6.508   3.996   9.305
21156WAT     H163710   6.458   4.055   9.241
21156WAT     H263711   6.553   4.053   9.374
21157WAT      O63712   5.742   0.112   2.166
21157WAT     H163713   5.817   0.122   2.100
21157WAT     H263714   5.654   0.126   2.119
21158WAT      O63715   3.531   0.581   4.510
21158WAT     H163716   3.468   0.656   4.533
21158WAT     H263717   3.557   0.588   4.414
21159WAT      O63718   2.051   9.545   8.153
21159WAT     H163719   1.997   9.548   8.069
21159WAT     H263720   2.128   9.608   8.145
21160WAT      O63721   6.228   7.852   5.905
21160WAT     H163722   6.325   7.867   5.924
21160WAT     H263723   6.212   7.755   5.885
21161WAT      O63724   4.706   6.949   0.596
21161WAT     H163725   4.687   7.032   0.648
21161WAT     H263726   4.633   6.882   0.611
21162WAT      O63727   3.850   7.533   7.218
21162WAT     H163728   3.784   7.518   7.291
21162WAT     H263729   3.846   7.457   7.153
21163WAT      O63730   6.717   6.752   4.936
21163WAT     H163731   6.618   6.745   4.942
21163WAT     H263732   6.742   6.839   4.893
21164WAT      O63733   7.580   9.105   2.034
21164WAT     H163734   7.485   9.108   2.002
21164WAT     H263735   7.620   9.017   2.009
21165WAT      O63736   6.542   3.583   9.152
21165WAT     H163737   6.532   3.532   9.067
21165WAT     H263738   6.455   3.627   9.175
21166WAT      O63739   0.568   8.136   7.145
21166WAT     H163740   0.589   8.129   7.048
21166WAT     H263741   0.620   8.212   7.184
21167WAT      O63742   3.165   2.174   3.667
21167WAT     H163743   3.228   2.175   3.745
21167WAT     H263744   3.194   2.102   3.603
21168WAT      O63745   5.208   6.606   1.372
21168WAT     H163746   5.223   6.544   1.294
21168WAT     H263747   5.277   6.678   1.370
21169WAT      O63748   6.626   4.590   7.288
21169WAT     H163749   6.538   4.577   7.243
21169WAT     H263750   6.688   4.516   7.263
21170WAT      O63751   8.396   3.160   2.952
21170WAT     H163752   8.426   3.070   2.920
21170WAT     H263753   8.474   3.210   2.991
21171WAT      O63754   4.556   7.273   4.728
21171WAT     H163755   4.629   7.336   4.755
21171WAT     H263756   4.479   7.282   4.791
21172WAT      O63757   2.387   7.575   4.292
21172WAT     H163758   2.324   7.607   4.220
21172WAT     H263759   2.474   7.550   4.250
21173WAT      O63760   3.953   0.083   7.588
21173WAT     H163761   3.887   0.122   7.524
21173WAT     H263762   4.006   0.156   7.630
21174WAT      O63763   9.341   5.906   9.432
21174WAT     H163764   9.370   5.859   9.348
21174WAT     H263765   9.355   6.005   9.421
21175WAT      O63766   9.370   0.838   1.729
21175WAT     H163767   9.454   0.854   1.678
21175WAT     H263768   9.380   0.872   1.823
21176WAT      O63769   4.322   7.236   8.765
21176WAT     H163770   4.302   7.154   8.710
21176WAT     H263771   4.404   7.220   8.819
21177WAT      O63772   4.358   2.641   9.397
21177WAT     H163773   4.354   2.547   9.433
21177WAT     H263774   4.266   2.681   9.399
21178WAT      O63775   1.295   4.508   5.228
21178WAT     H163776   1.213   4.552   5.191
21178WAT     H263777   1.376   4.543   5.180
21179WAT      O63778   6.930   0.486   1.947
21179WAT     H163779   7.009   0.435   1.979
21179WAT     H263780   6.849   0.427   1.950
21180WAT      O63781   9.487   4.281   6.600
21180WAT     H163782   9.477   4.349   6.528
21180WAT     H263783   9.577   4.289   6.643
21181WAT      O63784   0.077   2.382   0.898
21181WAT     H163785   0.135   2.363   0.977
21181WAT     H263786   0.129   2.369   0.814
21182WAT      O63787   0.772   2.862   0.649
21182WAT     H163788   0.823   2.942   0.617
21182WAT     H263789   0.674   2.885   0.652
21183WAT      O63790   3.039   6.023   1.448
21183WAT     H163791   3.063   5.928   1.468
21183WAT     H263792   2.995   6.064   1.527
21184WAT      O63793   5.253   0.857   1.638
21184WAT     H163794   5.277   0.954   1.635
21184WAT     H263795   5.159   0.844   1.605
21185WAT      O63796   9.788   1.124   4.737
21185WAT     H163797   9.768   1.059   4.664
21185WAT     H263798   9.887   1.129   4.751
21186WAT      O63799   0.980   6.137   6.510
21186WAT     H163800   0.999   6.082   6.429
21186WAT     H263801   1.061   6.138   6.569
21187WAT      O63802   1.362   4.079   6.934
21187WAT     H163803   1.311   3.997   6.907
21187WAT     H263804   1.329   4.158   6.882
21188WAT      O63805   3.375   5.867   5.673
21188WAT     H163806   3.316   5.946   5.691
21188WAT     H263807   3.404   5.826   5.760
21189WAT      O63808   1.763   7.337   8.661
21189WAT     H163809   1.833   7.290   8.607
21189WAT     H263810   1.794   7.429   8.683
21190WAT      O63811   3.932   0.017   1.381
21190WAT     H163812   3.862   0.079   1.346
21190WAT     H263813   3.971  -0.036   1.306
21191WAT      O63814   0.383   8.095   1.677
21191WAT     H163815   0.317   8.144   1.734
21191WAT     H263816   0.385   7.999   1.704
21192WAT      O63817   3.343   5.675   5.172
21192WAT     H163818   3.278   5.608   5.135
21192WAT     H263819   3.352   5.661   5.271
21193WAT      O63820   9.629   9.744   3.102
21193WAT     H163821   9.648   9.701   3.191
21193WAT     H263822   9.532   9.768   3.097
21194WAT      O63823   7.300   0.838   9.246
21194WAT     H163824   7.252   0.917   9.207
21194WAT     H263825   7.393   0.865   9.272
21195WAT      O63826   4.635   9.462   3.276
21195WAT     H163827   4.644   9.548   3.327
21195WAT     H263828   4.612   9.482   3.181
21196WAT      O63829   5.369   6.253   1.532
21196WAT     H163830   5.385   6.242   1.434
21196WAT     H263831   5.338   6.165   1.570
21197WAT      O63832   4.761   5.320   9.485
21197WAT     H163833   4.765   5.226   9.518
21197WAT     H263834   4.828   5.333   9.411
21198WAT      O63835   7.527   4.019   3.981
21198WAT     H163836   7.502   3.949   3.915
21198WAT     H263837   7.445   4.059   4.021
21199WAT      O63838   0.108   8.283   1.547
21199WAT     H163839   0.040   8.219   1.581
21199WAT     H263840   0.123   8.355   1.616
21200WAT      O63841   2.580   8.810   2.344
21200WAT     H163842   2.571   8.749   2.423
21200WAT     H263843   2.644   8.770   2.278
21201WAT      O63844   7.394   1.805   1.879
21201WAT     H163845   7.363   1.738   1.811
21201WAT     H263846   7.491   1.825   1.863
21202WAT      O63847   3.453   2.247   6.856
21202WAT     H163848   3.432   2.319   6.922
21202WAT     H263849   3.526   2.278   6.795
21203WAT      O63850   8.067   1.298   4.642
21203WAT     H163851   8.005   1.358   4.692
21203WAT     H263852   8.155   1.293   4.689
21204WAT      O63853   5.422   5.919   5.061
21204WAT     H163854   5.499   5.976   5.090
21204WAT     H263855   5.443   5.822   5.079
21205WAT      O63856   5.697   5.223   7.121
21205WAT     H163857   5.694   5.161   7.198
21205WAT     H263858   5.769   5.291   7.135
21206WAT      O63859   1.633   1.659   7.723
21206WAT     H163860   1.692   1.638   7.645
21206WAT     H263861   1.539   1.674   7.692
21207WAT      O63862   7.826   8.074   3.615
21207WAT     H163863   7.779   8.133   3.550
21207WAT     H263864   7.921   8.063   3.587
21208WAT      O63865   8.987   4.569   9.677
21208WAT     H163866   9.075   4.580   9.724
21208WAT     H263867   8.925   4.642   9.704
21209WAT      O63868   5.813   7.693   6.031
21209WAT     H163869   5.795   7.766   6.097
21209WAT     H263870   5.836   7.609   6.081
21210WAT      O63871   6.562   5.805   5.794
21210WAT     H163872   6.658   5.815   5.819
21210WAT     H263873   6.554   5.738   5.719
21211WAT      O63874   7.163   5.907   0.689
21211WAT     H163875   7.167   5.809   0.668
21211WAT     H263876   7.070   5.941   0.676
21212WAT      O63877   8.307   1.246   4.298
21212WAT     H163878   8.373   1.314   4.329
21212WAT     H263879   8.346   1.155   4.309
21213WAT      O63880   8.115   2.385   3.999
21213WAT     H163881   8.105   2.330   3.916
21213WAT     H263882   8.136   2.325   4.076
21214WAT      O63883   9.093   9.294   1.579
21214WAT     H163884   9.099   9.253   1.488
21214WAT     H263885   9.172   9.354   1.594
21215WAT      O63886   0.516   1.885   3.640
21215WAT     H163887   0.549   1.842   3.724
21215WAT     H263888   0.592   1.935   3.597
21216WAT      O63889   7.359   7.833   3.576
21216WAT     H163890   7.438   7.891   3.598
21216WAT     H263891   7.365   7.805   3.480
21217WAT      O63892   8.985   4.289   8.865
21217WAT     H163893   9.037   4.344   8.930
21217WAT     H263894   8.887   4.298   8.886
21218WAT      O63895   1.248   3.786   9.515
21218WAT     H163896   1.202   3.793   9.426
21218WAT     H263897   1.273   3.691   9.532
21219WAT      O63898   9.043   7.122   3.320
21219WAT     H163899   9.090   7.072   3.393
21219WAT     H263900   9.098   7.119   3.237
21220WAT      O63901   1.139   5.975   9.093
21220WAT     H163902   1.085   5.983   9.177
21220WAT     H263903   1.080   5.943   9.019
21221WAT      O63904   3.463   5.963   8.436
21221WAT     H163905   3.486   6.024   8.513
21221WAT     H263906   3.541   5.958   8.374
21222WAT      O63907   4.939   8.420   0.024
21222WAT     H163908   4.986   8.492  -0.026
21222WAT     H263909   4.937   8.337  -0.032
21223WAT      O63910   5.864   5.609   8.251
21223WAT     H163911   5.800   5.535   8.233
21223WAT     H263912   5.857   5.637   8.347
21224WAT      O63913   8.231   1.946   3.614
21224WAT     H163914   8.293   2.023   3.607
21224WAT     H263915   8.252   1.893   3.696
21225WAT      O63916   4.320   1.544   1.351
21225WAT     H163917   4.371   1.488   1.416
21225WAT     H263918   4.299   1.633   1.393
21226WAT      O63919   4.655   4.294   3.695
21226WAT     H163920   4.714   4.253   3.626
21226WAT     H263921   4.697   4.285   3.785
21227WAT      O63922   5.060   2.420   8.426
21227WAT     H163923   5.028   2.363   8.501
21227WAT     H263924   5.039   2.375   8.339
21228WAT      O63925   6.721   2.863   5.583
21228WAT     H163926   6.651   2.792   5.584
21228WAT     H263927   6.738   2.891   5.488
21229WAT      O63928   7.947   9.441   4.770
21229WAT     H163929   7.928   9.417   4.675
21229WAT     H263930   7.981   9.361   4.819
21230WAT      O63931   8.342   7.135   8.761
21230WAT     H163932   8.399   7.209   8.725
21230WAT     H263933   8.313   7.075   8.687
21231WAT      O63934   5.233   5.431   3.532
21231WAT     H163935   5.225   5.340   3.491
21231WAT     H263936   5.153   5.449   3.588
21232WAT      O63937   1.117   0.128   9.642
21232WAT     H163938   1.086   0.073   9.565
21232WAT     H263939   1.040   0.180   9.679
21233WAT      O63940   5.177   7.010   9.476
21233WAT     H163941   5.187   7.041   9.382
21233WAT     H263942   5.195   6.912   9.482
21234WAT      O63943   8.179   0.569   6.241
21234WAT     H163944   8.241   0.492   6.257
21234WAT     H263945   8.085   0.537   6.244
21235WAT      O63946   7.934   0.184   3.913
21235WAT     H163947   7.866   0.147   3.977
21235WAT     H263948   7.960   0.114   3.847
21236WAT      O63949   8.113   2.791   8.112
21236WAT     H163950   8.028   2.818   8.155
21236WAT     H263951   8.094   2.732   8.034
21237WAT      O63952   9.656   1.008   7.648
21237WAT     H163953   9.611   1.074   7.588
21237WAT     H263954   9.682   0.927   7.596
21238WAT      O63955   1.899   0.679   7.700
21238WAT     H163956   1.907   0.589   7.744
21238WAT     H263957   1.972   0.738   7.734
21239WAT      O63958   7.750   1.894   1.867
21239WAT     H163959   7.726   1.819   1.805
21239WAT     H263960   7.720   1.981   1.829
21240WAT      O63961   4.721   0.496   5.977
21240WAT     H163962   4.813   0.509   5.941
21240WAT     H263963   4.726   0.465   6.072
21241WAT      O63964   3.129   0.784   5.613
21241WAT     H163965   3.185   0.724   5.669
21241WAT     H263966   3.161   0.782   5.518
21242WAT      O63967   9.681   7.426   9.792
21242WAT     H163968   9.713   7.510   9.747
21242WAT     H263969   9.589   7.405   9.762
21243WAT      O63970   6.017   8.184   0.390
21243WAT     H163971   5.961   8.182   0.472
21243WAT     H263972   6.111   8.160   0.413
21244WAT      O63973   8.116   3.187   2.860
21244WAT     H163974   8.085   3.275   2.897
21244WAT     H263975   8.215   3.177   2.877
21245WAT      O63976   0.356   2.562   1.820
21245WAT     H163977   0.383   2.466   1.805
21245WAT     H263978   0.413   2.621   1.762
21246WAT      O63979   9.382   9.424   1.054
21246WAT     H163980   9.389   9.368   1.137
21246WAT     H263981   9.399   9.368   0.974
21247WAT      O63982   2.356   2.070   2.596
21247WAT     H163983   2.298   2.122   2.533
21247WAT     H263984   2.354   1.973   2.571
21248WAT      O63985   8.050   8.637   4.572
21248WAT     H163986   8.132   8.687   4.543
21248WAT     H263987   8.003   8.690   4.643
21249WAT      O63988   5.384   8.284   3.674
21249WAT     H163989   5.370   8.264   3.577
21249WAT     H263990   5.396   8.382   3.687
21250WAT      O63991   8.600   6.668   2.308
21250WAT     H163992   8.523   6.610   2.333
21250WAT     H263993   8.601   6.680   2.208
21251WAT      O63994   0.088   2.857   6.745
21251WAT     H163995   0.007   2.801   6.766
21251WAT     H263996   0.063   2.926   6.676
21252WAT      O63997   4.985   5.710   5.740
21252WAT     H163998   4.945   5.633   5.691
21252WAT     H263999   4.955   5.708   5.835
21253WAT      O64000   0.650   4.297   4.868
21253WAT     H164001   0.748   4.279   4.855
21253WAT     H264002   0.634   4.395   4.860
21254WAT      O64003   2.446   4.305   7.980
21254WAT     H164004   2.359   4.270   8.013
21254WAT     H264005   2.510   4.313   8.056
21255WAT      O64006   8.054   3.654   3.642
21255WAT     H164007   7.957   3.634   3.625
21255WAT     H264008   8.108   3.629   3.561
21256WAT      O64009   9.063   0.474   7.873
21256WAT     H164010   9.036   0.494   7.779
21256WAT     H264011   9.011   0.397   7.908
21257WAT      O64012   5.403   4.656   3.550
21257WAT     H164013   5.373   4.748   3.576
21257WAT     H264014   5.406   4.649   3.450
21258WAT      O64015   1.402   5.201   8.077
21258WAT     H164016   1.317   5.155   8.054
21258WAT     H264017   1.382   5.294   8.108
21259WAT      O64018   7.534   4.636   9.101
21259WAT     H164019   7.436   4.637   9.082
21259WAT     H264020   7.581   4.579   9.034
21260WAT      O64021   5.954   6.517   9.657
21260WAT     H164022   6.032   6.457   9.645
21260WAT     H264023   5.869   6.464   9.649
21261WAT      O64024   9.338   8.261   7.323
21261WAT     H164025   9.380   8.248   7.233
21261WAT     H264026   9.288   8.178   7.348
21262WAT      O64027   9.134   6.135   2.742
21262WAT     H164028   9.131   6.044   2.699
21262WAT     H264029   9.227   6.170   2.737
21263WAT      O64030   7.531   7.795   7.690
21263WAT     H164031   7.490   7.884   7.671
21263WAT     H264032   7.629   7.805   7.704
21264WAT      O64033   3.532   1.829   4.766
21264WAT     H164034   3.614   1.833   4.825
21264WAT     H264035   3.525   1.914   4.715
21265WAT      O64036   9.831   0.614   2.449
21265WAT     H164037   9.918   0.567   2.435
21265WAT     H264038   9.763   0.578   2.385
21266WAT      O64039   6.782   7.181   6.283
21266WAT     H164040   6.737   7.114   6.342
21266WAT     H264041   6.751   7.169   6.189
21267WAT      O64042   6.369   6.275   4.341
21267WAT     H164043   6.383   6.334   4.420
21267WAT     H264044   6.441   6.206   4.338
21268WAT      O64045   2.908   5.135   2.744
21268WAT     H164046   2.812   5.147   2.717
21268WAT     H264047   2.961   5.112   2.663
21269WAT      O64048   0.822   8.243   1.438
21269WAT     H164049   0.785   8.152   1.454
21269WAT     H264050   0.906   8.237   1.384
21270WAT      O64051   7.190   3.575   7.069
21270WAT     H164052   7.266   3.524   7.111
21270WAT     H264053   7.190   3.669   7.104
21271WAT      O64054   5.037   9.108   0.946
21271WAT     H164055   5.102   9.083   1.018
21271WAT     H264056   5.068   9.191   0.901
21272WAT      O64057   5.050   0.648   7.159
21272WAT     H164058   5.014   0.716   7.223
21272WAT     H264059   5.011   0.559   7.179
21273WAT      O64060   5.458   2.418   5.201
21273WAT     H164061   5.474   2.479   5.124
21273WAT     H264062   5.390   2.458   5.262
21274WAT      O64063   5.216   6.372   0.092
21274WAT     H164064   5.180   6.299   0.150
21274WAT     H264065   5.161   6.378   0.008
21275WAT      O64066   2.581   2.917   3.212
21275WAT     H164067   2.491   2.925   3.169
21275WAT     H264068   2.652   2.942   3.146
21276WAT      O64069   8.716   5.715   1.500
21276WAT     H164070   8.815   5.729   1.503
21276WAT     H264071   8.694   5.620   1.520
21277WAT      O64072   7.799   9.641   6.125
21277WAT     H164073   7.874   9.677   6.180
21277WAT     H264074   7.726   9.709   6.120
21278WAT      O64075   6.399   1.723   3.389
21278WAT     H164076   6.440   1.697   3.477
21278WAT     H264077   6.399   1.644   3.328
21279WAT      O64078   4.181   5.853   5.617
21279WAT     H164079   4.279   5.876   5.618
21279WAT     H264080   4.158   5.805   5.701
21280WAT      O64081   4.154   6.997   6.438
21280WAT     H164082   4.133   6.918   6.495
21280WAT     H264083   4.236   7.042   6.472
21281WAT      O64084   0.619   6.642   8.219
21281WAT     H164085   0.711   6.612   8.245
21281WAT     H264086   0.580   6.696   8.294
21282WAT      O64087   7.616   5.463   8.599
21282WAT     H164088   7.660   5.534   8.654
21282WAT     H264089   7.685   5.414   8.547
21283WAT      O64090   4.448   4.976   5.550
21283WAT     H164091   4.518   4.919   5.594
21283WAT     H264092   4.362   4.925   5.545
21284WAT      O64093   9.830   3.804   3.557
21284WAT     H164094   9.908   3.867   3.560
21284WAT     H264095   9.835   3.741   3.635
21285WAT      O64096   1.778   7.751   9.745
21285WAT     H164097   1.796   7.812   9.667
21285WAT     H264098   1.680   7.753   9.766
21286WAT      O64099   7.005   5.450   0.447
21286WAT     H164100   7.047   5.387   0.381
21286WAT     H264101   7.041   5.431   0.538
21287WAT      O64102   8.016   9.403   9.332
21287WAT     H164103   7.973   9.410   9.422
21287WAT     H264104   8.091   9.469   9.326
21288WAT      O64105   2.629   6.969   3.713
21288WAT     H164106   2.611   6.874   3.688
21288WAT     H264107   2.663   7.019   3.633
21289WAT      O64108   1.832   9.207   6.337
21289WAT     H164109   1.749   9.233   6.289
21289WAT     H264110   1.890   9.288   6.350
21290WAT      O64111   0.927   4.339   4.741
21290WAT     H164112   0.991   4.275   4.784
21290WAT     H264113   0.953   4.432   4.765
21291WAT      O64114   3.417   5.173   1.546
21291WAT     H164115   3.492   5.237   1.531
21291WAT     H264116   3.393   5.171   1.643
21292WAT      O64117   0.343   2.581   6.150
21292WAT     H164118   0.263   2.577   6.210
21292WAT     H264119   0.407   2.508   6.176
21293WAT      O64120   7.845   2.294   3.204
21293WAT     H164121   7.925   2.325   3.152
21293WAT     H264122   7.775   2.365   3.203
21294WAT      O64123   8.305   8.291   2.579
21294WAT     H164124   8.404   8.297   2.569
21294WAT     H264125   8.274   8.200   2.553
21295WAT      O64126   7.724   1.782   3.196
21295WAT     H164127   7.651   1.714   3.191
21295WAT     H264128   7.751   1.809   3.103
21296WAT      O64129   3.846   9.734   5.654
21296WAT     H164130   3.817   9.802   5.587
21296WAT     H264131   3.794   9.650   5.641
21297WAT      O64132   3.047   2.845   3.354
21297WAT     H164133   3.001   2.930   3.330
21297WAT     H264134   2.979   2.777   3.382
21298WAT      O64135   4.623   8.955   7.608
21298WAT     H164136   4.672   9.029   7.562
21298WAT     H264137   4.654   8.949   7.703
21299WAT      O64138   1.506   4.316   4.952
21299WAT     H164139   1.471   4.335   4.860
21299WAT     H264140   1.569   4.239   4.948
21300WAT      O64141   4.455   7.114   8.466
21300WAT     H164142   4.441   7.180   8.392
21300WAT     H264143   4.366   7.086   8.502
21301WAT      O64144   0.533   4.018   8.458
21301WAT     H164145   0.462   3.983   8.520
21301WAT     H264146   0.621   3.978   8.482
21302WAT      O64147   5.726   7.405   6.396
21302WAT     H164148   5.666   7.324   6.398
21302WAT     H264149   5.670   7.487   6.386
21303WAT      O64150   7.955   2.321   3.451
21303WAT     H164151   7.904   2.319   3.365
21303WAT     H264152   7.961   2.229   3.489
21304WAT      O64153   0.299   7.660   7.134
21304WAT     H164154   0.396   7.637   7.131
21304WAT     H264155   0.277   7.704   7.222
21305WAT      O64156   6.909   4.859   4.106
21305WAT     H164157   6.997   4.884   4.145
21305WAT     H264158   6.839   4.925   4.135
21306WAT      O64159   1.217   8.371   5.813
21306WAT     H164160   1.176   8.391   5.724
21306WAT     H264161   1.260   8.454   5.849
21307WAT      O64162   6.326   7.649   2.454
21307WAT     H164163   6.410   7.680   2.411
21307WAT     H264164   6.250   7.657   2.389
21308WAT      O64165   5.998   9.033   3.088
21308WAT     H164166   6.020   9.125   3.055
21308WAT     H264167   5.901   9.015   3.071
21309WAT      O64168   6.819   7.870   2.189
21309WAT     H164169   6.899   7.820   2.224
21309WAT     H264170   6.797   7.944   2.252
21310WAT      O64171   2.638   4.391   0.535
21310WAT     H164172   2.714   4.453   0.516
21310WAT     H264173   2.577   4.386   0.456
21311WAT      O64174   5.086   0.216   6.882
21311WAT     H164175   4.991   0.248   6.874
21311WAT     H264176   5.088   0.116   6.877
21312WAT      O64177   1.307   9.479   9.472
21312WAT     H164178   1.333   9.541   9.399
21312WAT     H264179   1.383   9.468   9.536
21313WAT      O64180   1.465   5.001   4.420
21313WAT     H164181   1.411   4.924   4.454
21313WAT     H264182   1.461   5.003   4.320
21314WAT      O64183   4.689   4.202   0.694
21314WAT     H164184   4.785   4.194   0.668
21314WAT     H264185   4.676   4.164   0.786
21315WAT      O64186   8.243   3.166   2.250
21315WAT     H164187   8.289   3.216   2.177
21315WAT     H264188   8.144   3.182   2.244
21316WAT      O64189   5.163   9.516   8.347
21316WAT     H164190   5.220   9.451   8.295
21316WAT     H264191   5.115   9.576   8.283
21317WAT      O64192   5.445   6.780   1.719
21317WAT     H164193   5.480   6.756   1.629
21317WAT     H264194   5.347   6.763   1.722
21318WAT      O64195   8.478   7.459   6.260
21318WAT     H164196   8.572   7.490   6.249
21318WAT     H264197   8.438   7.502   6.341
21319WAT      O64198   2.287   7.710   7.341
21319WAT     H164199   2.228   7.787   7.366
21319WAT     H264200   2.243   7.624   7.370
21320WAT      O64201   6.508   8.566   9.690
21320WAT     H164202   6.432   8.611   9.736
21320WAT     H264203   6.510   8.593   9.594
21321WAT      O64204   2.264   1.514   1.366
21321WAT     H164205   2.209   1.471   1.437
21321WAT     H264206   2.212   1.515   1.280
21322WAT      O64207   9.461   4.783   2.231
21322WAT     H164208   9.388   4.848   2.255
21322WAT     H264209   9.436   4.692   2.265
21323WAT      O64210   9.449   1.862   2.122
21323WAT     H164211   9.353   1.886   2.133
21323WAT     H264212   9.498   1.881   2.207
21324WAT      O64213   6.450   8.650   3.631
21324WAT     H164214   6.514   8.582   3.667
21324WAT     H264215   6.447   8.729   3.692
21325WAT      O64216   1.222   5.693   4.442
21325WAT     H164217   1.231   5.600   4.478
21325WAT     H264218   1.243   5.693   4.344
21326WAT      O64219   8.301   9.084   8.857
21326WAT     H164220   8.264   9.138   8.781
21326WAT     H264221   8.377   9.133   8.900
21327WAT      O64222   4.997   4.037   2.069
21327WAT     H164223   4.960   4.028   1.977
21327WAT     H264224   5.026   4.131   2.085
21328WAT      O64225   1.285   2.447   2.217
21328WAT     H164226   1.353   2.517   2.239
21328WAT     H264227   1.199   2.491   2.192
21329WAT      O64228   3.977   1.227   8.135
21329WAT     H164229   4.067   1.186   8.122
21329WAT     H264230   3.932   1.184   8.213
21330WAT      O64231   8.780   4.936   4.750
21330WAT     H164232   8.823   4.986   4.824
21330WAT     H264233   8.848   4.877   4.706
21331WAT      O64234   9.316   1.812   9.591
21331WAT     H164235   9.257   1.733   9.571
21331WAT     H264236   9.409   1.779   9.608
21332WAT      O64237   0.670   6.678   4.955
21332WAT     H164238   0.705   6.760   4.909
21332WAT     H264239   0.614   6.705   5.034
21333WAT      O64240   7.041   0.377   5.384
21333WAT     H164241   7.125   0.432   5.387
21333WAT     H264242   6.962   0.436   5.399
21334WAT      O64243   6.401   7.514   1.539
21334WAT     H164244   6.409   7.423   1.496
21334WAT     H264245   6.310   7.551   1.521
21335WAT      O64246   6.507   0.350   2.536
21335WAT     H164247   6.453   0.331   2.454
21335WAT     H264248   6.603   0.364   2.510
21336WAT      O64249   1.153   4.234   5.901
21336WAT     H164250   1.074   4.229   5.840
21336WAT     H264251   1.226   4.287   5.859
21337WAT      O64252   8.562   4.656   5.828
21337WAT     H164253   8.577   4.570   5.778
21337WAT     H264254   8.476   4.649   5.879
21338WAT      O64255   7.166   9.597   1.396
21338WAT     H164256   7.243   9.601   1.332
21338WAT     H264257   7.179   9.521   1.459
21339WAT      O64258   0.372   5.047   1.879
21339WAT     H164259   0.275   5.069   1.887
21339WAT     H264260   0.387   4.994   1.795
21340WAT      O64261   4.999   1.297   3.644
21340WAT     H164262   5.091   1.290   3.606
21340WAT     H264263   4.937   1.331   3.574
21341WAT      O64264   9.317   5.170   5.138
21341WAT     H164265   9.274   5.259   5.126
21341WAT     H264266   9.359   5.141   5.052
21342WAT      O64267   6.851   4.527   3.452
21342WAT     H164268   6.856   4.523   3.552
21342WAT     H264269   6.838   4.435   3.415
21343WAT      O64270   7.233   4.000   6.776
21343WAT     H164271   7.231   3.973   6.872
21343WAT     H264272   7.194   4.092   6.766
21344WAT      O64273   5.191   4.328   3.282
21344WAT     H164274   5.280   4.342   3.325
21344WAT     H264275   5.197   4.352   3.185
21345WAT      O64276   1.869   2.421   2.804
21345WAT     H164277   1.819   2.444   2.720
21345WAT     H264278   1.890   2.323   2.804
21346WAT      O64279   5.131   7.413   6.828
21346WAT     H164280   5.132   7.384   6.924
21346WAT     H264281   5.221   7.450   6.804
21347WAT      O64282   9.303   6.300   2.498
21347WAT     H164283   9.382   6.349   2.536
21347WAT     H264284   9.259   6.357   2.428
21348WAT      O64285   4.726   7.016   3.420
21348WAT     H164286   4.746   7.098   3.367
21348WAT     H264287   4.720   6.937   3.359
21349WAT      O64288   9.394   8.831   3.111
21349WAT     H164289   9.464   8.761   3.102
21349WAT     H264290   9.396   8.868   3.204
21350WAT      O64291   7.921   1.965   4.117
21350WAT     H164292   7.957   1.980   4.025
21350WAT     H264293   7.997   1.947   4.180
21351WAT      O64294   0.902   9.015   1.434
21351WAT     H164295   0.890   8.982   1.340
21351WAT     H264296   0.981   9.076   1.438
21352WAT      O64297   0.436   8.733   9.100
21352WAT     H164298   0.399   8.699   9.187
21352WAT     H264299   0.365   8.783   9.051
21353WAT      O64300   0.705   9.449   1.523
21353WAT     H164301   0.610   9.476   1.537
21353WAT     H264302   0.754   9.450   1.610
21354WAT      O64303   4.571   2.348   7.664
21354WAT     H164304   4.473   2.363   7.672
21354WAT     H264305   4.616   2.433   7.637
21355WAT      O64306   6.536   1.015   3.460
21355WAT     H164307   6.499   1.080   3.526
21355WAT     H264308   6.484   0.929   3.466
21356WAT      O64309   4.676   8.271   2.699
21356WAT     H164310   4.602   8.309   2.643
21356WAT     H264311   4.754   8.248   2.640
21357WAT      O64312   3.810   6.382   1.772
21357WAT     H164313   3.784   6.291   1.804
21357WAT     H264314   3.893   6.376   1.716
21358WAT      O64315   4.965   9.588   7.632
21358WAT     H164316   5.057   9.549   7.637
21358WAT     H264317   4.970   9.687   7.648
21359WAT      O64318   7.581   8.388   1.990
21359WAT     H164319   7.552   8.456   2.058
21359WAT     H264320   7.636   8.318   2.036
21360WAT      O64321   9.601   8.194   4.302
21360WAT     H164322   9.517   8.143   4.321
21360WAT     H264323   9.681   8.138   4.325
21361WAT      O64324   2.570   4.867   1.687
21361WAT     H164325   2.649   4.896   1.634
21361WAT     H264326   2.589   4.778   1.729
21362WAT      O64327   5.532   6.283   6.486
21362WAT     H164328   5.520   6.255   6.581
21362WAT     H264329   5.625   6.319   6.474
21363WAT      O64330   5.452   2.973   4.319
21363WAT     H164331   5.419   2.954   4.226
21363WAT     H264332   5.522   2.906   4.344
21364WAT      O64333   2.223   6.182   3.772
21364WAT     H164334   2.130   6.188   3.808
21364WAT     H264335   2.265   6.096   3.802
21365WAT      O64336   6.805   1.863   1.296
21365WAT     H164337   6.733   1.795   1.290
21365WAT     H264338   6.766   1.955   1.288
21366WAT      O64339   3.271   1.903   5.548
21366WAT     H164340   3.242   1.948   5.632
21366WAT     H264341   3.230   1.948   5.469
21367WAT      O64342   7.421   7.025   6.046
21367WAT     H164343   7.417   7.115   6.091
21367WAT     H264344   7.446   7.037   5.950
21368WAT      O64345   5.698   2.688   0.627
21368WAT     H164346   5.763   2.655   0.696
21368WAT     H264347   5.618   2.628   0.625
21369WAT      O64348   5.470   2.534   9.544
21369WAT     H164349   5.496   2.468   9.473
21369WAT     H264350   5.384   2.578   9.518
21370WAT      O64351   3.866   2.533   4.120
21370WAT     H164352   3.877   2.609   4.055
21370WAT     H264353   3.782   2.545   4.172
21371WAT      O64354   9.729   3.613   4.990
21371WAT     H164355   9.726   3.594   4.892
21371WAT     H264356   9.637   3.637   5.022
21372WAT      O64357   3.555   3.061   2.741
21372WAT     H164358   3.614   2.999   2.689
21372WAT     H264359   3.604   3.147   2.759
21373WAT      O64360   2.468   5.495   4.655
21373WAT     H164361   2.518   5.411   4.633
21373WAT     H264362   2.414   5.524   4.576
21374WAT      O64363   1.506   8.534   4.462
21374WAT     H164364   1.553   8.480   4.392
21374WAT     H264365   1.463   8.614   4.419
21375WAT      O64366   0.466   7.714   2.308
21375WAT     H164367   0.405   7.656   2.362
21375WAT     H264368   0.444   7.810   2.325
21376WAT      O64369   8.686   1.167   9.660
21376WAT     H164370   8.670   1.265   9.649
21376WAT     H264371   8.607   1.117   9.625
21377WAT      O64372   1.370   8.953   5.582
21377WAT     H164373   1.347   8.891   5.506
21377WAT     H264374   1.354   9.047   5.554
21378WAT      O64375   1.363   8.870   8.957
21378WAT     H164376   1.265   8.881   8.972
21378WAT     H264377   1.414   8.906   9.035
21379WAT      O64378   0.922   5.422   8.656
21379WAT     H164379   0.881   5.508   8.628
21379WAT     H264380   1.007   5.440   8.705
21380WAT      O64381   7.513   1.721   8.258
21380WAT     H164382   7.446   1.792   8.239
21380WAT     H264383   7.604   1.753   8.234
21381WAT      O64384   1.657   3.109   0.398
21381WAT     H164385   1.579   3.155   0.441
21381WAT     H264386   1.666   3.140   0.303
21382WAT      O64387   3.259   9.081   0.792
21382WAT     H164388   3.287   9.032   0.874
21382WAT     H264389   3.311   9.166   0.784
21383WAT      O64390   6.752   1.256   0.883
21383WAT     H164391   6.792   1.198   0.811
21383WAT     H264392   6.791   1.347   0.878
21384WAT      O64393   8.845   8.391   2.090
21384WAT     H164394   8.849   8.490   2.079
21384WAT     H264395   8.758   8.365   2.130
21385WAT      O64396   8.869   5.523   6.678
21385WAT     H164397   8.953   5.563   6.641
21385WAT     H264398   8.836   5.579   6.754
21386WAT      O64399   6.075   6.409   4.540
21386WAT     H164400   6.057   6.365   4.628
21386WAT     H264401   6.104   6.341   4.473
21387WAT      O64402   5.985   8.196   9.794
21387WAT     H164403   5.908   8.224   9.736
21387WAT     H264404   6.046   8.274   9.808
21388WAT      O64405   2.884   6.543   7.693
21388WAT     H164406   2.809   6.579   7.637
21388WAT     H264407   2.882   6.443   7.690
21389WAT      O64408   2.977   8.300   6.326
21389WAT     H164409   3.064   8.320   6.280
21389WAT     H264410   2.956   8.203   6.319
21390WAT      O64411   1.699   4.762   1.689
21390WAT     H164412   1.678   4.859   1.694
21390WAT     H264413   1.710   4.725   1.781
21391WAT      O64414   3.798   7.031   5.640
21391WAT     H164415   3.773   7.065   5.549
21391WAT     H264416   3.759   6.939   5.652
21392WAT      O64417   0.479   4.994   7.054
21392WAT     H164418   0.398   5.048   7.029
21392WAT     H264419   0.557   5.022   6.998
21393WAT      O64420   0.548   9.232   0.594
21393WAT     H164421   0.648   9.230   0.602
21393WAT     H264422   0.514   9.320   0.627
21394WAT      O64423   2.759   1.073   1.084
21394WAT     H164424   2.683   1.124   1.123
21394WAT     H264425   2.823   1.047   1.156
21395WAT      O64426   1.948   3.069   5.755
21395WAT     H164427   1.877   2.999   5.760
21395WAT     H264428   1.998   3.071   5.842
21396WAT      O64429   6.629   2.603   0.100
21396WAT     H164430   6.728   2.611   0.107
21396WAT     H264431   6.589   2.595   0.192
21397WAT      O64432   6.161   0.839   8.143
21397WAT     H164433   6.231   0.769   8.157
21397WAT     H264434   6.141   0.883   8.231
21398WAT      O64435   7.480   0.057   5.388
21398WAT     H164436   7.555   0.096   5.442
21398WAT     H264437   7.490   0.087   5.293
21399WAT      O64438   4.324   9.498   0.731
21399WAT     H164439   4.257   9.501   0.657
21399WAT     H264440   4.280   9.462   0.814
21400WAT      O64441   5.306   7.675   7.360
21400WAT     H164442   5.395   7.683   7.406
21400WAT     H264443   5.243   7.743   7.397
21401WAT      O64444   3.182   2.094   1.304
21401WAT     H164445   3.128   2.135   1.230
21401WAT     H264446   3.180   1.995   1.296
21402WAT      O64447   6.646   4.667   0.049
21402WAT     H164448   6.706   4.687   0.126
21402WAT     H264449   6.686   4.702  -0.035
21403WAT      O64450   8.448   5.547   5.311
21403WAT     H164451   8.425   5.634   5.268
21403WAT     H264452   8.544   5.525   5.292
21404WAT      O64453   8.296   9.075   9.209
21404WAT     H164454   8.361   9.012   9.252
21404WAT     H264455   8.344   9.136   9.147
21405WAT      O64456   4.108   8.182   8.972
21405WAT     H164457   4.050   8.254   8.934
21405WAT     H264458   4.081   8.165   9.067
21406WAT      O64459   1.582   8.288   9.838
21406WAT     H164460   1.651   8.308   9.909
21406WAT     H264461   1.491   8.308   9.874
21407WAT      O64462   4.552   0.781   3.411
21407WAT     H164463   4.552   0.755   3.508
21407WAT     H264464   4.643   0.817   3.387
21408WAT      O64465   6.121   3.702   3.829
21408WAT     H164466   6.189   3.668   3.765
21408WAT     H264467   6.102   3.799   3.810
21409WAT      O64468   2.339   4.905   0.263
21409WAT     H164469   2.271   4.913   0.336
21409WAT     H264470   2.386   4.992   0.251
21410WAT      O64471   3.160   7.862   8.154
21410WAT     H164472   3.181   7.843   8.250
21410WAT     H264473   3.081   7.923   8.148
21411WAT      O64474   6.423   0.810   2.103
21411WAT     H164475   6.403   0.830   2.199
21411WAT     H264476   6.493   0.739   2.097
21412WAT      O64477   5.426   6.545   0.986
21412WAT     H164478   5.406   6.513   0.893
21412WAT     H264479   5.514   6.509   1.015
21413WAT      O64480   9.332   0.691   0.757
21413WAT     H164481   9.368   0.704   0.665
21413WAT     H264482   9.232   0.681   0.752
21414WAT      O64483   5.986   5.760   8.055
21414WAT     H164484   5.954   5.843   8.008
21414WAT     H264485   5.910   5.720   8.106
21415WAT      O64486   8.740   1.765   3.795
21415WAT     H164487   8.779   1.733   3.709
21415WAT     H264488   8.808   1.754   3.868
21416WAT      O64489   6.131   2.757   0.832
21416WAT     H164490   6.109   2.692   0.904
21416WAT     H264491   6.203   2.819   0.864
21417WAT      O64492   8.568   8.233   4.275
21417WAT     H164493   8.529   8.304   4.216
21417WAT     H264494   8.581   8.270   4.367
21418WAT      O64495   8.050   2.063   2.996
21418WAT     H164496   7.973   2.121   3.022
21418WAT     H264497   8.110   2.048   3.074
21419WAT      O64498   7.966   5.716   6.814
21419WAT     H164499   8.039   5.739   6.750
21419WAT     H264500   7.877   5.721   6.768
21420WAT      O64501   2.171   6.569   0.807
21420WAT     H164502   2.172   6.596   0.711
21420WAT     H264503   2.234   6.625   0.859
21421WAT      O64504   8.766   8.897   1.759
21421WAT     H164505   8.732   8.813   1.716
21421WAT     H264506   8.846   8.876   1.814
21422WAT      O64507   6.310   5.420   3.989
21422WAT     H164508   6.387   5.408   3.927
21422WAT     H264509   6.288   5.333   4.033
21423WAT      O64510   9.446   0.694   2.938
21423WAT     H164511   9.357   0.665   2.974
21423WAT     H264512   9.515   0.625   2.961
21424WAT      O64513   9.220   6.065   4.809
21424WAT     H164514   9.284   6.059   4.732
21424WAT     H264515   9.197   6.161   4.825
21425WAT      O64516   4.470   3.031   8.168
21425WAT     H164517   4.469   3.131   8.156
21425WAT     H264518   4.432   3.008   8.257
21426WAT      O64519   1.940   7.389   4.914
21426WAT     H164520   2.010   7.455   4.886
21426WAT     H264521   1.871   7.380   4.842
21427WAT      O64522   9.807   7.262   2.408
21427WAT     H164523   9.707   7.270   2.409
21427WAT     H264524   9.843   7.315   2.330
21428WAT      O64525   9.572   3.861   1.342
21428WAT     H164526   9.583   3.922   1.420
21428WAT     H264527   9.619   3.900   1.262
21429WAT      O64528   7.208   9.430   7.961
21429WAT     H164529   7.184   9.391   8.049
21429WAT     H264530   7.263   9.365   7.909
21430WAT      O64531   8.911   0.974   8.871
21430WAT     H164532   8.956   1.061   8.854
21430WAT     H264533   8.855   0.981   8.954
21431WAT      O64534   5.314   7.361   2.806
21431WAT     H164535   5.227   7.374   2.854
21431WAT     H264536   5.384   7.335   2.871
21432WAT      O64537   0.210   0.534   2.756
21432WAT     H164538   0.247   0.515   2.847
21432WAT     H264539   0.223   0.631   2.735
21433WAT      O64540   0.745   1.933   3.525
21433WAT     H164541   0.843   1.932   3.504
21433WAT     H264542   0.701   1.854   3.483
21434WAT      O64543   2.571   1.067   7.558
21434WAT     H164544   2.594   1.164   7.555
21434WAT     H264545   2.614   1.019   7.482
21435WAT      O64546   9.699   1.538   3.343
21435WAT     H164547   9.664   1.479   3.416
21435WAT     H264548   9.793   1.566   3.365
21436WAT      O64549   9.092   3.980   4.505
21436WAT     H164550   9.010   3.926   4.486
21436WAT     H264551   9.076   4.075   4.478
21437WAT      O64552   7.977   1.536   5.746
21437WAT     H164553   8.074   1.516   5.751
21437WAT     H264554   7.924   1.456   5.775
21438WAT      O64555   2.643   7.464   2.435
21438WAT     H164556   2.585   7.436   2.359
21438WAT     H264557   2.736   7.481   2.402
21439WAT      O64558   8.578   8.749   9.647
21439WAT     H164559   8.530   8.837   9.643
21439WAT     H264560   8.532   8.683   9.587
21440WAT      O64561   5.285   1.493   8.770
21440WAT     H164562   5.328   1.433   8.838
21440WAT     H264563   5.240   1.438   8.701
21441WAT      O64564   1.890   4.199   2.187
21441WAT     H164565   1.804   4.149   2.170
21441WAT     H264566   1.870   4.292   2.217
21442WAT      O64567   6.541   1.482   2.854
21442WAT     H164568   6.487   1.409   2.896
21442WAT     H264569   6.638   1.462   2.865
21443WAT      O64570   4.715   2.298   2.791
21443WAT     H164571   4.696   2.327   2.885
21443WAT     H264572   4.682   2.368   2.728
21444WAT      O64573   4.858   2.979   2.217
21444WAT     H164574   4.844   3.049   2.288
21444WAT     H264575   4.839   3.018   2.127
21445WAT      O64576   2.241   0.672   0.576
21445WAT     H164577   2.156   0.724   0.586
21445WAT     H264578   2.221   0.574   0.583
21446WAT      O64579   3.046   5.728   1.475
21446WAT     H164580   3.077   5.730   1.380
21446WAT     H264581   2.961   5.675   1.481
21447WAT      O64582   9.599   1.814   1.915
21447WAT     H164583   9.527   1.832   1.982
21447WAT     H264584   9.688   1.834   1.956
21448WAT      O64585   9.085   6.130   8.190
21448WAT     H164586   9.008   6.097   8.136
21448WAT     H264587   9.163   6.148   8.130
21449WAT      O64588   9.744   2.890   6.320
21449WAT     H164589   9.678   2.938   6.378
21449WAT     H264590   9.696   2.830   6.257
21450WAT      O64591   9.838   0.693   6.025
21450WAT     H164592   9.871   0.604   6.056
21450WAT     H264593   9.884   0.718   5.939
21451WAT      O64594   4.970   6.672   3.159
21451WAT     H164595   5.000   6.753   3.210
21451WAT     H264596   5.051   6.622   3.127
21452WAT      O64597   7.926   9.330   1.813
21452WAT     H164598   7.945   9.310   1.717
21452WAT     H264599   7.828   9.320   1.830
21453WAT      O64600   5.320   0.596   1.625
21453WAT     H164601   5.243   0.542   1.661
21453WAT     H264602   5.295   0.693   1.626
21454WAT      O64603   1.595   6.286   3.597
21454WAT     H164604   1.547   6.240   3.523
21454WAT     H264605   1.692   6.262   3.595
21455WAT      O64606   8.888   5.017   4.992
21455WAT     H164607   8.971   5.020   5.048
21455WAT     H264608   8.808   5.031   5.051
21456WAT      O64609   9.520   8.109   0.457
21456WAT     H164610   9.501   8.144   0.365
21456WAT     H264611   9.570   8.023   0.450
21457WAT      O64612   3.996   2.423   8.596
21457WAT     H164613   4.087   2.452   8.569
21457WAT     H264614   3.928   2.467   8.538
21458WAT      O64615   7.678   7.467   6.162
21458WAT     H164616   7.768   7.509   6.174
21458WAT     H264617   7.688   7.378   6.117
21459WAT      O64618   8.329   2.247   1.386
21459WAT     H164619   8.250   2.208   1.339
21459WAT     H264620   8.306   2.265   1.481
21460WAT      O64621   1.156   3.485   9.001
21460WAT     H164622   1.102   3.415   8.954
21460WAT     H264623   1.241   3.501   8.951
21461WAT      O64624   5.221   3.848   1.336
21461WAT     H164625   5.237   3.800   1.250
21461WAT     H264626   5.194   3.943   1.317
21462WAT      O64627   6.033   8.077   7.434
21462WAT     H164628   5.933   8.079   7.442
21462WAT     H264629   6.067   7.989   7.468
21463WAT      O64630   3.736   3.323   9.844
21463WAT     H164631   3.807   3.366   9.901
21463WAT     H264632   3.655   3.306   9.900
21464WAT      O64633   9.471   7.434   6.524
21464WAT     H164634   9.554   7.453   6.575
21464WAT     H264635   9.467   7.494   6.444
21465WAT      O64636   8.543   4.172   1.169
21465WAT     H164637   8.576   4.130   1.085
21465WAT     H264638   8.443   4.179   1.165
21466WAT      O64639   0.664   2.514   3.694
21466WAT     H164640   0.649   2.579   3.768
21466WAT     H264641   0.709   2.560   3.617
21467WAT      O64642   0.656   6.760   5.364
21467WAT     H164643   0.736   6.733   5.310
21467WAT     H264644   0.621   6.681   5.414
21468WAT      O64645   8.945   3.625   8.805
21468WAT     H164646   9.043   3.609   8.820
21468WAT     H264647   8.894   3.584   8.880
21469WAT      O64648   4.004   4.271   7.287
21469WAT     H164649   3.982   4.291   7.191
21469WAT     H264650   3.942   4.201   7.322
21470WAT      O64651   1.893   5.748   6.252
21470WAT     H164652   1.826   5.796   6.308
21470WAT     H264653   1.875   5.765   6.155
21471WAT      O64654   2.351   8.294   5.985
21471WAT     H164655   2.318   8.304   5.891
21471WAT     H264656   2.451   8.283   5.984
21472WAT      O64657   5.644   2.262   5.316
21472WAT     H164658   5.590   2.331   5.268
21472WAT     H264659   5.638   2.176   5.266
21473WAT      O64660   8.580   3.046   6.241
21473WAT     H164661   8.494   3.061   6.289
21473WAT     H264662   8.606   2.950   6.249
21474WAT      O64663   5.931   1.434   6.898
21474WAT     H164664   6.022   1.477   6.894
21474WAT     H264665   5.897   1.438   6.991
21475WAT      O64666   9.132   5.192   2.133
21475WAT     H164667   9.169   5.277   2.169
21475WAT     H264668   9.199   5.149   2.072
21476WAT      O64669   8.131   6.808   6.332
21476WAT     H164670   8.128   6.882   6.399
21476WAT     H264671   8.045   6.807   6.281
21477WAT      O64672   1.461   3.057   8.410
21477WAT     H164673   1.443   2.966   8.446
21477WAT     H264674   1.549   3.090   8.444
21478WAT      O64675   4.265   6.859   6.190
21478WAT     H164676   4.203   6.889   6.119
21478WAT     H264677   4.234   6.893   6.279
21479WAT      O64678   8.230   4.059   5.074
21479WAT     H164679   8.312   4.060   5.132
21479WAT     H264680   8.215   4.150   5.035
21480WAT      O64681   3.791   6.336   4.761
21480WAT     H164682   3.879   6.380   4.776
21480WAT     H264683   3.783   6.256   4.821
21481WAT      O64684   6.810   4.285   4.344
21481WAT     H164685   6.831   4.363   4.402
21481WAT     H264686   6.827   4.309   4.248
21482WAT      O64687   2.080   4.925   1.678
21482WAT     H164688   2.047   5.017   1.697
21482WAT     H264689   2.032   4.888   1.598
21483WAT      O64690   8.242   4.129   7.582
21483WAT     H164691   8.238   4.203   7.516
21483WAT     H264692   8.287   4.050   7.541
21484WAT      O64693   5.739   9.657   9.425
21484WAT     H164694   5.752   9.721   9.501
21484WAT     H264695   5.822   9.654   9.369
21485WAT      O64696   6.271   1.577   9.732
21485WAT     H164697   6.234   1.610   9.819
21485WAT     H264698   6.219   1.498   9.701
21486WAT      O64699   9.302   0.558   1.655
21486WAT     H164700   9.285   0.652   1.686
21486WAT     H264701   9.219   0.521   1.614
21487WAT      O64702   8.413   2.334   1.115
21487WAT     H164703   8.412   2.411   1.179
21487WAT     H264704   8.327   2.284   1.122
21488WAT      O64705   3.714   7.302   5.844
21488WAT     H164706   3.729   7.238   5.770
21488WAT     H264707   3.666   7.256   5.919
21489WAT      O64708   9.104   2.040   5.759
21489WAT     H164709   9.015   2.073   5.727
21489WAT     H264710   9.136   1.968   5.698
21490WAT      O64711   5.463   4.538   3.026
21490WAT     H164712   5.368   4.521   3.050
21490WAT     H264713   5.500   4.458   2.978
21491WAT      O64714   1.083   8.530   7.760
21491WAT     H164715   0.989   8.495   7.760
21491WAT     H264716   1.141   8.468   7.813
21492WAT      O64717   2.404   8.772   6.976
21492WAT     H164718   2.414   8.762   7.075
21492WAT     H264719   2.478   8.828   6.940
21493WAT      O64720   3.883   9.325   1.512
21493WAT     H164721   3.977   9.354   1.531
21493WAT     H264722   3.883   9.261   1.435
21494WAT      O64723   3.122   4.193   3.035
21494WAT     H164724   3.044   4.198   3.098
21494WAT     H264725   3.089   4.192   2.941
21495WAT      O64726   3.017   1.138   4.491
21495WAT     H164727   3.044   1.229   4.523
21495WAT     H264728   3.017   1.137   4.391
21496WAT      O64729   2.631   9.695   3.491
21496WAT     H164730   2.642   9.675   3.394
21496WAT     H264731   2.708   9.752   3.522
21497WAT      O64732   7.220   1.078   0.255
21497WAT     H164733   7.174   1.128   0.328
21497WAT     H264734   7.152   1.032   0.197
21498WAT      O64735   6.442   4.073   5.210
21498WAT     H164736   6.419   4.118   5.297
21498WAT     H264737   6.515   4.124   5.165
21499WAT      O64738   9.128   1.164   8.288
21499WAT     H164739   9.161   1.081   8.242
21499WAT     H264740   9.044   1.143   8.337
21500WAT      O64741   7.625   9.468   7.374
21500WAT     H164742   7.719   9.436   7.389
21500WAT     H264743   7.593   9.519   7.454
21501WAT      O64744   1.048   4.078   6.909
21501WAT     H164745   1.093   3.992   6.885
21501WAT     H264746   1.017   4.073   7.004
21502WAT      O64747   1.318   1.113   2.837
21502WAT     H164748   1.370   1.053   2.898
21502WAT     H264749   1.352   1.206   2.845
21503WAT      O64750   4.848   6.259   5.885
21503WAT     H164751   4.788   6.333   5.913
21503WAT     H264752   4.941   6.277   5.916
21504WAT      O64753   0.056   6.981   7.340
21504WAT     H164754   0.128   7.005   7.275
21504WAT     H264755  -0.032   7.016   7.307
21505WAT      O64756   3.468   2.947   5.819
21505WAT     H164757   3.470   3.024   5.755
21505WAT     H264758   3.440   2.864   5.772
21506WAT      O64759   6.505   5.194   8.449
21506WAT     H164760   6.536   5.218   8.357
21506WAT     H264761   6.431   5.256   8.477
21507WAT      O64762   2.620   3.607   7.902
21507WAT     H164763   2.589   3.618   7.808
21507WAT     H264764   2.711   3.564   7.903
21508WAT      O64765   0.334   5.218   0.855
21508WAT     H164766   0.296   5.263   0.936
21508WAT     H264767   0.313   5.273   0.774
21509WAT      O64768   3.581   1.450   2.346
21509WAT     H164769   3.488   1.483   2.327
21509WAT     H264770   3.581   1.350   2.348
21510WAT      O64771   0.143   3.533   2.846
21510WAT     H164772   0.160   3.537   2.945
21510WAT     H264773   0.130   3.438   2.819
21511WAT      O64774   6.790   3.852   1.470
21511WAT     H164775   6.734   3.923   1.514
21511WAT     H264776   6.833   3.890   1.389
21512WAT      O64777   4.436   3.844   1.869
21512WAT     H164778   4.379   3.925   1.882
21512WAT     H264779   4.532   3.870   1.872
21513WAT      O64780   8.664   6.852   7.562
21513WAT     H164781   8.670   6.945   7.599
21513WAT     H264782   8.740   6.798   7.596
21514WAT      O64783   1.009   4.678   5.343
21514WAT     H164784   1.030   4.673   5.441
21514WAT     H264785   0.969   4.591   5.313
21515WAT      O64786   9.771   5.569   1.197
21515WAT     H164787   9.833   5.637   1.234
21515WAT     H264788   9.775   5.486   1.252
21516WAT      O64789   6.543   0.444   1.589
21516WAT     H164790   6.529   0.351   1.623
21516WAT     H264791   6.459   0.477   1.546
21517WAT      O64792   2.617   0.824   5.919
21517WAT     H164793   2.708   0.865   5.917
21517WAT     H264794   2.624   0.728   5.890
21518WAT      O64795   5.607   8.485   1.161
21518WAT     H164796   5.586   8.583   1.166
21518WAT     H264797   5.632   8.452   1.252
21519WAT      O64798   5.344   6.640   8.154
21519WAT     H164799   5.441   6.616   8.149
21519WAT     H264800   5.299   6.579   8.218
21520WAT      O64801   4.783   0.272   0.053
21520WAT     H164802   4.755   0.213  -0.022
21520WAT     H264803   4.879   0.298   0.042
21521WAT      O64804   6.255   4.794   8.901
21521WAT     H164805   6.306   4.794   8.815
21521WAT     H264806   6.284   4.872   8.956
21522WAT      O64807   3.376   7.643   9.164
21522WAT     H164808   3.416   7.675   9.250
21522WAT     H264809   3.350   7.547   9.173
21523WAT      O64810   7.809   2.890   6.779
21523WAT     H164811   7.787   2.819   6.846
21523WAT     H264812   7.751   2.878   6.698
21524WAT      O64813   3.407   3.544   8.773
21524WAT     H164814   3.365   3.512   8.858
21524WAT     H264815   3.338   3.587   8.716
21525WAT      O64816   1.365   3.197   1.147
21525WAT     H164817   1.381   3.102   1.121
21525WAT     H264818   1.333   3.248   1.067
21526WAT      O64819   6.564   6.176   7.521
21526WAT     H164820   6.530   6.083   7.535
21526WAT     H264821   6.514   6.219   7.446
21527WAT      O64822   7.971   0.291   2.053
21527WAT     H164823   7.900   0.293   1.983
21527WAT     H264824   8.044   0.228   2.025
21528WAT      O64825   3.393   1.559   7.933
21528WAT     H164826   3.400   1.594   8.027
21528WAT     H264827   3.485   1.537   7.900
21529WAT      O64828   7.492   9.396   1.140
21529WAT     H164829   7.410   9.452   1.153
21529WAT     H264830   7.484   9.345   1.054
21530WAT      O64831   9.506   7.463   0.656
21530WAT     H164832   9.468   7.468   0.748
21530WAT     H264833   9.591   7.516   0.652
21531WAT      O64834   0.236   7.998   8.046
21531WAT     H164835   0.249   7.975   7.949
21531WAT     H264836   0.295   7.939   8.102
21532WAT      O64837   4.082   9.008   9.164
21532WAT     H164838   4.081   9.001   9.263
21532WAT     H264839   4.045   9.097   9.136
21533WAT      O64840   3.350   4.970   2.767
21533WAT     H164841   3.364   4.978   2.865
21533WAT     H264842   3.435   4.941   2.723
21534WAT      O64843   2.579   0.322   0.540
21534WAT     H164844   2.484   0.301   0.517
21534WAT     H264845   2.618   0.383   0.471
21535WAT      O64846   8.572   8.952   7.229
21535WAT     H164847   8.490   8.952   7.171
21535WAT     H264848   8.548   8.924   7.322
21536WAT      O64849   6.280   2.452   2.918
21536WAT     H164850   6.351   2.482   2.981
21536WAT     H264851   6.289   2.354   2.901
21537WAT      O64852   8.766   1.139   0.338
21537WAT     H164853   8.857   1.137   0.297
21537WAT     H264854   8.753   1.226   0.387
21538WAT      O64855   9.619   2.106   4.109
21538WAT     H164856   9.601   2.086   4.013
21538WAT     H264857   9.713   2.083   4.132
21539WAT      O64858   7.966   5.148   9.194
21539WAT     H164859   7.911   5.093   9.257
21539WAT     H264860   7.962   5.108   9.102
21540WAT      O64861   8.336   9.643   2.438
21540WAT     H164862   8.262   9.709   2.447
21540WAT     H264863   8.308   9.556   2.480
21541WAT      O64864   7.930   1.397   2.997
21541WAT     H164865   7.939   1.416   2.899
21541WAT     H264866   8.016   1.417   3.043
21542WAT      O64867   1.895   3.012   7.216
21542WAT     H164868   1.988   3.002   7.251
21542WAT     H264869   1.832   3.026   7.292
21543WAT      O64870   5.253   6.439   1.190
21543WAT     H164871   5.313   6.361   1.208
21543WAT     H264872   5.294   6.497   1.120
21544WAT      O64873   2.234   3.113   1.263
21544WAT     H164874   2.316   3.056   1.275
21544WAT     H264875   2.213   3.120   1.166
21545WAT      O64876   8.688   4.374   7.580
21545WAT     H164877   8.773   4.395   7.532
21545WAT     H264878   8.708   4.317   7.660
21546WAT      O64879   5.937   0.601   9.764
21546WAT     H164880   6.035   0.584   9.768
21546WAT     H264881   5.919   0.678   9.703
21547WAT      O64882   8.744   1.555   8.036
21547WAT     H164883   8.650   1.583   8.015
21547WAT     H264884   8.751   1.456   8.031
21548WAT      O64885   5.366   4.605   9.542
21548WAT     H164886   5.272   4.632   9.522
21548WAT     H264887   5.391   4.526   9.486
21549WAT      O64888   5.025   5.827   5.466
21549WAT     H164889   5.015   5.845   5.564
21549WAT     H264890   5.122   5.815   5.444
21550WAT      O64891   6.321   2.319   5.330
21550WAT     H164892   6.322   2.219   5.320
21550WAT     H264893   6.226   2.351   5.327
21551WAT      O64894   8.206   9.570   6.975
21551WAT     H164895   8.179   9.547   7.069
21551WAT     H264896   8.242   9.662   6.972
21552WAT      O64897   6.340   4.494   7.920
21552WAT     H164898   6.315   4.460   7.829
21552WAT     H264899   6.260   4.493   7.980
21553WAT      O64900   1.807   2.700   2.434
21553WAT     H164901   1.778   2.770   2.501
21553WAT     H264902   1.843   2.745   2.353
21554WAT      O64903   8.894   4.912   1.981
21554WAT     H164904   8.982   4.948   2.012
21554WAT     H264905   8.899   4.812   1.977
21555WAT      O64906   3.953   2.723   6.369
21555WAT     H164907   3.962   2.648   6.435
21555WAT     H264908   4.043   2.759   6.347
21556WAT      O64909   3.160   6.249   4.170
21556WAT     H164910   3.228   6.263   4.243
21556WAT     H264911   3.086   6.315   4.181
21557WAT      O64912   9.715   0.902   2.267
21557WAT     H164913   9.809   0.868   2.276
21557WAT     H264914   9.679   0.881   2.177
21558WAT      O64915   1.164   2.067   8.044
21558WAT     H164916   1.175   2.127   7.965
21558WAT     H264917   1.166   1.972   8.015
21559WAT      O64918   0.564   0.474   5.233
21559WAT     H164919   0.473   0.436   5.251
21559WAT     H264920   0.555   0.559   5.181
21560WAT      O64921   3.665   5.511   2.672
21560WAT     H164922   3.669   5.470   2.581
21560WAT     H264923   3.752   5.495   2.719
21561WAT      O64924   1.770   9.497   8.190
21561WAT     H164925   1.747   9.440   8.269
21561WAT     H264926   1.854   9.548   8.209
21562WAT      O64927   7.547   9.103   4.361
21562WAT     H164928   7.504   9.191   4.343
21562WAT     H264929   7.549   9.049   4.277
21563WAT      O64930   2.291   5.460   0.528
21563WAT     H164931   2.225   5.496   0.594
21563WAT     H264932   2.379   5.505   0.542
21564WAT      O64933   0.861   1.606   4.245
21564WAT     H164934   0.904   1.658   4.319
21564WAT     H264935   0.931   1.578   4.179
21565WAT      O64936   3.424   6.252   9.710
21565WAT     H164937   3.423   6.155   9.687
21565WAT     H264938   3.346   6.273   9.769
21566WAT      O64939   1.600   5.597   2.028
21566WAT     H164940   1.631   5.673   1.970
21566WAT     H264941   1.678   5.538   2.049
21567WAT      O64942   9.213   6.951   4.787
21567WAT     H164943   9.282   6.879   4.778
21567WAT     H264944   9.136   6.916   4.839
21568WAT      O64945   6.543   3.552   6.415
21568WAT     H164946   6.479   3.585   6.346
21568WAT     H264947   6.505   3.569   6.506
21569WAT      O64948   9.357   2.510   4.376
21569WAT     H164949   9.346   2.453   4.458
21569WAT     H264950   9.358   2.451   4.295
21570WAT      O64951   5.028   6.267   4.202
21570WAT     H164952   4.995   6.202   4.134
21570WAT     H264953   5.005   6.235   4.293
21571WAT      O64954   7.232   2.242   8.441
21571WAT     H164955   7.187   2.220   8.355
21571WAT     H264956   7.310   2.302   8.424
21572WAT      O64957   5.664   0.168   6.069
21572WAT     H164958   5.671   0.198   5.974
21572WAT     H264959   5.570   0.182   6.101
21573WAT      O64960   2.465   3.201   3.901
21573WAT     H164961   2.538   3.255   3.945
21573WAT     H264962   2.472   3.106   3.931
21574WAT      O64963   4.803   4.512   5.646
21574WAT     H164964   4.813   4.443   5.575
21574WAT     H264965   4.829   4.602   5.610
21575WAT      O64966   9.102   7.465   7.974
21575WAT     H164967   9.015   7.428   7.942
21575WAT     H264968   9.144   7.519   7.901
21576WAT      O64969   4.704   6.501   6.851
21576WAT     H164970   4.748   6.490   6.940
21576WAT     H264971   4.656   6.416   6.827
21577WAT      O64972   5.985   3.167   7.668
21577WAT     H164973   6.014   3.088   7.613
21577WAT     H264974   5.886   3.177   7.662
21578WAT      O64975   8.644   1.988   1.733
21578WAT     H164976   8.617   2.083   1.752
21578WAT     H264977   8.744   1.981   1.739
21579WAT      O64978   6.868   4.516   3.748
21579WAT     H164979   6.887   4.614   3.747
21579WAT     H264980   6.943   4.467   3.791
21580WAT      O64981   3.314   2.537   7.746
21580WAT     H164982   3.229   2.507   7.789
21580WAT     H264983   3.393   2.503   7.797
21581WAT      O64984   3.082   1.727   2.166
21581WAT     H164985   3.106   1.635   2.135
21581WAT     H264986   2.988   1.747   2.139
21582WAT      O64987   3.833   5.162   7.031
21582WAT     H164988   3.740   5.138   7.002
21582WAT     H264989   3.885   5.078   7.046
21583WAT      O64990   1.797   3.264   6.135
21583WAT     H164991   1.830   3.339   6.078
21583WAT     H264992   1.759   3.192   6.077
21584WAT      O64993   5.466   4.917   9.652
21584WAT     H164994   5.462   5.012   9.621
21584WAT     H264995   5.439   4.912   9.748
21585WAT      O64996   7.934   7.665   8.587
21585WAT     H164997   7.857   7.727   8.574
21585WAT     H264998   8.016   7.718   8.609
21586WAT      O64999   5.874   3.266   7.024
21586WAT     H165000   5.921   3.209   7.091
21586WAT     H265001   5.940   3.300   6.957
21587WAT      O65002   5.672   2.571   0.378
21587WAT     H165003   5.705   2.619   0.460
21587WAT     H265004   5.572   2.564   0.382
21588WAT      O65005   8.570   8.149   1.056
21588WAT     H165006   8.527   8.171   0.968
21588WAT     H265007   8.565   8.051   1.072
21589WAT      O65008   9.442   9.049   5.077
21589WAT     H165009   9.377   9.124   5.064
21589WAT     H265010   9.529   9.072   5.032
21590WAT      O65011   5.637   7.703   4.647
21590WAT     H165012   5.677   7.790   4.673
21590WAT     H265013   5.622   7.647   4.729
21591WAT      O65014   7.109   2.201   8.699
21591WAT     H165015   7.147   2.238   8.614
21591WAT     H265016   7.177   2.206   8.771
21592WAT      O65017   3.940   5.082   2.614
21592WAT     H165018   4.022   5.139   2.608
21592WAT     H265019   3.860   5.141   2.628
21593WAT      O65020   5.991   7.494   1.913
21593WAT     H165021   6.091   7.499   1.919
21593WAT     H265022   5.961   7.403   1.943
21594WAT      O65023   8.560   0.260   6.511
21594WAT     H165024   8.637   0.322   6.500
21594WAT     H265025   8.566   0.214   6.599
21595WAT      O65026   8.677   4.424   4.887
21595WAT     H165027   8.592   4.377   4.860
21595WAT     H265028   8.654   4.506   4.939
21596WAT      O65029   9.572   1.393   7.806
21596WAT     H165030   9.660   1.400   7.759
21596WAT     H265031   9.498   1.414   7.742
21597WAT      O65032   2.130   7.817   6.008
21597WAT     H165033   2.082   7.803   5.922
21597WAT     H265034   2.225   7.789   5.998
21598WAT      O65035   9.580   2.725   3.211
21598WAT     H165036   9.553   2.765   3.123
21598WAT     H265037   9.528   2.641   3.226
21599WAT      O65038   7.610   4.144   1.684
21599WAT     H165039   7.602   4.045   1.669
21599WAT     H265040   7.531   4.190   1.643
21600WAT      O65041   5.373   9.571   8.539
21600WAT     H165042   5.332   9.569   8.631
21600WAT     H265043   5.304   9.545   8.472
21601WAT      O65044   0.295   5.795   0.027
21601WAT     H165045   0.235   5.835   0.096
21601WAT     H265046   0.333   5.709   0.061
21602WAT      O65047   1.261   0.193   5.925
21602WAT     H165048   1.193   0.211   5.854
21602WAT     H265049   1.214   0.168   6.010
21603WAT      O65050   4.780   4.994   0.094
21603WAT     H165051   4.872   4.963   0.070
21603WAT     H265052   4.729   5.012   0.010
21604WAT      O65053   2.831   1.627   7.443
21604WAT     H165054   2.799   1.549   7.390
21604WAT     H265055   2.930   1.623   7.453
21605WAT      O65056   5.176   9.383   7.697
21605WAT     H165057   5.114   9.310   7.666
21605WAT     H265058   5.242   9.404   7.624
21606WAT      O65059   9.828   8.925   6.580
21606WAT     H165060   9.738   8.965   6.566
21606WAT     H265061   9.820   8.825   6.579
21607WAT      O65062   0.705   6.378   3.778
21607WAT     H165063   0.713   6.365   3.680
21607WAT     H265064   0.762   6.455   3.807
21608WAT      O65065   7.101   8.922   2.789
21608WAT     H165066   7.114   9.001   2.849
21608WAT     H265067   7.150   8.937   2.703
21609WAT      O65068   0.254   4.684   6.681
21609WAT     H165069   0.247   4.647   6.773
21609WAT     H265070   0.322   4.757   6.680
21610WAT      O65071   9.822   3.111   6.006
21610WAT     H165072   9.911   3.083   6.041
21610WAT     H265073   9.762   3.134   6.083
21611WAT      O65074   4.194   3.025   9.681
21611WAT     H165075   4.178   3.115   9.640
21611WAT     H265076   4.205   3.034   9.779
21612WAT      O65077   7.446   8.824   3.338
21612WAT     H165078   7.377   8.885   3.299
21612WAT     H265079   7.483   8.765   3.266
21613WAT      O65080   5.989   7.215   7.379
21613WAT     H165081   6.027   7.299   7.417
21613WAT     H265082   5.915   7.182   7.437
21614WAT      O65083   5.261   2.026   3.873
21614WAT     H165084   5.228   2.057   3.962
21614WAT     H265085   5.313   2.100   3.830
21615WAT      O65086   4.982   5.004   1.723
21615WAT     H165087   4.969   4.914   1.680
21615WAT     H265088   5.018   4.991   1.815
21616WAT      O65089   3.330   3.919   5.386
21616WAT     H165090   3.286   4.000   5.347
21616WAT     H265091   3.354   3.937   5.481
21617WAT      O65092   8.937   4.659   2.549
21617WAT     H165093   8.862   4.607   2.507
21617WAT     H265094   8.986   4.709   2.477
21618WAT      O65095   1.583   4.435   3.458
21618WAT     H165096   1.611   4.362   3.521
21618WAT     H265097   1.554   4.515   3.510
21619WAT      O65098   4.802   3.928   0.631
21619WAT     H165099   4.858   3.994   0.582
21619WAT     H265100   4.775   3.967   0.720
21620WAT      O65101   5.692   1.001   0.447
21620WAT     H165102   5.734   1.092   0.443
21620WAT     H265103   5.614   0.998   0.385
21621WAT      O65104   4.794   0.203   4.573
21621WAT     H165105   4.859   0.232   4.502
21621WAT     H265106   4.838   0.209   4.662
21622WAT      O65107   4.266   9.242   2.277
21622WAT     H165108   4.364   9.228   2.294
21622WAT     H265109   4.251   9.335   2.243
21623WAT      O65110   9.591   6.246   0.408
21623WAT     H165111   9.493   6.232   0.412
21623WAT     H265112   9.616   6.285   0.318
21624WAT      O65113   3.841   2.363   7.820
21624WAT     H165114   3.843   2.299   7.897
21624WAT     H265115   3.872   2.453   7.851
21625WAT      O65116   5.710   2.661   4.211
21625WAT     H165117   5.674   2.654   4.304
21625WAT     H265118   5.731   2.757   4.190
21626WAT      O65119   0.363   9.039   3.445
21626WAT     H165120   0.272   9.035   3.486
21626WAT     H265121   0.432   9.027   3.517
21627WAT      O65122   7.194   3.788   7.235
21627WAT     H165123   7.207   3.757   7.330
21627WAT     H265124   7.103   3.828   7.226
21628WAT      O65125   5.633   5.535   7.068
21628WAT     H165126   5.706   5.485   7.115
21628WAT     H265127   5.545   5.513   7.110
21629WAT      O65128   3.781   4.691   4.433
21629WAT     H165129   3.683   4.703   4.447
21629WAT     H265130   3.830   4.771   4.467
21630WAT      O65131   5.708   1.098   3.976
21630WAT     H165132   5.679   1.194   3.978
21630WAT     H265133   5.628   1.039   3.989
21631WAT      O65134   8.421   2.763   8.895
21631WAT     H165135   8.471   2.775   8.809
21631WAT     H265136   8.340   2.821   8.895
21632WAT      O65137   4.330   3.747   6.934
21632WAT     H165138   4.373   3.837   6.926
21632WAT     H265139   4.283   3.740   7.022
21633WAT      O65140   3.986   8.749   5.847
21633WAT     H165141   4.033   8.686   5.909
21633WAT     H265142   3.946   8.824   5.899
21634WAT      O65143   5.609   3.844   9.501
21634WAT     H165144   5.563   3.911   9.560
21634WAT     H265145   5.697   3.882   9.471
21635WAT      O65146   9.581   1.880   6.891
21635WAT     H165147   9.661   1.936   6.870
21635WAT     H265148   9.594   1.788   6.856
21636WAT      O65149   6.146   7.168   6.818
21636WAT     H165150   6.210   7.122   6.879
21636WAT     H265151   6.186   7.254   6.786
21637WAT      O65152   1.211   0.781   0.153
21637WAT     H165153   1.142   0.830   0.208
21637WAT     H265154   1.181   0.687   0.139
21638WAT      O65155   9.248   0.488   7.283
21638WAT     H165156   9.331   0.459   7.236
21638WAT     H265157   9.169   0.444   7.241
21639WAT      O65158   2.964   5.225   2.245
21639WAT     H165159   3.016   5.308   2.265
21639WAT     H265160   2.920   5.235   2.155
21640WAT      O65161   9.634   3.249   5.005
21640WAT     H165162   9.690   3.322   5.043
21640WAT     H265163   9.554   3.288   4.959
21641WAT      O65164   0.112   8.929   7.422
21641WAT     H165165   0.101   8.986   7.504
21641WAT     H265166   0.081   8.980   7.342
21642WAT      O65167   6.281   3.552   4.209
21642WAT     H165168   6.286   3.484   4.136
21642WAT     H265169   6.208   3.528   4.273
21643WAT      O65170   1.089   9.709   1.412
21643WAT     H165171   0.990   9.720   1.405
21643WAT     H265172   1.122   9.757   1.494
21644WAT      O65173   6.133   3.814   5.337
21644WAT     H165174   6.115   3.853   5.428
21644WAT     H265175   6.231   3.810   5.321
21645WAT      O65176   3.989   3.914   3.660
21645WAT     H165177   3.990   3.870   3.570
21645WAT     H265178   3.965   3.847   3.730
21646WAT      O65179   3.722   6.762   5.637
21646WAT     H165180   3.691   6.683   5.584
21646WAT     H265181   3.745   6.733   5.730
21647WAT      O65182   0.071   9.084   6.803
21647WAT     H165183   0.005   9.034   6.747
21647WAT     H265184   0.080   9.039   6.892
21648WAT      O65185   0.814   2.406   0.082
21648WAT     H165186   0.912   2.397   0.064
21648WAT     H265187   0.770   2.317   0.066
21649WAT      O65188   5.810   0.232   9.523
21649WAT     H165189   5.771   0.321   9.546
21649WAT     H265190   5.893   0.245   9.469
21650WAT      O65191   4.498   3.819   3.110
21650WAT     H165192   4.571   3.848   3.172
21650WAT     H265193   4.478   3.722   3.125
21651WAT      O65194   1.311   6.828   2.641
21651WAT     H165195   1.296   6.765   2.717
21651WAT     H265196   1.320   6.776   2.556
21652WAT      O65197   4.245   5.641   8.206
21652WAT     H165198   4.151   5.630   8.174
21652WAT     H265199   4.301   5.679   8.132
21653WAT      O65200   9.832   9.028   7.190
21653WAT     H165201   9.775   9.063   7.265
21653WAT     H265202   9.798   8.938   7.162
21654WAT      O65203   8.293   6.323   3.816
21654WAT     H165204   8.258   6.229   3.822
21654WAT     H265205   8.332   6.349   3.905
21655WAT      O65206   8.082   3.812   5.942
21655WAT     H165207   8.078   3.857   5.853
21655WAT     H265208   7.995   3.824   5.989
21656WAT      O65209   1.469   7.281   5.697
21656WAT     H165210   1.438   7.329   5.779
21656WAT     H265211   1.558   7.317   5.668
21657WAT      O65212   8.298   2.452   4.288
21657WAT     H165213   8.362   2.445   4.365
21657WAT     H265214   8.293   2.548   4.258
21658WAT      O65215   9.428   2.205   7.020
21658WAT     H165216   9.524   2.178   7.028
21658WAT     H265217   9.395   2.239   7.108
21659WAT      O65218   4.991   8.898   2.852
21659WAT     H165219   4.951   8.911   2.943
21659WAT     H265220   4.982   8.802   2.826
21660WAT      O65221   1.962   1.612   4.375
21660WAT     H165222   1.945   1.514   4.379
21660WAT     H265223   1.875   1.660   4.364
21661WAT      O65224   7.328   4.238   4.578
21661WAT     H165225   7.356   4.233   4.674
21661WAT     H265226   7.246   4.296   4.570
21662WAT      O65227   8.811   4.346   7.895
21662WAT     H165228   8.786   4.421   7.956
21662WAT     H265229   8.850   4.271   7.948
21663WAT      O65230   9.385   5.342   8.225
21663WAT     H165231   9.333   5.415   8.269
21663WAT     H265232   9.461   5.382   8.173
21664WAT      O65233   0.601   9.380   0.180
21664WAT     H165234   0.692   9.407   0.212
21664WAT     H265235   0.566   9.451   0.118
21665WAT      O65236   1.848   4.509   2.630
21665WAT     H165237   1.817   4.436   2.570
21665WAT     H265238   1.770   4.543   2.683
21666WAT      O65239   9.160   5.819   9.157
21666WAT     H165240   9.096   5.744   9.176
21666WAT     H265241   9.254   5.785   9.163
21667WAT      O65242   3.050   4.916   9.645
21667WAT     H165243   3.113   4.993   9.644
21667WAT     H265244   2.956   4.950   9.645
21668WAT      O65245   8.047   0.623   2.774
21668WAT     H165246   8.056   0.543   2.714
21668WAT     H265247   7.984   0.688   2.733
21669WAT      O65248   0.799   4.638   7.102
21669WAT     H165249   0.722   4.632   7.039
21669WAT     H265250   0.844   4.727   7.092
21670WAT      O65251   1.177   7.532   8.738
21670WAT     H165252   1.139   7.499   8.825
21670WAT     H265253   1.116   7.601   8.699
21671WAT      O65254   1.531   6.932   8.400
21671WAT     H165255   1.453   6.907   8.457
21671WAT     H265256   1.514   7.021   8.357
21672WAT      O65257   9.547   7.209   1.114
21672WAT     H165258   9.605   7.270   1.060
21672WAT     H265259   9.451   7.233   1.100
21673WAT      O65260   7.644   9.189   0.294
21673WAT     H165261   7.652   9.286   0.321
21673WAT     H265262   7.547   9.162   0.297
21674WAT      O65263   4.905   2.753   0.168
21674WAT     H165264   4.962   2.761   0.249
21674WAT     H265265   4.814   2.720   0.193
21675WAT      O65266   0.154   9.375   2.753
21675WAT     H165267   0.207   9.344   2.832
21675WAT     H265268   0.182   9.325   2.672
21676WAT      O65269   1.078   5.192   7.326
21676WAT     H165270   1.069   5.138   7.410
21676WAT     H265271   1.009   5.163   7.260
21677WAT      O65272   0.861   8.476   7.477
21677WAT     H165273   0.942   8.535   7.476
21677WAT     H265274   0.786   8.523   7.523
21678WAT      O65275   0.296   8.881   5.316
21678WAT     H165276   0.300   8.788   5.279
21678WAT     H265277   0.200   8.906   5.333
21679WAT      O65278   6.978   2.531   3.595
21679WAT     H165279   6.913   2.585   3.648
21679WAT     H265280   6.932   2.490   3.517
21680WAT      O65281   7.377   7.568   3.616
21680WAT     H165282   7.380   7.666   3.634
21680WAT     H265283   7.356   7.552   3.520
21681WAT      O65284   5.026   9.678   3.092
21681WAT     H165285   5.113   9.728   3.100
21681WAT     H265286   5.040   9.583   3.119
21682WAT      O65287   3.590   3.942   1.257
21682WAT     H165288   3.614   3.846   1.273
21682WAT     H265289   3.572   3.955   1.159
21683WAT      O65290   7.495   6.711   1.581
21683WAT     H165291   7.511   6.648   1.657
21683WAT     H265292   7.411   6.686   1.533
21684WAT      O65293   4.410   6.042   9.647
21684WAT     H165294   4.328   6.037   9.705
21684WAT     H265295   4.388   6.005   9.556
21685WAT      O65296   3.862   2.895   9.381
21685WAT     H165297   3.899   2.916   9.471
21685WAT     H265298   3.856   2.980   9.328
21686WAT      O65299   3.977   3.616   7.878
21686WAT     H165300   4.058   3.658   7.836
21686WAT     H265301   3.944   3.541   7.820
21687WAT      O65302   1.576   5.951   0.646
21687WAT     H165303   1.595   5.853   0.649
21687WAT     H265304   1.616   5.995   0.727
21688WAT      O65305   8.814   5.164   4.374
21688WAT     H165306   8.848   5.253   4.406
21688WAT     H265307   8.826   5.157   4.275
21689WAT      O65308   6.732   8.758   0.998
21689WAT     H165309   6.788   8.776   0.917
21689WAT     H265310   6.665   8.833   1.008
21690WAT      O65311   2.293   7.328   8.928
21690WAT     H165312   2.234   7.376   8.863
21690WAT     H265313   2.275   7.230   8.922
21691WAT      O65314   2.551   6.842   7.372
21691WAT     H165315   2.562   6.778   7.448
21691WAT     H265316   2.454   6.863   7.360
21692WAT      O65317   8.116   0.379   8.765
21692WAT     H165318   8.211   0.354   8.746
21692WAT     H265319   8.096   0.468   8.724
21693WAT      O65320   4.508   2.744   7.842
21693WAT     H165321   4.422   2.775   7.882
21693WAT     H265322   4.546   2.669   7.897
21694WAT      O65323   4.191   3.433   8.652
21694WAT     H165324   4.166   3.424   8.555
21694WAT     H265325   4.201   3.530   8.675
21695WAT      O65326   8.496   2.777   6.077
21695WAT     H165327   8.577   2.786   6.134
21695WAT     H265328   8.493   2.851   6.010
21696WAT      O65329   5.432   9.179   7.613
21696WAT     H165330   5.409   9.272   7.586
21696WAT     H265331   5.527   9.175   7.643
21697WAT      O65332   9.759   1.269   1.673
21697WAT     H165333   9.766   1.311   1.764
21697WAT     H265334   9.811   1.324   1.607
21698WAT      O65335   8.087   0.569   9.781
21698WAT     H165336   8.090   0.668   9.796
21698WAT     H265337   8.140   0.547   9.699
21699WAT      O65338   0.509   6.802   2.220
21699WAT     H165339   0.525   6.727   2.156
21699WAT     H265340   0.595   6.824   2.267
21700WAT      O65341   1.914   3.951   8.612
21700WAT     H165342   1.937   3.996   8.526
21700WAT     H265343   1.997   3.936   8.665
21701WAT      O65344   9.300   2.748   5.427
21701WAT     H165345   9.303   2.749   5.327
21701WAT     H265346   9.384   2.788   5.464
21702WAT      O65347   0.017   5.507   1.484
21702WAT     H165348   0.094   5.504   1.548
21702WAT     H265349  -0.008   5.414   1.459
21703WAT      O65350   9.575   2.098   7.989
21703WAT     H165351   9.555   2.038   7.911
21703WAT     H265352   9.490   2.122   8.035
21704WAT      O65353   8.177   1.508   3.500
21704WAT     H165354   8.151   1.429   3.443
21704WAT     H265355   8.184   1.589   3.442
21705WAT      O65356   3.073   4.146   3.977
21705WAT     H165357   3.099   4.180   3.886
21705WAT     H265358   2.976   4.166   3.994
21706WAT      O65359   1.551   5.646   5.147
21706WAT     H165360   1.607   5.694   5.215
21706WAT     H265361   1.578   5.675   5.055
21707WAT      O65362   0.891   9.525   4.993
21707WAT     H165363   0.832   9.486   4.922
21707WAT     H265364   0.969   9.463   5.009
21708WAT      O65365   0.684   6.131   1.711
21708WAT     H165366   0.682   6.045   1.762
21708WAT     H265367   0.772   6.176   1.723
21709WAT      O65368   8.162   3.156   9.269
21709WAT     H165369   8.105   3.125   9.346
21709WAT     H265370   8.129   3.115   9.184
21710WAT      O65371   4.908   4.712   5.487
21710WAT     H165372   4.947   4.651   5.418
21710WAT     H265373   4.930   4.807   5.464
21711WAT      O65374   6.951   7.717   7.071
21711WAT     H165375   6.904   7.629   7.072
21711WAT     H265376   6.926   7.770   7.152
21712WAT      O65377   2.655   3.900   5.469
21712WAT     H165378   2.754   3.912   5.461
21712WAT     H265379   2.630   3.807   5.442
21713WAT      O65380   7.970   0.403   3.772
21713WAT     H165381   7.959   0.324   3.833
21713WAT     H265382   7.907   0.475   3.800
21714WAT      O65383   9.878   7.799   8.441
21714WAT     H165384   9.856   7.724   8.503
21714WAT     H265385   9.974   7.825   8.452
21715WAT      O65386   5.291   8.061   9.650
21715WAT     H165387   5.388   8.039   9.651
21715WAT     H265388   5.278   8.160   9.648
21716WAT      O65389   5.947   7.412   0.120
21716WAT     H165390   6.020   7.422   0.053
21716WAT     H265391   5.899   7.499   0.131
21717WAT      O65392   5.226   5.593   2.498
21717WAT     H165393   5.261   5.676   2.455
21717WAT     H265394   5.134   5.609   2.533
21718WAT      O65395   9.355   5.894   3.666
21718WAT     H165396   9.383   5.972   3.722
21718WAT     H265397   9.435   5.836   3.648
21719WAT      O65398   2.209   3.500   0.160
21719WAT     H165399   2.305   3.485   0.136
21719WAT     H265400   2.175   3.421   0.211
21720WAT      O65401   6.855   4.897   6.704
21720WAT     H165402   6.869   4.822   6.639
21720WAT     H265403   6.860   4.862   6.797
21721WAT      O65404   2.659   5.939   2.946
21721WAT     H165405   2.671   5.917   2.850
21721WAT     H265406   2.737   5.906   2.999
21722WAT      O65407   7.033   9.285   9.639
21722WAT     H165408   7.089   9.212   9.601
21722WAT     H265409   7.091   9.349   9.689
21723WAT      O65410   2.878   7.378   3.143
21723WAT     H165411   2.821   7.300   3.119
21723WAT     H265412   2.974   7.349   3.149
21724WAT      O65413   0.030   7.244   1.938
21724WAT     H165414   0.129   7.229   1.949
21724WAT     H265415   0.011   7.271   1.844
21725WAT      O65416   8.094   2.851   8.901
21725WAT     H165417   8.091   2.931   8.962
21725WAT     H265418   8.054   2.772   8.948
21726WAT      O65419   3.154   5.728   1.193
21726WAT     H165420   3.222   5.801   1.181
21726WAT     H265421   3.063   5.765   1.179
21727WAT      O65422   9.646   3.644   1.758
21727WAT     H165423   9.677   3.549   1.761
21727WAT     H265424   9.725   3.704   1.745
21728WAT      O65425   1.141   4.697   9.814
21728WAT     H165426   1.157   4.796   9.807
21728WAT     H265427   1.228   4.649   9.804
21729WAT      O65428   3.257   2.940   0.839
21729WAT     H165429   3.232   2.846   0.861
21729WAT     H265430   3.175   2.998   0.846
21730WAT      O65431   5.621   6.887   1.894
21730WAT     H165432   5.557   6.849   1.828
21730WAT     H265433   5.693   6.820   1.915
21731WAT      O65434   2.644   6.790   9.307
21731WAT     H165435   2.707   6.862   9.335
21731WAT     H265436   2.638   6.721   9.379
21732WAT      O65437   3.725   1.594   7.063
21732WAT     H165438   3.689   1.572   6.972
21732WAT     H265439   3.786   1.521   7.093
21733WAT      O65440   3.215   6.714   8.294
21733WAT     H165441   3.195   6.616   8.295
21733WAT     H265442   3.211   6.748   8.200
21734WAT      O65443   2.517   2.345   0.546
21734WAT     H165444   2.601   2.296   0.569
21734WAT     H265445   2.527   2.388   0.456
21735WAT      O65446   0.132   4.796   9.261
21735WAT     H165447   0.207   4.842   9.309
21735WAT     H265448   0.080   4.741   9.326
21736WAT      O65449   5.340   9.759   6.825
21736WAT     H165450   5.350   9.833   6.760
21736WAT     H265451   5.248   9.760   6.863
21737WAT      O65452   8.674   9.021   2.378
21737WAT     H165453   8.751   8.958   2.371
21737WAT     H265454   8.627   9.008   2.465
21738WAT      O65455   5.101   9.011   8.134
21738WAT     H165456   5.077   9.108   8.126
21738WAT     H265457   5.052   8.971   8.211
21739WAT      O65458   6.864   8.374   4.046
21739WAT     H165459   6.856   8.421   4.133
21739WAT     H265460   6.951   8.397   4.002
21740WAT      O65461   8.046   2.112   5.899
21740WAT     H165462   8.145   2.126   5.902
21740WAT     H265463   8.000   2.192   5.937
21741WAT      O65464   0.395   9.698   3.931
21741WAT     H165465   0.315   9.672   3.985
21741WAT     H265466   0.365   9.755   3.854
21742WAT      O65467   1.841   6.943   5.490
21742WAT     H165468   1.792   6.948   5.403
21742WAT     H265469   1.911   6.872   5.485
21743WAT      O65470   9.152   5.382   5.878
21743WAT     H165471   9.094   5.319   5.827
21743WAT     H265472   9.248   5.364   5.857
21744WAT      O65473   2.430   6.419   9.113
21744WAT     H165474   2.523   6.419   9.149
21744WAT     H265475   2.390   6.328   9.125
21745WAT      O65476   2.841   1.529   9.228
21745WAT     H165477   2.880   1.581   9.305
21745WAT     H265478   2.747   1.503   9.250
21746WAT      O65479   3.964   9.764   8.247
21746WAT     H165480   4.010   9.678   8.223
21746WAT     H265481   3.881   9.743   8.299
21747WAT      O65482   7.359   1.438   1.386
21747WAT     H165483   7.305   1.522   1.383
21747WAT     H265484   7.299   1.360   1.402
21748WAT      O65485   1.538   1.934   7.180
21748WAT     H165486   1.451   1.984   7.181
21748WAT     H265487   1.551   1.893   7.090
21749WAT      O65488   4.436   7.951   3.966
21749WAT     H165489   4.401   7.975   4.056
21749WAT     H265490   4.497   8.023   3.933
21750WAT      O65491   3.698   6.374   3.538
21750WAT     H165492   3.614   6.322   3.520
21750WAT     H265493   3.704   6.394   3.636
21751WAT      O65494   2.112   2.489   5.199
21751WAT     H165495   2.179   2.438   5.254
21751WAT     H265496   2.138   2.586   5.197
21752WAT      O65497   2.944   0.246   3.029
21752WAT     H165498   2.862   0.273   3.080
21752WAT     H265499   3.014   0.215   3.094
21753WAT      O65500   7.743   7.970   9.216
21753WAT     H165501   7.812   8.000   9.282
21753WAT     H265502   7.657   8.017   9.234
21754WAT      O65503   3.800   7.394   1.501
21754WAT     H165504   3.803   7.301   1.463
21754WAT     H265505   3.840   7.457   1.435
21755WAT      O65506   8.197   0.339   0.586
21755WAT     H165507   8.239   0.368   0.672
21755WAT     H265508   8.257   0.273   0.540
21756WAT      O65509   0.476   3.210   5.269
21756WAT     H165510   0.557   3.232   5.216
21756WAT     H265511   0.469   3.272   5.348
21757WAT      O65512   8.433   1.132   2.975
21757WAT     H165513   8.355   1.076   2.948
21757WAT     H265514   8.474   1.174   2.894
21758WAT      O65515   4.715   3.136   6.217
21758WAT     H165516   4.714   3.151   6.316
21758WAT     H265517   4.786   3.194   6.176
21759WAT      O65518   6.187   5.734   5.692
21759WAT     H165519   6.235   5.810   5.649
21759WAT     H265520   6.119   5.697   5.629
21760WAT      O65521   7.331   3.176   4.661
21760WAT     H165522   7.239   3.139   4.643
21760WAT     H265523   7.323   3.257   4.718
21761WAT      O65524   8.376   6.634   7.807
21761WAT     H165525   8.288   6.598   7.839
21761WAT     H265526   8.415   6.693   7.878
21762WAT      O65527   3.696   4.866   2.891
21762WAT     H165528   3.664   4.881   2.798
21762WAT     H265529   3.794   4.847   2.891
21763WAT      O65530   2.461   6.686   2.220
21763WAT     H165531   2.444   6.754   2.292
21763WAT     H265532   2.499   6.731   2.140
21764WAT      O65533   5.059   5.728   8.734
21764WAT     H165534   5.009   5.645   8.759
21764WAT     H265535   5.053   5.743   8.636
21765WAT      O65536   0.118   8.702   1.895
21765WAT     H165537   0.035   8.742   1.857
21765WAT     H265538   0.101   8.673   1.989
21766WAT      O65539   8.346   2.262   7.869
21766WAT     H165540   8.296   2.344   7.895
21766WAT     H265541   8.375   2.213   7.952
21767WAT      O65542   4.081   2.030   2.519
21767WAT     H165543   4.111   1.999   2.429
21767WAT     H265544   4.113   2.123   2.535
21768WAT      O65545   1.137   4.060   9.811
21768WAT     H165546   1.200   3.983   9.815
21768WAT     H265547   1.063   4.040   9.747
21769WAT      O65548   6.162   8.598   6.253
21769WAT     H165549   6.171   8.638   6.162
21769WAT     H265550   6.235   8.530   6.267
21770WAT      O65551   0.079   8.073   6.728
21770WAT     H165552   0.030   7.988   6.745
21770WAT     H265553   0.030   8.149   6.771
21771WAT      O65554   8.835   5.507   9.618
21771WAT     H165555   8.868   5.473   9.530
21771WAT     H265556   8.764   5.576   9.602
21772WAT      O65557   1.826   6.081   7.160
21772WAT     H165558   1.924   6.079   7.137
21772WAT     H265559   1.782   6.154   7.108
21773WAT      O65560   4.434   4.978   2.017
21773WAT     H165561   4.351   4.939   2.057
21773WAT     H265562   4.484   5.029   2.087
21774WAT      O65563   8.095   8.123   7.606
21774WAT     H165564   8.002   8.093   7.628
21774WAT     H265565   8.120   8.201   7.664
21775WAT      O65566   3.931   4.360   7.585
21775WAT     H165567   3.926   4.424   7.508
21775WAT     H265568   3.845   4.362   7.636
21776WAT      O65569   8.732   7.405   1.385
21776WAT     H165570   8.814   7.391   1.331
21776WAT     H265571   8.755   7.452   1.470
21777WAT      O65572   7.032   0.791   7.205
21777WAT     H165573   7.118   0.833   7.175
21777WAT     H265574   6.990   0.742   7.128
21778WAT      O65575   9.782   7.877   3.797
21778WAT     H165576   9.748   7.942   3.864
21778WAT     H265577   9.718   7.800   3.790
21779WAT      O65578   1.447   3.760   5.149
21779WAT     H165579   1.385   3.728   5.077
21779WAT     H265580   1.487   3.681   5.195
21780WAT      O65581   6.222   7.055   9.454
21780WAT     H165582   6.291   7.005   9.506
21780WAT     H265583   6.142   7.070   9.512
21781WAT      O65584   7.304   4.988   6.580
21781WAT     H165585   7.208   5.015   6.588
21781WAT     H265586   7.311   4.902   6.530
21782WAT      O65587   7.933   7.768   5.197
21782WAT     H165588   7.886   7.854   5.178
21782WAT     H265589   8.032   7.782   5.191
21783WAT      O65590   7.083   1.946   8.014
21783WAT     H165591   7.089   2.036   7.972
21783WAT     H265592   7.083   1.875   7.943
21784WAT      O65593   3.858   6.388   6.382
21784WAT     H165594   3.917   6.453   6.334
21784WAT     H265595   3.819   6.324   6.316
21785WAT      O65596   8.519   5.353   2.934
21785WAT     H165597   8.567   5.422   2.880
21785WAT     H265598   8.584   5.307   2.995
21786WAT      O65599   0.013   5.144   4.594
21786WAT     H165600   0.031   5.202   4.515
21786WAT     H265601  -0.084   5.119   4.595
21787WAT      O65602   4.427   2.487   6.750
21787WAT     H165603   4.388   2.548   6.680
21787WAT     H265604   4.520   2.461   6.723
21788WAT      O65605   8.898   6.265   7.714
21788WAT     H165606   8.881   6.362   7.733
21788WAT     H265607   8.814   6.213   7.732
21789WAT      O65608   4.923   9.306   6.371
21789WAT     H165609   4.823   9.301   6.376
21789WAT     H265610   4.955   9.246   6.297
21790WAT      O65611   8.827   7.286   8.396
21790WAT     H165612   8.760   7.217   8.422
21790WAT     H265613   8.783   7.356   8.339
21791WAT      O65614   1.548   9.836   5.001
21791WAT     H165615   1.521   9.829   4.905
21791WAT     H265616   1.500   9.913   5.044
21792WAT      O65617   4.768   7.249   1.771
21792WAT     H165618   4.676   7.209   1.772
21792WAT     H265619   4.835   7.177   1.753
21793WAT      O65620   8.291   9.189   5.780
21793WAT     H165621   8.341   9.157   5.860
21793WAT     H265622   8.196   9.209   5.805
21794WAT      O65623   4.565   2.650   7.597
21794WAT     H165624   4.544   2.680   7.690
21794WAT     H265625   4.522   2.713   7.531
21795WAT      O65626   0.831   0.778   8.913
21795WAT     H165627   0.929   0.799   8.922
21795WAT     H265628   0.807   0.775   8.816
21796WAT      O65629   5.402   9.235   3.173
21796WAT     H165630   5.412   9.331   3.200
21796WAT     H265631   5.306   9.216   3.152
21797WAT      O65632   6.451   7.491   9.389
21797WAT     H165633   6.365   7.446   9.365
21797WAT     H265634   6.514   7.424   9.426
21798WAT      O65635   8.401   4.788   7.651
21798WAT     H165636   8.431   4.697   7.680
21798WAT     H265637   8.338   4.825   7.719
21799WAT      O65638   4.578   0.971   6.737
21799WAT     H165639   4.643   0.911   6.783
21799WAT     H265640   4.626   1.028   6.670
21800WAT      O65641   3.373   5.784   8.215
21800WAT     H165642   3.466   5.755   8.194
21800WAT     H265643   3.371   5.825   8.306
21801WAT      O65644   7.834   7.971   6.335
21801WAT     H165645   7.749   7.926   6.309
21801WAT     H265646   7.827   8.069   6.318
21802WAT      O65647   5.242   5.231   5.870
21802WAT     H165648   5.295   5.274   5.943
21802WAT     H265649   5.281   5.141   5.849
21803WAT      O65650   0.783   5.937   0.201
21803WAT     H165651   0.698   5.903   0.240
21803WAT     H265652   0.772   6.032   0.172
21804WAT      O65653   5.649   1.954   6.731
21804WAT     H165654   5.585   1.902   6.786
21804WAT     H265655   5.604   2.035   6.694
21805WAT      O65656   6.840   7.558   5.471
21805WAT     H165657   6.917   7.591   5.417
21805WAT     H265658   6.754   7.586   5.427
21806WAT      O65659   4.585   6.161   4.183
21806WAT     H165660   4.648   6.207   4.121
21806WAT     H265661   4.534   6.228   4.236
21807WAT      O65662   0.491   7.972   3.716
21807WAT     H165663   0.488   8.044   3.785
21807WAT     H265664   0.446   8.003   3.633
21808WAT      O65665   3.782   3.896   5.906
21808WAT     H165666   3.790   3.991   5.935
21808WAT     H265667   3.783   3.892   5.806
21809WAT      O65668   8.897   1.687   7.387
21809WAT     H165669   8.983   1.680   7.336
21809WAT     H265670   8.843   1.763   7.351
21810WAT      O65671   6.154   3.406   4.682
21810WAT     H165672   6.126   3.487   4.734
21810WAT     H265673   6.091   3.331   4.701
21811WAT      O65674   9.551   6.391   3.367
21811WAT     H165675   9.499   6.313   3.402
21811WAT     H265676   9.618   6.420   3.435
21812WAT      O65677   6.338   1.615   5.305
21812WAT     H165678   6.336   1.714   5.320
21812WAT     H265679   6.373   1.596   5.214
21813WAT      O65680   0.006   5.981   4.853
21813WAT     H165681  -0.072   5.944   4.902
21813WAT     H265682   0.001   5.955   4.756
21814WAT      O65683   9.810   0.038   8.432
21814WAT     H165684   9.856   0.095   8.364
21814WAT     H265685   9.829   0.074   8.524
21815WAT      O65686   9.618   1.633   6.828
21815WAT     H165687   9.707   1.617   6.870
21815WAT     H265688   9.561   1.551   6.840
21816WAT      O65689   5.161   7.461   8.960
21816WAT     H165690   5.217   7.522   8.905
21816WAT     H265691   5.076   7.440   8.911
21817WAT      O65692   6.782   0.295   2.836
21817WAT     H165693   6.823   0.301   2.744
21817WAT     H265694   6.736   0.207   2.846
21818WAT      O65695   0.190   8.205   5.788
21818WAT     H165696   0.239   8.249   5.713
21818WAT     H265697   0.256   8.165   5.851
21819WAT      O65698   6.082   5.843   1.644
21819WAT     H165699   5.992   5.872   1.676
21819WAT     H265700   6.153   5.897   1.689
21820WAT      O65701   6.793   9.395   1.369
21820WAT     H165702   6.816   9.449   1.450
21820WAT     H265703   6.876   9.376   1.317
21821WAT      O65704   3.098   0.737   2.891
21821WAT     H165705   3.133   0.716   2.800
21821WAT     H265706   3.045   0.822   2.888
21822WAT      O65707   7.568   5.587   4.131
21822WAT     H165708   7.513   5.631   4.203
21822WAT     H265709   7.558   5.488   4.139
21823WAT      O65710   1.045   9.037   3.549
21823WAT     H165711   1.116   9.105   3.531
21823WAT     H265712   0.983   9.032   3.470
21824WAT      O65713   5.340   5.674   0.762
21824WAT     H165714   5.324   5.715   0.852
21824WAT     H265715   5.431   5.699   0.729
21825WAT      O65716   0.967   1.866   6.148
21825WAT     H165717   1.047   1.812   6.122
21825WAT     H265718   0.957   1.866   6.248
21826WAT      O65719   1.844   0.202   1.210
21826WAT     H165720   1.841   0.141   1.131
21826WAT     H265721   1.937   0.204   1.248
21827WAT      O65722   8.354   2.187   3.638
21827WAT     H165723   8.438   2.200   3.690
21827WAT     H265724   8.360   2.234   3.550
21828WAT      O65725   4.504   6.225   5.839
21828WAT     H165726   4.585   6.232   5.781
21828WAT     H265727   4.513   6.146   5.899
21829WAT      O65728   4.647   7.750   4.172
21829WAT     H165729   4.600   7.831   4.208
21829WAT     H265730   4.742   7.774   4.150
21830WAT      O65731   9.668   1.388   7.405
21830WAT     H165732   9.625   1.306   7.443
21830WAT     H265733   9.604   1.432   7.342
21831WAT      O65734   8.614   1.922   9.774
21831WAT     H165735   8.555   1.905   9.853
21831WAT     H265736   8.708   1.935   9.805
21832WAT      O65737   8.856   5.017   0.348
21832WAT     H165738   8.953   5.031   0.328
21832WAT     H265739   8.803   5.095   0.314
21833WAT      O65740   3.925   2.639   6.709
21833WAT     H165741   3.925   2.735   6.740
21833WAT     H265742   3.980   2.584   6.772
21834WAT      O65743   4.933   7.147   8.184
21834WAT     H165744   5.013   7.204   8.164
21834WAT     H265745   4.872   7.147   8.105
21835WAT      O65746   9.787   8.990   1.418
21835WAT     H165747   9.797   9.079   1.462
21835WAT     H265748   9.690   8.966   1.416
21836WAT      O65749   0.560   6.472   9.715
21836WAT     H165750   0.501   6.549   9.689
21836WAT     H265751   0.539   6.445   9.809
21837WAT      O65752   5.377   3.823   8.544
21837WAT     H165753   5.309   3.897   8.552
21837WAT     H265754   5.382   3.793   8.449
21838WAT      O65755   3.254   3.459   6.361
21838WAT     H165756   3.270   3.534   6.297
21838WAT     H265757   3.225   3.378   6.310
21839WAT      O65758   0.359   2.724   4.798
21839WAT     H165759   0.337   2.667   4.719
21839WAT     H265760   0.275   2.753   4.843
21840WAT      O65761   8.138   7.305   8.869
21840WAT     H165762   8.179   7.384   8.914
21840WAT     H265763   8.209   7.242   8.838
21841WAT      O65764   2.425   5.479   9.807
21841WAT     H165765   2.404   5.456   9.712
21841WAT     H265766   2.369   5.556   9.836
21842WAT      O65767   9.191   7.317   1.602
21842WAT     H165768   9.153   7.243   1.657
21842WAT     H265769   9.154   7.312   1.509
21843WAT      O65770   2.580   3.152   2.939
21843WAT     H165771   2.627   3.217   2.879
21843WAT     H265772   2.526   3.203   3.006
21844WAT      O65773   6.811   9.742   3.542
21844WAT     H165774   6.740   9.677   3.514
21844WAT     H265775   6.772   9.806   3.609
21845WAT      O65776   8.041   6.659   4.193
21845WAT     H165777   7.995   6.714   4.122
21845WAT     H265778   8.020   6.563   4.178
21846WAT      O65779   2.559   0.088   4.358
21846WAT     H165780   2.516   0.015   4.304
21846WAT     H265781   2.587   0.052   4.447
21847WAT      O65782   6.310   7.716   9.061
21847WAT     H165783   6.299   7.815   9.060
21847WAT     H265784   6.402   7.693   9.094
21848WAT      O65785   8.219   5.182   5.628
21848WAT     H165786   8.149   5.195   5.558
21848WAT     H265787   8.285   5.114   5.598
21849WAT      O65788   7.625   4.331   4.711
21849WAT     H165789   7.549   4.283   4.754
21849WAT     H265790   7.591   4.381   4.631
21850WAT      O65791   4.018   4.681   8.231
21850WAT     H165792   4.101   4.725   8.265
21850WAT     H265793   3.945   4.693   8.298
21851WAT      O65794   5.846   8.762   4.631
21851WAT     H165795   5.905   8.842   4.644
21851WAT     H265796   5.871   8.717   4.546
21852WAT      O65797   1.821   1.096   1.140
21852WAT     H165798   1.845   1.020   1.200
21852WAT     H265799   1.902   1.150   1.120
21853WAT      O65800   7.085   8.701   0.417
21853WAT     H165801   6.994   8.732   0.391
21853WAT     H265802   7.079   8.607   0.452
21854WAT      O65803   1.574   2.108   1.992
21854WAT     H165804   1.557   2.019   2.034
21854WAT     H265805   1.568   2.179   2.062
21855WAT      O65806   1.885   0.711   1.116
21855WAT     H165807   1.861   0.621   1.080
21855WAT     H265808   1.947   0.700   1.194
21856WAT      O65809   6.091   6.309   0.720
21856WAT     H165810   6.018   6.300   0.789
21856WAT     H265811   6.050   6.323   0.630
21857WAT      O65812   8.169   0.142   1.957
21857WAT     H165813   8.260   0.179   1.976
21857WAT     H265814   8.156   0.135   1.858
21858WAT      O65815   4.003   4.097   3.919
21858WAT     H165816   4.004   4.037   3.839
21858WAT     H265817   4.060   4.177   3.902
21859WAT      O65818   3.255   8.169   0.344
21859WAT     H165819   3.308   8.085   0.355
21859WAT     H265820   3.314   8.242   0.310
21860WAT      O65821   5.632   6.441   9.062
21860WAT     H165822   5.558   6.437   9.129
21860WAT     H265823   5.708   6.493   9.099
21861WAT      O65824   7.395   5.536   2.923
21861WAT     H165825   7.332   5.484   2.864
21861WAT     H265826   7.440   5.607   2.869
21862WAT      O65827   8.375   3.754   1.824
21862WAT     H165828   8.294   3.811   1.810
21862WAT     H265829   8.436   3.799   1.889
21863WAT      O65830   7.287   5.424   9.310
21863WAT     H165831   7.237   5.350   9.265
21863WAT     H265832   7.324   5.486   9.241
21864WAT      O65833   0.840   2.522   5.865
21864WAT     H165834   0.920   2.473   5.831
21864WAT     H265835   0.865   2.617   5.886
21865WAT      O65836   8.243   3.428   7.463
21865WAT     H165837   8.236   3.483   7.380
21865WAT     H265838   8.153   3.390   7.486
21866WAT      O65839   2.856   2.834   8.215
21866WAT     H165840   2.934   2.772   8.199
21866WAT     H265841   2.775   2.799   8.168
21867WAT      O65842   4.528   2.563   9.004
21867WAT     H165843   4.450   2.564   9.067
21867WAT     H265844   4.497   2.538   8.912
21868WAT      O65845   1.485   6.628   9.339
21868WAT     H165846   1.524   6.715   9.367
21868WAT     H265847   1.538   6.591   9.263
21869WAT      O65848   2.271   8.043   2.988
21869WAT     H165849   2.211   8.047   3.068
21869WAT     H265850   2.360   8.006   3.015
21870WAT      O65851   8.203   8.317   7.780
21870WAT     H165852   8.146   8.321   7.862
21870WAT     H265853   8.202   8.407   7.736
21871WAT      O65854   5.847   1.188   9.312
21871WAT     H165855   5.847   1.104   9.258
21871WAT     H265856   5.753   1.211   9.339
21872WAT      O65857   9.704   2.209   8.390
21872WAT     H165858   9.797   2.240   8.370
21872WAT     H265859   9.699   2.110   8.377
21873WAT      O65860   2.824   2.046   7.017
21873WAT     H165861   2.900   1.982   7.008
21873WAT     H265862   2.741   1.995   7.040
21874WAT      O65863   0.957   0.530   5.164
21874WAT     H165864   0.916   0.591   5.232
21874WAT     H265865   0.914   0.545   5.075
21875WAT      O65866   3.309   7.233   5.572
21875WAT     H165867   3.346   7.228   5.665
21875WAT     H265868   3.235   7.166   5.562
21876WAT      O65869   8.161   1.764   3.396
21876WAT     H165870   8.221   1.799   3.468
21876WAT     H265871   8.067   1.791   3.416
21877WAT      O65872   6.388   8.004   9.662
21877WAT     H165873   6.300   7.961   9.645
21877WAT     H265874   6.375   8.091   9.709
21878WAT      O65875   3.820   0.297   3.613
21878WAT     H165876   3.918   0.291   3.595
21878WAT     H265877   3.795   0.235   3.687
21879WAT      O65878   7.659   9.297   4.024
21879WAT     H165879   7.630   9.389   4.049
21879WAT     H265880   7.587   9.251   3.973
21880WAT      O65881   7.500   4.864   0.185
21880WAT     H165882   7.599   4.857   0.197
21880WAT     H265883   7.455   4.853   0.273
21881WAT      O65884   1.718   9.794   1.974
21881WAT     H165885   1.818   9.794   1.966
21881WAT     H265886   1.685   9.700   1.978
21882WAT      O65887   6.587   4.054   3.809
21882WAT     H165888   6.487   4.055   3.822
21882WAT     H265889   6.607   4.052   3.711
21883WAT      O65890   3.885   0.873   2.156
21883WAT     H165891   3.932   0.961   2.158
21883WAT     H265892   3.802   0.879   2.211
21884WAT      O65893   8.609   3.980   1.754
21884WAT     H165894   8.533   3.993   1.690
21884WAT     H265895   8.606   3.887   1.790
21885WAT      O65896   1.005   4.707   0.741
21885WAT     H165897   1.088   4.656   0.765
21885WAT     H265898   0.933   4.642   0.715
21886WAT      O65899   3.930   4.127   2.711
21886WAT     H165900   3.889   4.212   2.744
21886WAT     H265901   3.957   4.138   2.615
21887WAT      O65902   8.509   1.405   7.735
21887WAT     H165903   8.445   1.407   7.811
21887WAT     H265904   8.596   1.367   7.765
21888WAT      O65905   4.210   4.786   7.851
21888WAT     H165906   4.177   4.853   7.784
21888WAT     H265907   4.253   4.710   7.803
21889WAT      O65908   5.355   1.489   1.433
21889WAT     H165909   5.342   1.444   1.345
21889WAT     H265910   5.379   1.585   1.418
21890WAT      O65911   2.291   5.934   3.501
21890WAT     H165912   2.197   5.940   3.466
21890WAT     H265913   2.288   5.928   3.601
21891WAT      O65914   2.006   2.784   0.440
21891WAT     H165915   1.964   2.760   0.352
21891WAT     H265916   1.970   2.872   0.471
21892WAT      O65917   7.383   4.075   2.918
21892WAT     H165918   7.318   4.142   2.953
21892WAT     H265919   7.475   4.098   2.950
21893WAT      O65920   4.004   2.256   7.612
21893WAT     H165921   3.949   2.289   7.688
21893WAT     H265922   4.020   2.157   7.624
21894WAT      O65923   1.747   3.143   0.825
21894WAT     H165924   1.649   3.121   0.821
21894WAT     H265925   1.800   3.062   0.803
21895WAT      O65926   1.419   6.413   0.434
21895WAT     H165927   1.339   6.468   0.460
21895WAT     H265928   1.499   6.473   0.426
21896WAT      O65929   7.107   4.374   0.633
21896WAT     H165930   7.014   4.411   0.635
21896WAT     H265931   7.163   4.430   0.572
21897WAT      O65932   2.335   3.821   5.265
21897WAT     H165933   2.239   3.817   5.291
21897WAT     H265934   2.369   3.915   5.277
21898WAT      O65935   8.459   8.731   8.807
21898WAT     H165936   8.460   8.831   8.801
21898WAT     H265937   8.402   8.693   8.734
21899WAT      O65938   3.232   6.310   9.408
21899WAT     H165939   3.172   6.267   9.475
21899WAT     H265940   3.298   6.369   9.454
21900WAT      O65941   9.500   4.838   6.159
21900WAT     H165942   9.582   4.829   6.102
21900WAT     H265943   9.419   4.823   6.102
21901WAT      O65944   4.880   4.397   7.403
21901WAT     H165945   4.808   4.332   7.378
21901WAT     H265946   4.913   4.375   7.495
21902WAT      O65947   1.994   7.982   2.304
21902WAT     H165948   2.076   8.025   2.266
21902WAT     H265949   2.010   7.962   2.401
21903WAT      O65950   1.188   7.364   8.340
21903WAT     H165951   1.213   7.366   8.437
21903WAT     H265952   1.123   7.438   8.321
21904WAT      O65953   5.616   6.099   5.117
21904WAT     H165954   5.713   6.089   5.092
21904WAT     H265955   5.608   6.155   5.199
21905WAT      O65956   5.097   6.385   9.730
21905WAT     H165957   4.998   6.388   9.746
21905WAT     H265958   5.120   6.448   9.656
21906WAT      O65959   6.349   0.083   7.036
21906WAT     H165960   6.346  -0.006   6.992
21906WAT     H265961   6.269   0.136   7.009
21907WAT      O65962   4.903   0.084   8.815
21907WAT     H165963   4.844   0.003   8.811
21907WAT     H265964   4.847   0.166   8.825
21908WAT      O65965   3.287   6.672   9.385
21908WAT     H165966   3.223   6.622   9.327
21908WAT     H265967   3.365   6.613   9.406
21909WAT      O65968   7.785   3.922   3.811
21909WAT     H165969   7.730   3.983   3.754
21909WAT     H265970   7.790   3.958   3.904
21910WAT      O65971   6.077   0.897   4.576
21910WAT     H165972   6.154   0.834   4.581
21910WAT     H265973   6.069   0.934   4.483
21911WAT      O65974   5.257   9.396   0.889
21911WAT     H165975   5.353   9.400   0.863
21911WAT     H265976   5.249   9.361   0.982
21912WAT      O65977   4.320   6.770   8.245
21912WAT     H165978   4.364   6.841   8.189
21912WAT     H265979   4.358   6.681   8.221
21913WAT      O65980   9.063   6.786   2.299
21913WAT     H165981   9.020   6.798   2.209
21913WAT     H265982   9.157   6.820   2.295
21914WAT      O65983   9.016   1.444   2.356
21914WAT     H165984   9.081   1.455   2.281
21914WAT     H265985   8.931   1.490   2.334
21915WAT      O65986   2.445   1.026   0.262
21915WAT     H165987   2.530   1.078   0.265
21915WAT     H265988   2.456   0.946   0.203
21916WAT      O65989   4.900   5.707   5.998
21916WAT     H165990   4.814   5.661   6.018
21916WAT     H265991   4.886   5.806   5.997
21917WAT      O65992   3.687   4.577   6.930
21917WAT     H165993   3.692   4.675   6.911
21917WAT     H265994   3.774   4.534   6.906
21918WAT      O65995   3.407   6.412   1.777
21918WAT     H165996   3.311   6.387   1.782
21918WAT     H265997   3.416   6.512   1.784
21919WAT      O65998   5.980   3.919   4.174
21919WAT     H165999   5.960   3.870   4.089
21919WAT     H266000   5.913   3.894   4.244
21920WAT      O66001   9.252   9.279   9.408
21920WAT     H166002   9.153   9.286   9.402
21920WAT     H266003   9.294   9.332   9.334
21921WAT      O66004   4.247   6.349   9.594
21921WAT     H166005   4.158   6.356   9.639
21921WAT     H266006   4.279   6.254   9.598
21922WAT      O66007   6.465   3.527   2.072
21922WAT     H166008   6.391   3.491   2.128
21922WAT     H266009   6.507   3.453   2.019
21923WAT      O66010   4.311   4.137   9.659
21923WAT     H166011   4.256   4.182   9.730
21923WAT     H266012   4.278   4.043   9.646
21924WAT      O66013   4.763   4.436   8.516
21924WAT     H166014   4.761   4.534   8.493
21924WAT     H266015   4.692   4.388   8.464
21925WAT      O66016   3.763   9.403   0.841
21925WAT     H166017   3.693   9.468   0.811
21925WAT     H266018   3.761   9.395   0.941
21926WAT      O66019   9.480   7.677   7.571
21926WAT     H166020   9.381   7.665   7.560
21926WAT     H266021   9.526   7.593   7.542
21927WAT      O66022   8.406   5.933   2.647
21927WAT     H166023   8.395   5.998   2.572
21927WAT     H266024   8.502   5.932   2.677
21928WAT      O66025   6.104   8.483   7.418
21928WAT     H166026   6.179   8.502   7.354
21928WAT     H266027   6.122   8.400   7.469
21929WAT      O66028   0.148   2.753   7.430
21929WAT     H166029   0.243   2.743   7.459
21929WAT     H266030   0.133   2.697   7.348
21930WAT      O66031   5.173   3.558   7.535
21930WAT     H166032   5.244   3.594   7.596
21930WAT     H266033   5.084   3.567   7.580
21931WAT      O66034   9.797   3.015   9.883
21931WAT     H166035   9.884   2.975   9.855
21931WAT     H266036   9.813   3.084   9.953
21932WAT      O66037   7.898   4.552   7.746
21932WAT     H166038   7.842   4.599   7.679
21932WAT     H266039   7.994   4.578   7.733
21933WAT      O66040   7.925   1.639   1.497
21933WAT     H166041   7.888   1.669   1.585
21933WAT     H266042   7.873   1.682   1.423
21934WAT      O66043   8.270   0.180   4.496
21934WAT     H166044   8.218   0.109   4.448
21934WAT     H266045   8.260   0.167   4.595
21935WAT      O66046   4.342   5.961   0.447
21935WAT     H166047   4.412   5.904   0.403
21935WAT     H266048   4.252   5.940   0.408
21936WAT      O66049   4.303   9.015   5.948
21936WAT     H166050   4.225   9.071   5.975
21936WAT     H266051   4.366   9.071   5.893
21937WAT      O66052   1.880   0.305   8.240
21937WAT     H166053   1.884   0.364   8.159
21937WAT     H266054   1.793   0.255   8.240
21938WAT      O66055   8.688   8.484   8.658
21938WAT     H166056   8.727   8.559   8.711
21938WAT     H266057   8.588   8.495   8.653
21939WAT      O66058   0.374   5.528   2.704
21939WAT     H166059   0.470   5.504   2.719
21939WAT     H266060   0.316   5.473   2.763
21940WAT      O66061   1.215   6.203   2.034
21940WAT     H166062   1.243   6.288   1.990
21940WAT     H266063   1.283   6.132   2.015
21941WAT      O66064   3.839   3.998   9.217
21941WAT     H166065   3.883   4.080   9.181
21941WAT     H266066   3.740   4.010   9.214
21942WAT      O66067   3.274   4.843   9.851
21942WAT     H166068   3.326   4.921   9.815
21942WAT     H266069   3.177   4.858   9.835
21943WAT      O66070   7.640   6.652   2.768
21943WAT     H166071   7.636   6.558   2.735
21943WAT     H266072   7.706   6.658   2.843
21944WAT      O66073   7.111   3.163   5.064
21944WAT     H166074   7.072   3.247   5.025
21944WAT     H266075   7.130   3.098   4.992
21945WAT      O66076   5.143   6.971   4.892
21945WAT     H166077   5.168   6.936   4.801
21945WAT     H266078   5.069   6.917   4.930
21946WAT      O66079   0.915   7.255   4.945
21946WAT     H166080   0.943   7.247   4.849
21946WAT     H266081   0.826   7.212   4.957
21947WAT      O66082   3.163   6.111   6.575
21947WAT     H166083   3.077   6.062   6.593
21947WAT     H266084   3.165   6.195   6.629
21948WAT      O66085   8.792   6.042   5.582
21948WAT     H166086   8.886   6.077   5.576
21948WAT     H266087   8.790   5.961   5.640
21949WAT      O66088   1.380   2.141   5.921
21949WAT     H166089   1.327   2.107   5.999
21949WAT     H266090   1.344   2.100   5.837
21950WAT      O66091   4.380   0.682   4.815
21950WAT     H166092   4.284   0.655   4.812
21950WAT     H266093   4.425   0.651   4.731
21951WAT      O66094   6.500   0.868   7.994
21951WAT     H166095   6.453   0.780   8.003
21951WAT     H266096   6.580   0.857   7.934
21952WAT      O66097   6.173   5.855   3.482
21952WAT     H166098   6.223   5.901   3.556
21952WAT     H266099   6.164   5.758   3.502
21953WAT      O66100   2.895   9.404   1.986
21953WAT     H166101   2.890   9.424   2.084
21953WAT     H266102   2.990   9.380   1.962
21954WAT      O66103   6.171   1.159   6.070
21954WAT     H166104   6.241   1.138   6.001
21954WAT     H266105   6.116   1.236   6.039
21955WAT      O66106   6.750   8.833   7.882
21955WAT     H166107   6.691   8.864   7.808
21955WAT     H266108   6.789   8.912   7.930
21956WAT      O66109   1.153   2.456   4.167
21956WAT     H166110   1.067   2.442   4.216
21956WAT     H266111   1.168   2.378   4.106
21957WAT      O66112   2.740   6.660   1.388
21957WAT     H166113   2.822   6.604   1.404
21957WAT     H266114   2.758   6.723   1.313
21958WAT      O66115   7.762   1.685   1.054
21958WAT     H166116   7.777   1.587   1.044
21958WAT     H266117   7.848   1.733   1.040
21959WAT      O66118   3.841   1.124   9.634
21959WAT     H166119   3.845   1.210   9.684
21959WAT     H266120   3.890   1.133   9.547
21960WAT      O66121   6.841   9.107   7.114
21960WAT     H166122   6.880   9.020   7.146
21960WAT     H266123   6.842   9.108   7.014
21961WAT      O66124   2.151   8.898   4.541
21961WAT     H166125   2.123   8.961   4.469
21961WAT     H266126   2.177   8.949   4.623
21962WAT      O66127   1.780   2.747   1.363
21962WAT     H166128   1.710   2.773   1.429
21962WAT     H266129   1.744   2.760   1.270
21963WAT      O66130   1.804   5.019   9.819
21963WAT     H166131   1.895   5.024   9.777
21963WAT     H266132   1.805   5.065   9.907
21964WAT      O66133   6.303   5.298   2.593
21964WAT     H166134   6.231   5.249   2.642
21964WAT     H266135   6.270   5.322   2.501
21965WAT      O66136   5.690   5.308   4.397
21965WAT     H166137   5.783   5.334   4.373
21965WAT     H266138   5.644   5.386   4.441
21966WAT      O66139   9.845   6.231   7.414
21966WAT     H166140   9.898   6.176   7.349
21966WAT     H266141   9.757   6.256   7.373
21967WAT      O66142   9.524   1.851   7.192
21967WAT     H166143   9.529   1.889   7.100
21967WAT     H266144   9.604   1.881   7.245
21968WAT      O66145   8.322   3.312   9.020
21968WAT     H166146   8.366   3.222   9.012
21968WAT     H266147   8.385   3.383   8.988
21969WAT      O66148   0.195   9.832   3.003
21969WAT     H166149   0.272   9.894   3.020
21969WAT     H266150   0.227   9.750   2.956
21970WAT      O66151   0.867   8.948   0.585
21970WAT     H166152   0.810   9.028   0.566
21970WAT     H266153   0.947   8.948   0.525
21971WAT      O66154   1.733   4.460   6.089
21971WAT     H166155   1.830   4.480   6.107
21971WAT     H266156   1.726   4.388   6.020
21972WAT      O66157   0.167   6.067   5.433
21972WAT     H166158   0.141   6.141   5.371
21972WAT     H266159   0.170   5.981   5.382
21973WAT      O66160   0.244   6.338   9.269
21973WAT     H166161   0.291   6.364   9.353
21973WAT     H266162   0.264   6.405   9.197
21974WAT      O66163   5.728   3.134   5.935
21974WAT     H166164   5.658   3.182   5.883
21974WAT     H266165   5.783   3.078   5.873
21975WAT      O66166   7.123   6.377   3.176
21975WAT     H166167   7.041   6.322   3.197
21975WAT     H266168   7.162   6.411   3.261
21976WAT      O66169   3.437   6.360   2.865
21976WAT     H166170   3.415   6.263   2.864
21976WAT     H266171   3.394   6.405   2.786
21977WAT      O66172   6.659   2.972   5.148
21977WAT     H166173   6.636   3.068   5.134
21977WAT     H266174   6.597   2.932   5.216
21978WAT      O66175   4.736   4.587   0.846
21978WAT     H166176   4.719   4.537   0.932
21978WAT     H266177   4.668   4.659   0.835
21979WAT      O66178   6.445   0.521   3.233
21979WAT     H166179   6.402   0.485   3.150
21979WAT     H266180   6.507   0.596   3.208
21980WAT      O66181   4.607   7.692   5.642
21980WAT     H166182   4.656   7.657   5.722
21980WAT     H266183   4.544   7.764   5.671
21981WAT      O66184   1.611   8.147   4.861
21981WAT     H166185   1.586   8.077   4.794
21981WAT     H266186   1.586   8.115   4.952
21982WAT      O66187   2.089   5.579   0.656
21982WAT     H166188   2.117   5.554   0.749
21982WAT     H266189   2.048   5.670   0.657
21983WAT      O66190   8.166   0.165   7.967
21983WAT     H166191   8.069   0.159   7.942
21983WAT     H266192   8.186   0.097   8.037
21984WAT      O66193   6.807   6.396   7.280
21984WAT     H166194   6.840   6.397   7.374
21984WAT     H266195   6.771   6.486   7.256
21985WAT      O66196   7.534   9.271   2.532
21985WAT     H166197   7.566   9.229   2.448
21985WAT     H266198   7.437   9.296   2.522
21986WAT      O66199   5.859   9.653   4.914
21986WAT     H166200   5.936   9.625   4.857
21986WAT     H266201   5.878   9.632   5.010
21987WAT      O66202   3.854   0.467   9.891
21987WAT     H166203   3.948   0.450   9.861
21987WAT     H266204   3.852   0.552   9.945
21988WAT      O66205   5.740   9.340   8.300
21988WAT     H166206   5.801   9.419   8.302
21988WAT     H266207   5.727   9.305   8.393
21989WAT      O66208   0.999   7.183   9.218
21989WAT     H166209   1.024   7.277   9.240
21989WAT     H266210   0.950   7.142   9.295
21990WAT      O66211   8.057   9.305   6.264
21990WAT     H166212   7.984   9.318   6.197
21990WAT     H266213   8.064   9.384   6.323
21991WAT      O66214   8.513   2.747   1.089
21991WAT     H166215   8.589   2.694   1.052
21991WAT     H266216   8.462   2.692   1.155
21992WAT      O66217   7.880   8.516   6.890
21992WAT     H166218   7.903   8.559   6.977
21992WAT     H266219   7.780   8.513   6.880
21993WAT      O66220   8.668   0.646   6.297
21993WAT     H166221   8.675   0.727   6.239
21993WAT     H266222   8.674   0.674   6.393
21994WAT      O66223   0.499   0.783   7.635
21994WAT     H166224   0.538   0.864   7.591
21994WAT     H266225   0.404   0.802   7.660
21995WAT      O66226   9.206   2.239   7.461
21995WAT     H166227   9.137   2.177   7.424
21995WAT     H266228   9.265   2.189   7.524
21996WAT      O66229   5.837   2.629   5.923
21996WAT     H166230   5.925   2.599   5.888
21996WAT     H266231   5.764   2.581   5.876
21997WAT      O66232   5.125   5.592   8.335
21997WAT     H166233   5.221   5.600   8.309
21997WAT     H266234   5.094   5.678   8.375
21998WAT      O66235   8.222   8.303   8.863
21998WAT     H166236   8.247   8.268   8.953
21998WAT     H266237   8.197   8.399   8.870
21999WAT      O66238   5.439   2.974   6.013
21999WAT     H166239   5.435   2.913   5.935
21999WAT     H266240   5.457   3.067   5.982
22000WAT      O66241   1.663   5.611   8.685
22000WAT     H166242   1.598   5.655   8.623
22000WAT     H266243   1.630   5.519   8.708
22001WAT      O66244   4.950   4.050   7.016
22001WAT     H166245   5.046   4.024   7.007
22001WAT     H266246   4.942   4.149   7.026
22002WAT      O66247   7.572   8.221   8.948
22002WAT     H166248   7.599   8.289   9.016
22002WAT     H266249   7.653   8.172   8.916
22003WAT      O66250   3.259   5.386   3.237
22003WAT     H166251   3.185   5.410   3.300
22003WAT     H266252   3.232   5.307   3.183
22004WAT      O66253   7.472   8.457   1.101
22004WAT     H166254   7.510   8.382   1.047
22004WAT     H266255   7.538   8.532   1.105
22005WAT      O66256   0.257   6.392   8.564
22005WAT     H166257   0.283   6.313   8.508
22005WAT     H266258   0.187   6.444   8.516
22006WAT      O66259   1.692   2.326   5.712
22006WAT     H166260   1.688   2.269   5.793
22006WAT     H266261   1.740   2.277   5.639
22007WAT      O66262   8.425   7.574   7.075
22007WAT     H166263   8.518   7.559   7.107
22007WAT     H266264   8.427   7.612   6.982
22008WAT      O66265   4.818   8.970   3.165
22008WAT     H166266   4.903   9.001   3.208
22008WAT     H266267   4.743   8.974   3.231
22009WAT      O66268   1.961   6.549   5.218
22009WAT     H166269   1.888   6.486   5.195
22009WAT     H266270   2.045   6.498   5.235
22010WAT      O66271   1.293   7.717   5.296
22010WAT     H166272   1.217   7.777   5.274
22010WAT     H266273   1.359   7.716   5.221
22011WAT      O66274   7.659   7.286   4.624
22011WAT     H166275   7.592   7.269   4.696
22011WAT     H266276   7.630   7.242   4.539
22012WAT      O66277   3.285   4.099   8.443
22012WAT     H166278   3.244   4.010   8.421
22012WAT     H266279   3.307   4.102   8.541
22013WAT      O66280   7.843   6.796   4.391
22013WAT     H166281   7.779   6.732   4.434
22013WAT     H266282   7.924   6.747   4.360
22014WAT      O66283   7.840   6.669   9.872
22014WAT     H166284   7.855   6.636   9.965
22014WAT     H266285   7.912   6.636   9.812
22015WAT      O66286   7.578   1.225   4.957
22015WAT     H166287   7.504   1.292   4.948
22015WAT     H266288   7.557   1.163   5.032
22016WAT      O66289   7.187   6.368   9.469
22016WAT     H166290   7.259   6.370   9.538
22016WAT     H266291   7.098   6.365   9.513
22017WAT      O66292   6.776   8.381   4.852
22017WAT     H166293   6.781   8.425   4.942
22017WAT     H266294   6.768   8.282   4.863
22018WAT      O66295   4.868   3.215   1.330
22018WAT     H166296   4.883   3.208   1.231
22018WAT     H266297   4.953   3.244   1.374
22019WAT      O66298   8.864   7.065   5.859
22019WAT     H166299   8.811   7.055   5.943
22019WAT     H266300   8.829   7.142   5.806
22020WAT      O66301   0.480   2.056   5.508
22020WAT     H166302   0.537   1.989   5.463
22020WAT     H266303   0.522   2.085   5.594
22021WAT      O66304   5.797   4.583   6.191
22021WAT     H166305   5.702   4.616   6.189
22021WAT     H266306   5.798   4.484   6.197
22022WAT      O66307   4.205   2.318   5.528
22022WAT     H166308   4.255   2.247   5.479
22022WAT     H266309   4.147   2.368   5.463
22023WAT      O66310   8.574   8.247   2.617
22023WAT     H166311   8.627   8.263   2.534
22023WAT     H266312   8.579   8.151   2.643
22024WAT      O66313   7.319   8.041   8.535
22024WAT     H166314   7.348   7.995   8.619
22024WAT     H266315   7.393   8.038   8.468
22025WAT      O66316   9.002   0.736   6.279
22025WAT     H166317   9.058   0.653   6.267
22025WAT     H266318   9.032   0.783   6.362
22026WAT      O66319   8.578   8.576   6.450
22026WAT     H166320   8.610   8.482   6.460
22026WAT     H266321   8.618   8.616   6.367
22027WAT      O66322   2.013   4.863   9.056
22027WAT     H166323   2.058   4.951   9.074
22027WAT     H266324   2.040   4.830   8.965
22028WAT      O66325   0.045   1.370   0.306
22028WAT     H166326   0.128   1.426   0.298
22028WAT     H266327  -0.028   1.424   0.348
22029WAT      O66328   4.661   9.091   9.140
22029WAT     H166329   4.604   9.049   9.069
22029WAT     H266330   4.602   9.133   9.209
22030WAT      O66331   6.576   0.803   7.588
22030WAT     H166332   6.520   0.885   7.586
22030WAT     H266333   6.640   0.804   7.512
22031WAT      O66334   0.195   5.773   9.669
22031WAT     H166335   0.238   5.775   9.760
22031WAT     H266336   0.206   5.682   9.629
22032WAT      O66337   2.711   4.250   2.751
22032WAT     H166338   2.796   4.291   2.716
22032WAT     H266339   2.671   4.309   2.821
22033WAT      O66340   4.852   9.098   4.939
22033WAT     H166341   4.801   9.164   4.884
22033WAT     H266342   4.948   9.126   4.943
22034WAT      O66343   1.371   7.182   1.190
22034WAT     H166344   1.278   7.157   1.215
22034WAT     H266345   1.381   7.282   1.194
22035WAT      O66346   3.412   6.024   9.532
22035WAT     H166347   3.466   6.017   9.448
22035WAT     H266348   3.365   5.938   9.548
22036WAT      O66349   2.880   0.145   7.673
22036WAT     H166350   2.888   0.192   7.585
22036WAT     H266351   2.963   0.093   7.691
22037WAT      O66352   7.988   3.441   2.878
22037WAT     H166353   8.021   3.487   2.960
22037WAT     H266354   7.888   3.439   2.878
22038WAT      O66355   8.338   2.508   2.803
22038WAT     H166356   8.265   2.451   2.838
22038WAT     H266357   8.302   2.599   2.781
22039WAT      O66358   1.758   6.485   5.892
22039WAT     H166359   1.697   6.538   5.833
22039WAT     H266360   1.734   6.503   5.988
22040WAT      O66361   6.163   8.500   1.122
22040WAT     H166362   6.250   8.535   1.157
22040WAT     H266363   6.128   8.563   1.053
22041WAT      O66364   7.275   2.188   5.000
22041WAT     H166365   7.184   2.170   5.038
22041WAT     H266366   7.265   2.232   4.911
22042WAT      O66367   9.444   5.597   6.467
22042WAT     H166368   9.540   5.571   6.482
22042WAT     H266369   9.426   5.684   6.512
22043WAT      O66370   2.722   8.042   6.736
22043WAT     H166371   2.757   8.059   6.644
22043WAT     H266372   2.647   7.976   6.731
22044WAT      O66373   5.835   1.267   8.277
22044WAT     H166374   5.807   1.297   8.368
22044WAT     H266375   5.929   1.297   8.259
22045WAT      O66376   3.309   4.206   7.173
22045WAT     H166377   3.269   4.261   7.099
22045WAT     H266378   3.296   4.109   7.153
22046WAT      O66379   8.468   8.708   1.612
22046WAT     H166380   8.552   8.666   1.646
22046WAT     H266381   8.402   8.715   1.687
22047WAT      O66382   4.442   3.370   9.793
22047WAT     H166383   4.510   3.359   9.865
22047WAT     H266384   4.477   3.333   9.707
22048WAT      O66385   0.124   4.611   4.129
22048WAT     H166386   0.090   4.520   4.103
22048WAT     H266387   0.057   4.654   4.190
22049WAT      O66388   2.705   6.230   9.055
22049WAT     H166389   2.653   6.226   8.970
22049WAT     H266390   2.706   6.139   9.098
22050WAT      O66391   1.141   3.054   2.774
22050WAT     H166392   1.064   3.117   2.782
22050WAT     H266393   1.225   3.105   2.753
22051WAT      O66394   8.806   3.632   4.677
22051WAT     H166395   8.767   3.548   4.716
22051WAT     H266396   8.817   3.701   4.748
22052WAT      O66397   1.761   0.751   8.203
22052WAT     H166398   1.826   0.695   8.255
22052WAT     H266399   1.800   0.843   8.191
22053WAT      O66400   6.941   5.960   1.906
22053WAT     H166401   6.960   5.862   1.913
22053WAT     H266402   6.966   5.993   1.815
22054WAT      O66403   7.996   6.229   2.850
22054WAT     H166404   8.006   6.180   2.763
22054WAT     H266405   8.075   6.289   2.863
22055WAT      O66406   5.324   7.368   4.709
22055WAT     H166407   5.350   7.342   4.616
22055WAT     H266408   5.402   7.357   4.770
22056WAT      O66409   5.278   4.168   1.938
22056WAT     H166410   5.211   4.094   1.935
22056WAT     H266411   5.327   4.165   2.026
22057WAT      O66412   6.915   4.260   1.386
22057WAT     H166413   6.963   4.191   1.331
22057WAT     H266414   6.979   4.302   1.449
22058WAT      O66415   5.533   6.901   5.628
22058WAT     H166416   5.508   6.944   5.541
22058WAT     H266417   5.481   6.816   5.639
22059WAT      O66418   7.868   3.470   5.970
22059WAT     H166419   7.869   3.430   5.878
22059WAT     H266420   7.954   3.449   6.016
22060WAT      O66421   7.504   0.113   5.129
22060WAT     H166422   7.483   0.087   5.035
22060WAT     H266423   7.593   0.158   5.133
22061WAT      O66424   0.909   8.247   8.061
22061WAT     H166425   0.918   8.342   8.090
22061WAT     H266426   0.976   8.191   8.110
22062WAT      O66427   5.091   7.238   0.021
22062WAT     H166428   5.140   7.310   0.071
22062WAT     H266429   5.157   7.178  -0.024
22063WAT      O66430   4.784   4.120   1.858
22063WAT     H166431   4.756   4.173   1.778
22063WAT     H266432   4.770   4.176   1.940
22064WAT      O66433   3.046   3.168   0.849
22064WAT     H166434   3.037   3.207   0.757
22064WAT     H266435   3.087   3.237   0.909
22065WAT      O66436   1.474   7.761   9.803
22065WAT     H166437   1.404   7.722   9.743
22065WAT     H266438   1.449   7.854   9.828
22066WAT      O66439   8.148   9.361   3.850
22066WAT     H166440   8.050   9.367   3.831
22066WAT     H266441   8.170   9.413   3.932
22067WAT      O66442   0.050   6.520   8.435
22067WAT     H166443   0.002   6.592   8.486
22067WAT     H266444   0.090   6.559   8.352
22068WAT      O66445   2.377   0.679   0.795
22068WAT     H166446   2.323   0.674   0.711
22068WAT     H266447   2.325   0.638   0.870
22069WAT      O66448   2.952   7.128   7.893
22069WAT     H166449   3.036   7.116   7.946
22069WAT     H266450   2.971   7.184   7.813
22070WAT      O66451   1.406   0.692   9.079
22070WAT     H166452   1.407   0.736   9.169
22070WAT     H266453   1.375   0.597   9.089
22071WAT      O66454   9.116   9.656   5.369
22071WAT     H166455   9.213   9.679   5.375
22071WAT     H266456   9.063   9.741   5.362
22072WAT      O66457   7.515   4.440   4.999
22072WAT     H166458   7.591   4.376   5.013
22072WAT     H266459   7.542   4.531   5.031
22073WAT      O66460   1.237   8.140   5.074
22073WAT     H166461   1.305   8.088   5.022
22073WAT     H266462   1.148   8.096   5.065
22074WAT      O66463   2.991   3.226   9.305
22074WAT     H166464   2.928   3.162   9.349
22074WAT     H266465   2.965   3.320   9.328
22075WAT      O66466   9.364   4.584   9.342
22075WAT     H166467   9.322   4.664   9.300
22075WAT     H266468   9.442   4.555   9.288
22076WAT      O66469   7.048   6.326   0.678
22076WAT     H166470   7.134   6.331   0.728
22076WAT     H266471   6.976   6.294   0.739
22077WAT      O66472   4.155   8.099   3.804
22077WAT     H166473   4.073   8.074   3.752
22077WAT     H266474   4.134   8.174   3.867
22078WAT      O66475   0.197   0.859   3.432
22078WAT     H166476   0.236   0.775   3.394
22078WAT     H266477   0.270   0.925   3.450
22079WAT      O66478   2.683   6.076   5.381
22079WAT     H166479   2.760   6.036   5.332
22079WAT     H266480   2.711   6.097   5.475
22080WAT      O66481   9.149   6.232   9.300
22080WAT     H166482   9.190   6.286   9.227
22080WAT     H266483   9.102   6.292   9.364
22081WAT      O66484   2.987   5.120   6.047
22081WAT     H166485   2.987   5.131   5.947
22081WAT     H266486   2.978   5.023   6.070
22082WAT      O66487   3.000   4.726   1.506
22082WAT     H166488   3.041   4.805   1.460
22082WAT     H266489   2.979   4.656   1.438
22083WAT      O66490   4.105   9.079   2.423
22083WAT     H166491   4.153   9.154   2.377
22083WAT     H266492   4.092   9.003   2.359
22084WAT      O66493   5.699   5.607   8.729
22084WAT     H166494   5.617   5.603   8.673
22084WAT     H266495   5.677   5.646   8.818
22085WAT      O66496   8.910   9.203   3.618
22085WAT     H166497   8.889   9.106   3.603
22085WAT     H266498   8.846   9.240   3.686
22086WAT      O66499   8.192   6.276   9.027
22086WAT     H166500   8.267   6.322   9.075
22086WAT     H266501   8.223   6.249   8.935
22087WAT      O66502   8.144   4.796   6.122
22087WAT     H166503   8.147   4.888   6.163
22087WAT     H266504   8.060   4.750   6.150
22088WAT      O66505   5.935   2.945   2.325
22088WAT     H166506   6.033   2.963   2.333
22088WAT     H266507   5.884   3.029   2.346
22089WAT      O66508   2.334   6.174   2.774
22089WAT     H166509   2.311   6.177   2.677
22089WAT     H266510   2.404   6.242   2.794
22090WAT      O66511   0.687   9.120   0.138
22090WAT     H166512   0.776   9.128   0.093
22090WAT     H266513   0.640   9.208   0.137
22091WAT      O66514   6.259   0.342   9.561
22091WAT     H166515   6.224   0.249   9.567
22091WAT     H266516   6.188   0.402   9.524
22092WAT      O66517   3.979   1.002   7.137
22092WAT     H166518   3.945   0.918   7.180
22092WAT     H266519   4.054   0.979   7.075
22093WAT      O66520   1.285   1.113   2.390
22093WAT     H166521   1.346   1.113   2.311
22093WAT     H266522   1.196   1.077   2.363
22094WAT      O66523   1.310   7.233   9.801
22094WAT     H166524   1.226   7.214   9.852
22094WAT     H266525   1.319   7.166   9.726
22095WAT      O66526   7.781   2.425   3.988
22095WAT     H166527   7.866   2.437   3.936
22095WAT     H266528   7.704   2.419   3.924
22096WAT      O66529   8.001   6.415   0.702
22096WAT     H166530   7.951   6.481   0.757
22096WAT     H266531   7.940   6.341   0.675
22097WAT      O66532   1.903   6.807   2.647
22097WAT     H166533   1.973   6.878   2.639
22097WAT     H266534   1.925   6.747   2.725
22098WAT      O66535   0.667   9.178   1.437
22098WAT     H166536   0.762   9.146   1.438
22098WAT     H266537   0.664   9.276   1.454
22099WAT      O66538   6.607   5.912   0.980
22099WAT     H166539   6.646   5.971   1.052
22099WAT     H266540   6.521   5.873   1.012
22100WAT      O66541   4.175   7.363   1.800
22100WAT     H166542   4.267   7.398   1.819
22100WAT     H266543   4.178   7.304   1.720
22101WAT      O66544   3.384   4.825   8.593
22101WAT     H166545   3.315   4.896   8.606
22101WAT     H266546   3.365   4.775   8.508
22102WAT      O66547   3.665   2.130   3.820
22102WAT     H166548   3.701   2.209   3.869
22102WAT     H266549   3.715   2.118   3.734
22103WAT      O66550   0.666   4.820   3.576
22103WAT     H166551   0.635   4.859   3.489
22103WAT     H266552   0.587   4.804   3.635
22104WAT      O66553   6.077   2.576   1.043
22104WAT     H166554   6.037   2.484   1.051
22104WAT     H266555   6.047   2.632   1.121
22105WAT      O66556   6.377   3.849   3.155
22105WAT     H166557   6.303   3.835   3.221
22105WAT     H266558   6.405   3.945   3.154
22106WAT      O66559   7.795   3.594   7.545
22106WAT     H166560   7.700   3.590   7.575
22106WAT     H266561   7.855   3.584   7.624
22107WAT      O66562   9.118   3.563   3.405
22107WAT     H166563   9.201   3.576   3.459
22107WAT     H266564   9.108   3.639   3.341
22108WAT      O66565   2.216   4.194   0.386
22108WAT     H166566   2.158   4.172   0.465
22108WAT     H266567   2.196   4.287   0.355
22109WAT      O66568   3.647   0.777   8.896
22109WAT     H166569   3.562   0.740   8.858
22109WAT     H266570   3.717   0.705   8.898
22110WAT      O66571   8.761   6.204   4.301
22110WAT     H166572   8.674   6.205   4.351
22110WAT     H266573   8.836   6.228   4.363
22111WAT      O66574   5.607   7.033   1.551
22111WAT     H166575   5.681   6.968   1.569
22111WAT     H266576   5.599   7.048   1.452
22112WAT      O66577   2.333   4.202   2.249
22112WAT     H166578   2.297   4.147   2.324
22112WAT     H266579   2.424   4.235   2.271
22113WAT      O66580   0.912   7.132   9.481
22113WAT     H166581   0.933   7.049   9.532
22113WAT     H266582   0.902   7.209   9.544
22114WAT      O66583   4.977   5.834   8.504
22114WAT     H166584   5.049   5.896   8.474
22114WAT     H266585   4.888   5.870   8.476
22115WAT      O66586   0.764   7.437   9.018
22115WAT     H166587   0.739   7.533   9.033
22115WAT     H266588   0.711   7.379   9.079
22116WAT      O66589   4.396   9.742   1.977
22116WAT     H166590   4.476   9.740   2.037
22116WAT     H266591   4.421   9.706   1.887
22117WAT      O66592   4.996   0.806   5.401
22117WAT     H166593   5.007   0.900   5.434
22117WAT     H266594   5.082   0.775   5.360
22118WAT      O66595   0.536   6.673   3.589
22118WAT     H166596   0.539   6.580   3.552
22118WAT     H266597   0.478   6.674   3.670
22119WAT      O66598   1.170   0.654   1.875
22119WAT     H166599   1.213   0.589   1.812
22119WAT     H266600   1.229   0.667   1.954
22120WAT      O66601   1.415   4.838   0.255
22120WAT     H166602   1.323   4.865   0.230
22120WAT     H266603   1.446   4.766   0.193
22121WAT      O66604   8.459   1.831   2.660
22121WAT     H166605   8.527   1.832   2.587
22121WAT     H266606   8.457   1.919   2.706
22122WAT      O66607   8.887   9.225   3.357
22122WAT     H166608   8.889   9.252   3.453
22122WAT     H266609   8.837   9.139   3.348
22123WAT      O66610   1.248   3.338   5.329
22123WAT     H166611   1.237   3.437   5.318
22123WAT     H266612   1.200   3.291   5.255
22124WAT      O66613   7.118   6.130   1.099
22124WAT     H166614   7.096   6.079   1.183
22124WAT     H266615   7.050   6.202   1.084
22125WAT      O66616   5.077   9.752   4.521
22125WAT     H166617   5.102   9.711   4.609
22125WAT     H266618   5.065   9.850   4.533
22126WAT      O66619   1.244   7.501   9.828
22126WAT     H166620   1.244   7.548   9.739
22126WAT     H266621   1.276   7.407   9.815
22127WAT      O66622   9.614   0.796   9.416
22127WAT     H166623   9.522   0.798   9.456
22127WAT     H266624   9.620   0.719   9.352
22128WAT      O66625   4.311   9.609   3.081
22128WAT     H166626   4.405   9.576   3.079
22128WAT     H266627   4.272   9.593   3.171
22129WAT      O66628   3.862   5.664   4.664
22129WAT     H166629   3.884   5.613   4.581
22129WAT     H266630   3.823   5.753   4.639
22130WAT      O66631   5.968   1.984   4.104
22130WAT     H166632   5.873   1.988   4.134
22130WAT     H266633   6.026   2.033   4.168
22131WAT      O66634   1.837   4.313   8.313
22131WAT     H166635   1.748   4.312   8.359
22131WAT     H266636   1.880   4.223   8.323
22132WAT      O66637   9.725   5.545   2.630
22132WAT     H166638   9.633   5.582   2.635
22132WAT     H266639   9.754   5.517   2.722
22133WAT      O66640   1.456   5.468   0.572
22133WAT     H166641   1.416   5.543   0.519
22133WAT     H266642   1.505   5.407   0.510
22134WAT      O66643   1.053   9.746   3.343
22134WAT     H166644   0.959   9.779   3.337
22134WAT     H266645   1.075   9.726   3.438
22135WAT      O66646   9.322   0.072   3.318
22135WAT     H166647   9.379   0.005   3.363
22135WAT     H266648   9.273   0.029   3.242
22136WAT      O66649   3.124   5.488   6.434
22136WAT     H166650   3.135   5.394   6.466
22136WAT     H266651   3.208   5.539   6.453
22137WAT      O66652   3.960   5.347   8.129
22137WAT     H166653   3.987   5.414   8.061
22137WAT     H266654   3.992   5.376   8.219
22138WAT      O66655   3.798   9.334   2.278
22138WAT     H166656   3.800   9.242   2.238
22138WAT     H266657   3.831   9.400   2.210
22139WAT      O66658   9.672   4.124   0.476
22139WAT     H166659   9.641   4.205   0.428
22139WAT     H266660   9.600   4.055   0.477
22140WAT      O66661   4.235   6.340   6.174
22140WAT     H166662   4.260   6.265   6.235
22140WAT     H266663   4.158   6.312   6.117
22141WAT      O66664   4.266   5.413   0.531
22141WAT     H166665   4.326   5.386   0.455
22141WAT     H266666   4.231   5.332   0.576
22142WAT      O66667   5.178   7.605   0.475
22142WAT     H166668   5.179   7.527   0.538
22142WAT     H266669   5.085   7.641   0.469
22143WAT      O66670   5.035   5.262   3.313
22143WAT     H166671   4.937   5.248   3.325
22143WAT     H266672   5.052   5.356   3.285
22144WAT      O66673   4.841   4.760   6.703
22144WAT     H166674   4.794   4.790   6.620
22144WAT     H266675   4.912   4.693   6.678
22145WAT      O66676   0.431   2.875   0.155
22145WAT     H166677   0.447   2.828   0.242
22145WAT     H266678   0.508   2.859   0.094
22146WAT      O66679   4.840   7.224   8.427
22146WAT     H166680   4.869   7.182   8.340
22146WAT     H266681   4.850   7.323   8.420
22147WAT      O66682   4.660   4.949   1.849
22147WAT     H166683   4.643   4.914   1.757
22147WAT     H266684   4.578   4.940   1.904
22148WAT      O66685   5.161   8.432   3.164
22148WAT     H166686   5.108   8.469   3.241
22148WAT     H266687   5.162   8.333   3.170
22149WAT      O66688   1.378   3.567   7.077
22149WAT     H166689   1.317   3.512   7.135
22149WAT     H266690   1.364   3.541   6.981
22150WAT      O66691   6.828   3.576   1.907
22150WAT     H166692   6.918   3.609   1.877
22150WAT     H266693   6.771   3.559   1.826
22151WAT      O66694   0.349   7.665   9.282
22151WAT     H166695   0.420   7.644   9.349
22151WAT     H266696   0.353   7.598   9.208
22152WAT      O66697   5.987   1.936   3.825
22152WAT     H166698   5.892   1.919   3.800
22152WAT     H266699   5.993   1.953   3.924
22153WAT      O66700   8.344   8.062   4.981
22153WAT     H166701   8.361   8.037   4.886
22153WAT     H266702   8.386   7.994   5.041
22154WAT      O66703   2.587   9.777   4.884
22154WAT     H166704   2.502   9.815   4.846
22154WAT     H266705   2.642   9.851   4.923
22155WAT      O66706   2.976   3.604   0.237
22155WAT     H166707   3.059   3.569   0.192
22155WAT     H266708   2.957   3.697   0.205
22156WAT      O66709   4.791   3.552   4.220
22156WAT     H166710   4.840   3.636   4.242
22156WAT     H266711   4.855   3.475   4.224
22157WAT      O66712   2.287   1.909   6.569
22157WAT     H166713   2.297   1.825   6.622
22157WAT     H266714   2.212   1.899   6.505
22158WAT      O66715   9.029   4.618   4.352
22158WAT     H166716   9.088   4.550   4.308
22158WAT     H266717   8.971   4.662   4.283
22159WAT      O66718   9.125   8.163   5.534
22159WAT     H166719   9.224   8.150   5.541
22159WAT     H266720   9.079   8.088   5.581
22160WAT      O66721   3.614   9.108   6.615
22160WAT     H166722   3.531   9.134   6.664
22160WAT     H266723   3.589   9.055   6.534
22161WAT      O66724   7.122   4.429   4.588
22161WAT     H166725   7.031   4.418   4.547
22161WAT     H266726   7.128   4.520   4.631
22162WAT      O66727   2.038   4.398   0.964
22162WAT     H166728   2.010   4.485   1.005
22162WAT     H266729   2.079   4.416   0.874
22163WAT      O66730   5.931   7.969   8.547
22163WAT     H166731   5.974   7.885   8.515
22163WAT     H266732   5.982   8.005   8.625
22164WAT      O66733   8.926   1.532   9.431
22164WAT     H166734   8.988   1.543   9.509
22164WAT     H266735   8.937   1.610   9.369
22165WAT      O66736   0.416   6.116   4.093
22165WAT     H166737   0.322   6.109   4.058
22165WAT     H266738   0.450   6.209   4.081
22166WAT      O66739   7.687   1.006   9.207
22166WAT     H166740   7.636   0.973   9.287
22166WAT     H266741   7.662   1.101   9.188
22167WAT      O66742   8.787   4.798   0.214
22167WAT     H166743   8.765   4.743   0.295
22167WAT     H266744   8.790   4.895   0.238
22168WAT      O66745   0.613   6.503   1.621
22168WAT     H166746   0.539   6.568   1.602
22168WAT     H266747   0.604   6.424   1.561
22169WAT      O66748   9.188   5.460   0.289
22169WAT     H166749   9.149   5.416   0.370
22169WAT     H266750   9.117   5.475   0.221
22170WAT      O66751   0.149   6.348   2.548
22170WAT     H166752   0.067   6.339   2.603
22170WAT     H266753   0.202   6.264   2.552
22171WAT      O66754   3.531   6.127   1.279
22171WAT     H166755   3.568   6.219   1.290
22171WAT     H266756   3.471   6.105   1.356
22172WAT      O66757   8.223   2.569   0.855
22172WAT     H166758   8.244   2.626   0.935
22172WAT     H266759   8.193   2.478   0.886
22173WAT      O66760   7.383   2.034   7.211
22173WAT     H166761   7.418   2.120   7.176
22173WAT     H266762   7.405   1.960   7.148
22174WAT      O66763   7.716   6.255   3.594
22174WAT     H166764   7.671   6.345   3.596
22174WAT     H266765   7.648   6.184   3.608
22175WAT      O66766   5.247   2.835   4.844
22175WAT     H166767   5.199   2.822   4.758
22175WAT     H266768   5.187   2.881   4.909
22176WAT      O66769   5.075   1.494   6.202
22176WAT     H166770   5.060   1.487   6.104
22176WAT     H266771   5.079   1.591   6.228
22177WAT      O66772   8.462   2.210   6.962
22177WAT     H166773   8.375   2.175   6.928
22177WAT     H266774   8.466   2.309   6.946
22178WAT      O66775   3.318   8.031   2.971
22178WAT     H166776   3.384   8.087   2.921
22178WAT     H266777   3.227   8.044   2.931
22179WAT      O66778   0.404   5.640   8.308
22179WAT     H166779   0.363   5.619   8.220
22179WAT     H266780   0.338   5.625   8.381
22180WAT      O66781   3.761   3.056   9.768
22180WAT     H166782   3.682   2.995   9.762
22180WAT     H266783   3.729   3.150   9.780
22181WAT      O66784   7.427   5.788   1.551
22181WAT     H166785   7.361   5.766   1.623
22181WAT     H266786   7.504   5.837   1.590
22182WAT      O66787   1.917   7.114   2.804
22182WAT     H166788   1.908   7.017   2.781
22182WAT     H266789   1.982   7.124   2.880
22183WAT      O66790   0.763   6.128   3.859
22183WAT     H166791   0.731   6.061   3.792
22183WAT     H266792   0.749   6.220   3.823
22184WAT      O66793   2.906   9.189   0.517
22184WAT     H166794   2.987   9.244   0.537
22184WAT     H266795   2.906   9.106   0.574
22185WAT      O66796   3.574   0.547   0.975
22185WAT     H166797   3.476   0.529   0.961
22185WAT     H266798   3.604   0.505   1.061
22186WAT      O66799   4.502   9.300   6.023
22186WAT     H166800   4.547   9.316   5.936
22186WAT     H266801   4.555   9.235   6.077
22187WAT      O66802   0.700   7.700   9.038
22187WAT     H166803   0.718   7.725   8.943
22187WAT     H266804   0.674   7.781   9.090
22188WAT      O66805   2.453   4.833   9.804
22188WAT     H166806   2.489   4.925   9.793
22188WAT     H266807   2.353   4.836   9.803
22189WAT      O66808   2.010   8.501   0.032
22189WAT     H166809   1.920   8.541   0.015
22189WAT     H266810   2.008   8.404   0.010
22190WAT      O66811   4.619   0.930   3.100
22190WAT     H166812   4.681   0.890   3.167
22190WAT     H266813   4.666   1.001   3.048
22191WAT      O66814   8.144   6.768   0.069
22191WAT     H166815   8.224   6.829   0.064
22191WAT     H266816   8.061   6.823   0.062
22192WAT      O66817   4.373   2.268   2.128
22192WAT     H166818   4.283   2.265   2.172
22192WAT     H266819   4.433   2.327   2.181
22193WAT      O66820   2.386   9.593   3.078
22193WAT     H166821   2.324   9.646   3.020
22193WAT     H266822   2.358   9.603   3.174
22194WAT      O66823   1.150   4.699   1.129
22194WAT     H166824   1.221   4.670   1.065
22194WAT     H266825   1.111   4.618   1.174
22195WAT      O66826   0.689   6.227   2.030
22195WAT     H166827   0.784   6.196   2.021
22195WAT     H266828   0.662   6.221   2.126
22196WAT      O66829   9.848   4.837   4.940
22196WAT     H166830   9.775   4.906   4.942
22196WAT     H266831   9.871   4.816   4.845
22197WAT      O66832   3.038   8.656   3.868
22197WAT     H166833   3.103   8.615   3.804
22197WAT     H266834   3.005   8.743   3.831
22198WAT      O66835   9.478   5.420   3.605
22198WAT     H166836   9.477   5.320   3.606
22198WAT     H266837   9.452   5.454   3.695
22199WAT      O66838   8.242   7.156   0.838
22199WAT     H166839   8.241   7.059   0.814
22199WAT     H266840   8.331   7.180   0.876
22200WAT      O66841   5.515   7.290   2.991
22200WAT     H166842   5.559   7.354   3.054
22200WAT     H266843   5.585   7.233   2.948
22201WAT      O66844   7.577   2.618   5.416
22201WAT     H166845   7.499   2.572   5.374
22201WAT     H266846   7.636   2.656   5.346
22202WAT      O66847   8.446   5.985   1.932
22202WAT     H166848   8.429   5.929   1.850
22202WAT     H266849   8.359   6.018   1.968
22203WAT      O66850   8.215   2.288   3.384
22203WAT     H166851   8.123   2.314   3.415
22203WAT     H266852   8.207   2.219   3.312
22204WAT      O66853   8.621   4.919   5.647
22204WAT     H166854   8.687   4.860   5.694
22204WAT     H266855   8.529   4.900   5.681
22205WAT      O66856   7.839   2.091   6.773
22205WAT     H166857   7.934   2.121   6.776
22205WAT     H266858   7.795   2.111   6.861
22206WAT      O66859   5.436   3.517   4.427
22206WAT     H166860   5.414   3.612   4.448
22206WAT     H266861   5.535   3.502   4.439
22207WAT      O66862   9.004   6.282   4.461
22207WAT     H166863   9.070   6.329   4.402
22207WAT     H266864   9.041   6.194   4.489
22208WAT      O66865   5.110   6.537   1.984
22208WAT     H166866   5.099   6.636   1.981
22208WAT     H266867   5.066   6.496   1.905
22209WAT      O66868   9.044   8.188   9.786
22209WAT     H166869   9.002   8.215   9.872
22209WAT     H266870   9.129   8.138   9.805
22210WAT      O66871   8.924   5.052   2.275
22210WAT     H166872   8.987   5.121   2.239
22210WAT     H266873   8.974   4.987   2.331
22211WAT      O66874   4.971   8.772   6.919
22211WAT     H166875   4.979   8.794   7.016
22211WAT     H266876   5.025   8.690   6.898
22212WAT      O66877   7.700   5.740   0.598
22212WAT     H166878   7.653   5.702   0.519
22212WAT     H266879   7.790   5.773   0.570
22213WAT      O66880   0.895   5.097   5.144
22213WAT     H166881   0.854   5.049   5.067
22213WAT     H266882   0.885   5.041   5.227
22214WAT      O66883   6.998   8.159   4.497
22214WAT     H166884   7.081   8.107   4.479
22214WAT     H266885   7.011   8.254   4.470
22215WAT      O66886   6.894   2.990   9.160
22215WAT     H166887   6.860   3.079   9.129
22215WAT     H266888   6.978   3.003   9.212
22216WAT      O66889   8.299   6.238   5.040
22216WAT     H166890   8.298   6.311   4.972
22216WAT     H266891   8.209   6.233   5.085
22217WAT      O66892   5.462   1.343   5.147
22217WAT     H166893   5.440   1.334   5.050
22217WAT     H266894   5.423   1.428   5.182
22218WAT      O66895   9.648   5.564   2.183
22218WAT     H166896   9.704   5.586   2.262
22218WAT     H266897   9.607   5.647   2.146
22219WAT      O66898   7.665   2.652   0.910
22219WAT     H166899   7.688   2.625   1.004
22219WAT     H266900   7.662   2.751   0.904
22220WAT      O66901   7.949   0.143   3.218
22220WAT     H166902   7.945   0.236   3.255
22220WAT     H266903   7.973   0.147   3.121
22221WAT      O66904   9.484   1.775   0.309
22221WAT     H166905   9.562   1.832   0.335
22221WAT     H266906   9.465   1.709   0.382
22222WAT      O66907   1.080   0.851   8.974
22222WAT     H166908   1.106   0.890   9.062
22222WAT     H266909   1.162   0.829   8.921
22223WAT      O66910   4.937   1.158   2.229
22223WAT     H166911   4.919   1.256   2.221
22223WAT     H266912   4.893   1.123   2.312
22224WAT      O66913   6.157   3.032   2.592
22224WAT     H166914   6.085   3.100   2.582
22224WAT     H266915   6.120   2.941   2.572
22225WAT      O66916   5.589   6.607   8.049
22225WAT     H166917   5.622   6.583   7.958
22225WAT     H266918   5.640   6.685   8.084
22226WAT      O66919   9.010   4.246   4.465
22226WAT     H166920   8.936   4.305   4.499
22226WAT     H266921   9.006   4.243   4.365
22227WAT      O66922   9.185   5.839   4.640
22227WAT     H166923   9.206   5.797   4.728
22227WAT     H266924   9.257   5.904   4.616
22228WAT      O66925   5.589   3.673   7.227
22228WAT     H166926   5.526   3.712   7.160
22228WAT     H266927   5.657   3.618   7.181
22229WAT      O66928   2.574   1.535   8.408
22229WAT     H166929   2.576   1.629   8.376
22229WAT     H266930   2.494   1.489   8.370
22230WAT      O66931   6.629   4.650   1.269
22230WAT     H166932   6.614   4.552   1.255
22230WAT     H266933   6.636   4.668   1.368
22231WAT      O66934   8.874   7.235   8.129
22231WAT     H166935   8.860   7.261   8.225
22231WAT     H266936   8.950   7.170   8.124
22232WAT      O66937   8.494   3.005   4.780
22232WAT     H166938   8.485   3.090   4.832
22232WAT     H266939   8.510   2.929   4.843
22233WAT      O66940   8.291   3.953   3.887
22233WAT     H166941   8.205   3.959   3.837
22233WAT     H266942   8.277   3.982   3.981
22234WAT      O66943   2.845   4.478   3.065
22234WAT     H166944   2.893   4.544   3.007
22234WAT     H266945   2.829   4.518   3.155
22235WAT      O66946   3.861   7.552   3.804
22235WAT     H166947   3.851   7.456   3.831
22235WAT     H266948   3.958   7.576   3.798
22236WAT      O66949   0.536   7.958   7.362
22236WAT     H166950   0.440   7.934   7.376
22236WAT     H266951   0.548   7.996   7.271
22237WAT      O66952   0.247   0.630   7.156
22237WAT     H166953   0.336   0.604   7.118
22237WAT     H266954   0.256   0.645   7.254
22238WAT      O66955   6.283   0.211   1.739
22238WAT     H166956   6.376   0.209   1.704
22238WAT     H266957   6.259   0.120   1.774
22239WAT      O66958   7.892   7.067   6.699
22239WAT     H166959   7.838   7.082   6.782
22239WAT     H266960   7.989   7.078   6.720
22240WAT      O66961   2.530   6.070   3.535
22240WAT     H166962   2.443   6.021   3.528
22240WAT     H266963   2.514   6.168   3.521
22241WAT      O66964   1.199   1.684   2.267
22241WAT     H166965   1.292   1.702   2.300
22241WAT     H266966   1.200   1.670   2.168
22242WAT      O66967   6.070   7.048   4.625
22242WAT     H166968   6.107   7.008   4.541
22242WAT     H266969   6.044   7.143   4.608
22243WAT      O66970   5.524   3.706   4.777
22243WAT     H166971   5.617   3.680   4.750
22243WAT     H266972   5.519   3.806   4.782
22244WAT      O66973   9.159   2.729   4.364
22244WAT     H166974   9.089   2.736   4.293
22244WAT     H266975   9.212   2.646   4.350
22245WAT      O66976   7.482   1.736   5.380
22245WAT     H166977   7.573   1.697   5.367
22245WAT     H266978   7.435   1.742   5.292
22246WAT      O66979   0.139   0.949   6.870
22246WAT     H166980   0.238   0.935   6.867
22246WAT     H266981   0.113   0.990   6.957
22247WAT      O66982   0.304   9.345   1.775
22247WAT     H166983   0.287   9.428   1.828
22247WAT     H266984   0.350   9.278   1.832
22248WAT      O66985   1.472   7.532   6.810
22248WAT     H166986   1.388   7.586   6.817
22248WAT     H266987   1.534   7.576   6.744
22249WAT      O66988   8.751   9.608   3.898
22249WAT     H166989   8.660   9.587   3.861
22249WAT     H266990   8.818   9.604   3.824
22250WAT      O66991   4.214   3.387   1.102
22250WAT     H166992   4.161   3.334   1.036
22250WAT     H266993   4.309   3.356   1.102
22251WAT      O66994   8.822   8.133   4.132
22251WAT     H166995   8.891   8.078   4.180
22251WAT     H266996   8.731   8.104   4.161
22252WAT      O66997   6.443   6.713   6.734
22252WAT     H166998   6.530   6.756   6.760
22252WAT     H266999   6.457   6.616   6.720
22253WAT      O67000   4.254   8.347   0.260
22253WAT     H167001   4.330   8.403   0.292
22253WAT     H267002   4.262   8.255   0.300
22254WAT      O67003   8.085   6.087   8.409
22254WAT     H167004   8.079   6.053   8.316
22254WAT     H267005   8.017   6.040   8.466
22255WAT      O67006   9.453   0.006   4.882
22255WAT     H167007   9.458  -0.094   4.874
22255WAT     H267008   9.357   0.034   4.887
22256WAT      O67009   6.360   3.070   7.306
22256WAT     H167010   6.438   3.097   7.364
22256WAT     H267011   6.315   3.152   7.271
22257WAT      O67012   8.912   6.378   4.142
22257WAT     H167013   8.849   6.310   4.181
22257WAT     H267014   8.976   6.332   4.081
22258WAT      O67015   7.732   7.247   8.613
22258WAT     H167016   7.791   7.313   8.566
22258WAT     H267017   7.646   7.238   8.563
22259WAT      O67018   8.735   5.515   1.948
22259WAT     H167019   8.824   5.478   1.923
22259WAT     H267020   8.693   5.456   2.017
22260WAT      O67021   8.547   5.267   6.523
22260WAT     H167022   8.567   5.314   6.609
22260WAT     H267023   8.580   5.173   6.528
22261WAT      O67024   4.501   9.186   0.329
22261WAT     H167025   4.437   9.262   0.319
22261WAT     H267026   4.532   9.179   0.424
22262WAT      O67027   7.800   0.615   4.864
22262WAT     H167028   7.723   0.648   4.918
22262WAT     H267029   7.837   0.690   4.809
22263WAT      O67030   3.818   0.264   6.642
22263WAT     H167031   3.904   0.315   6.645
22263WAT     H267032   3.771   0.274   6.730
22264WAT      O67033   7.091   8.420   5.741
22264WAT     H167034   7.153   8.469   5.679
22264WAT     H267035   7.059   8.483   5.812
22265WAT      O67036   1.704   0.947   1.708
22265WAT     H167037   1.608   0.947   1.736
22265WAT     H267038   1.756   1.008   1.767
22266WAT      O67039   1.116   6.640   1.976
22266WAT     H167040   1.128   6.547   1.942
22266WAT     H267041   1.089   6.637   2.072
22267WAT      O67042   7.410   7.357   7.504
22267WAT     H167043   7.508   7.361   7.524
22267WAT     H267044   7.393   7.287   7.434
22268WAT      O67045   5.011   6.814   4.152
22268WAT     H167046   5.031   6.797   4.056
22268WAT     H267047   4.922   6.860   4.159
22269WAT      O67048   5.110   3.300   6.934
22269WAT     H167049   5.016   3.317   6.906
22269WAT     H267050   5.140   3.212   6.895
22270WAT      O67051   1.460   0.458   9.690
22270WAT     H167052   1.430   0.366   9.664
22270WAT     H267053   1.556   0.470   9.666
22271WAT      O67054   1.095   1.605   9.152
22271WAT     H167055   1.132   1.546   9.080
22271WAT     H267056   1.007   1.643   9.123
22272WAT      O67057   3.900   3.812   0.612
22272WAT     H167058   3.981   3.827   0.555
22272WAT     H267059   3.920   3.742   0.680
22273WAT      O67060   1.012   3.878   3.777
22273WAT     H167061   1.003   3.779   3.790
22273WAT     H267062   0.990   3.925   3.863
22274WAT      O67063   6.386   5.207   3.540
22274WAT     H167064   6.372   5.303   3.516
22274WAT     H267065   6.465   5.171   3.490
22275WAT      O67066   5.060   6.512   5.189
22275WAT     H167067   5.000   6.458   5.129
22275WAT     H267068   5.120   6.569   5.133
22276WAT      O67069   8.429   8.504   8.190
22276WAT     H167070   8.366   8.577   8.218
22276WAT     H267071   8.452   8.447   8.269
22277WAT      O67072   2.190   9.701   5.945
22277WAT     H167073   2.144   9.773   5.893
22277WAT     H267074   2.287   9.699   5.920
22278WAT      O67075   7.737   1.826   0.337
22278WAT     H167076   7.802   1.897   0.309
22278WAT     H267077   7.694   1.786   0.256
22279WAT      O67078   6.312   1.419   4.755
22279WAT     H167079   6.297   1.513   4.785
22279WAT     H267080   6.398   1.385   4.794
22280WAT      O67081   6.177   9.298   3.341
22280WAT     H167082   6.123   9.245   3.406
22280WAT     H267083   6.149   9.273   3.248
22281WAT      O67084   2.582   0.111   8.250
22281WAT     H167085   2.603   0.166   8.168
22281WAT     H267086   2.524   0.034   8.224
22282WAT      O67087   0.071   1.131   7.087
22282WAT     H167088   0.075   1.189   7.169
22282WAT     H267089   0.069   1.189   7.005
22283WAT      O67090   0.186   3.254   6.131
22283WAT     H167091   0.153   3.344   6.159
22283WAT     H267092   0.125   3.183   6.167
22284WAT      O67093   2.394   7.801   0.068
22284WAT     H167094   2.492   7.803   0.049
22284WAT     H267095   2.362   7.892   0.093
22285WAT      O67096   5.662   0.705   3.357
22285WAT     H167097   5.586   0.738   3.301
22285WAT     H267098   5.679   0.608   3.336
22286WAT      O67099   4.493   1.370   5.950
22286WAT     H167100   4.538   1.448   5.907
22286WAT     H267101   4.532   1.285   5.914
22287WAT      O67102   3.101   2.403   1.632
22287WAT     H167103   3.115   2.488   1.683
22287WAT     H267104   3.185   2.379   1.584
22288WAT      O67105   2.977   4.973   2.038
22288WAT     H167106   3.027   4.957   1.953
22288WAT     H267107   2.920   5.055   2.028
22289WAT      O67108   7.128   4.464   6.969
22289WAT     H167109   7.201   4.532   6.959
22289WAT     H267110   7.039   4.510   6.964
22290WAT      O67111   9.847   8.732   0.126
22290WAT     H167112   9.770   8.706   0.184
22290WAT     H267113   9.857   8.831   0.126
22291WAT      O67114   4.338   4.113   7.526
22291WAT     H167115   4.280   4.186   7.561
22291WAT     H267116   4.346   4.121   7.426
22292WAT      O67117   4.859   1.513   5.579
22292WAT     H167118   4.893   1.522   5.486
22292WAT     H267119   4.767   1.475   5.577
22293WAT      O67120   2.186   4.344   4.261
22293WAT     H167121   2.277   4.314   4.289
22293WAT     H267122   2.151   4.410   4.328
22294WAT      O67123   8.576   2.712   9.722
22294WAT     H167124   8.522   2.657   9.786
22294WAT     H267125   8.561   2.809   9.742
22295WAT      O67126   7.601   4.111   3.333
22295WAT     H167127   7.607   4.110   3.233
22295WAT     H267128   7.519   4.062   3.362
22296WAT      O67129   9.598   3.118   1.729
22296WAT     H167130   9.519   3.176   1.708
22296WAT     H267131   9.568   3.036   1.776
22297WAT      O67132   4.785   6.679   5.050
22297WAT     H167133   4.835   6.748   5.103
22297WAT     H267134   4.744   6.612   5.112
22298WAT      O67135   4.720   6.461   1.074
22298WAT     H167136   4.816   6.448   1.099
22298WAT     H267137   4.666   6.386   1.112
22299WAT      O67138   9.361   0.883   7.925
22299WAT     H167139   9.460   0.900   7.922
22299WAT     H267140   9.344   0.784   7.925
22300WAT      O67141   2.353   1.368   7.943
22300WAT     H167142   2.300   1.440   7.988
22300WAT     H267143   2.438   1.407   7.906
22301WAT      O67144   2.861   9.284   8.666
22301WAT     H167145   2.783   9.320   8.616
22301WAT     H267146   2.832   9.207   8.724
22302WAT      O67147   1.920   0.861   3.795
22302WAT     H167148   2.009   0.893   3.762
22302WAT     H267149   1.853   0.934   3.787
22303WAT      O67150   2.420   1.227   7.033
22303WAT     H167151   2.486   1.180   7.091
22303WAT     H267152   2.330   1.225   7.076
22304WAT      O67153   9.227   4.776   1.742
22304WAT     H167154   9.277   4.821   1.816
22304WAT     H267155   9.257   4.813   1.654
22305WAT      O67156   3.916   8.283   5.060
22305WAT     H167157   3.859   8.267   5.141
22305WAT     H267158   3.947   8.195   5.023
22306WAT      O67159   2.887   0.769   4.476
22306WAT     H167160   2.871   0.750   4.379
22306WAT     H267161   2.925   0.861   4.486
22307WAT      O67162   8.482   4.913   4.226
22307WAT     H167163   8.470   4.814   4.227
22307WAT     H267164   8.447   4.951   4.311
22308WAT      O67165   5.859   8.348   5.805
22308WAT     H167166   5.944   8.339   5.857
22308WAT     H267167   5.842   8.264   5.755
22309WAT      O67168   3.349   1.040   8.834
22309WAT     H167169   3.257   1.048   8.797
22309WAT     H267170   3.402   0.976   8.777
22310WAT      O67171   3.283   7.625   8.037
22310WAT     H167172   3.232   7.551   8.081
22310WAT     H267173   3.238   7.713   8.056
22311WAT      O67174   9.676   0.377   2.019
22311WAT     H167175   9.595   0.434   2.035
22311WAT     H267176   9.661   0.287   2.060
22312WAT      O67177   1.734   2.637   2.107
22312WAT     H167178   1.815   2.689   2.133
22312WAT     H267179   1.762   2.551   2.065
22313WAT      O67180   2.318   6.984   3.816
22313WAT     H167181   2.389   7.010   3.882
22313WAT     H267182   2.228   7.010   3.850
22314WAT      O67183   8.881   1.305   7.449
22314WAT     H167184   8.788   1.307   7.414
22314WAT     H267185   8.914   1.211   7.453
22315WAT      O67186   9.060   2.385   1.329
22315WAT     H167187   9.083   2.288   1.323
22315WAT     H267188   9.063   2.425   1.238
22316WAT      O67189   2.980   5.149   8.723
22316WAT     H167190   2.945   5.165   8.815
22316WAT     H267191   3.078   5.134   8.726
22317WAT      O67192   5.383   3.471   4.161
22317WAT     H167193   5.405   3.563   4.128
22317WAT     H267194   5.403   3.465   4.258
22318WAT      O67195   2.513   1.431   1.280
22318WAT     H167196   2.417   1.445   1.301
22318WAT     H267197   2.569   1.483   1.345
22319WAT      O67198   6.473   1.613   0.957
22319WAT     H167199   6.421   1.628   0.874
22319WAT     H267200   6.422   1.552   1.018
22320WAT      O67201   9.039   9.263   1.093
22320WAT     H167202   8.982   9.345   1.098
22320WAT     H267203   9.098   9.268   1.013
22321WAT      O67204   2.881   3.523   5.232
22321WAT     H167205   2.868   3.502   5.329
22321WAT     H267206   2.851   3.617   5.214
22322WAT      O67207   8.930   2.214   9.582
22322WAT     H167208   8.887   2.257   9.503
22322WAT     H267209   8.940   2.116   9.565
22323WAT      O67210   5.347   1.077   1.554
22323WAT     H167211   5.392   1.087   1.466
22323WAT     H267212   5.301   1.163   1.578
22324WAT      O67213   0.844   5.071   2.980
22324WAT     H167214   0.931   5.108   2.948
22324WAT     H267215   0.791   5.143   3.024
22325WAT      O67216   8.376   0.779   9.001
22325WAT     H167217   8.298   0.841   8.998
22325WAT     H267218   8.350   0.695   9.049
22326WAT      O67219   9.660   3.059   2.948
22326WAT     H167220   9.614   3.135   2.994
22326WAT     H267221   9.605   3.029   2.870
22327WAT      O67222   6.470   9.410   3.076
22327WAT     H167223   6.475   9.391   3.174
22327WAT     H267224   6.415   9.492   3.061
22328WAT      O67225   1.679   5.948   9.014
22328WAT     H167226   1.731   5.990   9.089
22328WAT     H267227   1.742   5.895   8.956
22329WAT      O67228   7.404   1.224   4.662
22329WAT     H167229   7.386   1.225   4.761
22329WAT     H267230   7.332   1.171   4.617
22330WAT      O67231   5.364   7.961   3.598
22330WAT     H167232   5.283   7.944   3.542
22330WAT     H267233   5.426   8.024   3.550
22331WAT      O67234   2.798   1.139   7.146
22331WAT     H167235   2.831   1.198   7.219
22331WAT     H267236   2.728   1.076   7.182
22332WAT      O67237   7.157   9.376   9.367
22332WAT     H167238   7.169   9.471   9.336
22332WAT     H267239   7.067   9.343   9.338
22333WAT      O67240   8.044   8.470   6.316
22333WAT     H167241   8.016   8.391   6.371
22333WAT     H267242   8.095   8.438   6.236
22334WAT      O67243   0.962   0.395   4.266
22334WAT     H167244   1.057   0.364   4.279
22334WAT     H267245   0.915   0.397   4.354
22335WAT      O67246   3.400   2.904   3.652
22335WAT     H167247   3.307   2.918   3.688
22335WAT     H267248   3.394   2.873   3.557
22336WAT      O67249   4.684   0.663   0.693
22336WAT     H167250   4.756   0.681   0.626
22336WAT     H267251   4.639   0.749   0.719
22337WAT      O67252   9.204   4.025   6.204
22337WAT     H167253   9.134   4.035   6.275
22337WAT     H267254   9.194   4.097   6.136
22338WAT      O67255   6.414   3.514   9.568
22338WAT     H167256   6.352   3.499   9.491
22338WAT     H267257   6.367   3.565   9.639
22339WAT      O67258   6.381   8.144   6.835
22339WAT     H167259   6.458   8.127   6.897
22339WAT     H267260   6.402   8.105   6.745
22340WAT      O67261   1.736   7.942   8.853
22340WAT     H167262   1.696   7.869   8.909
22340WAT     H267263   1.760   7.905   8.763
22341WAT      O67264   1.441   3.310   0.495
22341WAT     H167265   1.353   3.271   0.467
22341WAT     H267266   1.465   3.385   0.434
22342WAT      O67267   9.758   6.959   2.402
22342WAT     H167268   9.741   7.051   2.437
22342WAT     H267269   9.855   6.936   2.412
22343WAT      O67270   3.110   5.771   1.753
22343WAT     H167271   3.130   5.758   1.656
22343WAT     H267272   3.017   5.740   1.772
22344WAT      O67273   2.458   0.253   9.084
22344WAT     H167274   2.550   0.280   9.113
22344WAT     H267275   2.417   0.194   9.154
22345WAT      O67276   8.300   5.575   3.936
22345WAT     H167277   8.287   5.629   4.020
22345WAT     H267278   8.227   5.507   3.930
22346WAT      O67279   6.138   2.365   1.279
22346WAT     H167280   6.155   2.454   1.321
22346WAT     H267281   6.215   2.303   1.298
22347WAT      O67282   0.937   8.200   9.328
22347WAT     H167283   0.952   8.206   9.427
22347WAT     H267284   0.926   8.104   9.303
22348WAT      O67285   5.291   0.456   2.751
22348WAT     H167286   5.247   0.476   2.663
22348WAT     H267287   5.391   0.459   2.740
22349WAT      O67288   0.284   6.750   1.330
22349WAT     H167289   0.227   6.672   1.357
22349WAT     H267290   0.232   6.808   1.266
22350WAT      O67291   8.789   4.098   2.542
22350WAT     H167292   8.865   4.159   2.519
22350WAT     H267293   8.726   4.092   2.465
22351WAT      O67294   6.430   6.433   7.315
22351WAT     H167295   6.473   6.365   7.256
22351WAT     H267296   6.473   6.522   7.300
22352WAT      O67297   1.624   7.922   1.628
22352WAT     H167298   1.538   7.881   1.657
22352WAT     H267299   1.660   7.981   1.701
22353WAT      O67300   9.794   2.372   2.346
22353WAT     H167301   9.834   2.291   2.304
22353WAT     H267302   9.705   2.348   2.386
22354WAT      O67303   8.531   6.585   3.949
22354WAT     H167304   8.535   6.650   4.025
22354WAT     H267305   8.620   6.583   3.903
22355WAT      O67306   2.553   4.851   0.841
22355WAT     H167307   2.564   4.868   0.939
22355WAT     H267308   2.591   4.761   0.818
22356WAT      O67309   7.223   4.975   7.741
22356WAT     H167310   7.231   4.995   7.643
22356WAT     H267311   7.312   4.950   7.777
22357WAT      O67312   1.869   4.970   2.922
22357WAT     H167313   1.794   4.916   2.959
22357WAT     H267314   1.912   4.920   2.846
22358WAT      O67315   6.790   1.492   1.241
22358WAT     H167316   6.723   1.552   1.284
22358WAT     H267317   6.784   1.401   1.282
22359WAT      O67318   5.414   0.458   2.138
22359WAT     H167319   5.475   0.499   2.070
22359WAT     H267320   5.421   0.510   2.224
22360WAT      O67321   4.509   8.862   6.064
22360WAT     H167322   4.422   8.907   6.041
22360WAT     H267323   4.510   8.840   6.161
22361WAT      O67324   6.617   8.419   3.961
22361WAT     H167325   6.712   8.406   3.990
22361WAT     H267326   6.616   8.460   3.870
22362WAT      O67327   5.382   4.224   6.036
22362WAT     H167328   5.295   4.190   6.000
22362WAT     H267329   5.457   4.190   5.981
22363WAT      O67330   1.079   9.032   8.196
22363WAT     H167331   1.175   9.029   8.166
22363WAT     H267332   1.071   8.996   8.289
22364WAT      O67333   4.911   1.407   8.035
22364WAT     H167334   4.931   1.500   8.066
22364WAT     H267335   4.813   1.394   8.026
22365WAT      O67336   2.009   2.419   8.387
22365WAT     H167337   2.049   2.453   8.301
22365WAT     H267338   1.914   2.392   8.371
22366WAT      O67339   7.947   1.343   7.592
22366WAT     H167340   7.979   1.425   7.545
22366WAT     H267341   7.965   1.262   7.535
22367WAT      O67342   9.537   1.690   4.194
22367WAT     H167343   9.513   1.779   4.232
22367WAT     H267344   9.457   1.630   4.196
22368WAT      O67345   0.513   5.242   8.298
22368WAT     H167346   0.478   5.151   8.277
22368WAT     H267347   0.443   5.296   8.345
22369WAT      O67348   5.964   8.728   6.394
22369WAT     H167349   6.055   8.720   6.352
22369WAT     H267350   5.895   8.694   6.331
22370WAT      O67351   9.718   5.752   5.828
22370WAT     H167352   9.816   5.750   5.849
22370WAT     H267353   9.676   5.666   5.858
22371WAT      O67354   8.583   7.608   0.277
22371WAT     H167355   8.587   7.566   0.186
22371WAT     H267356   8.669   7.655   0.295
22372WAT      O67357   0.309   5.414   7.352
22372WAT     H167358   0.398   5.429   7.308
22372WAT     H267359   0.276   5.322   7.332
22373WAT      O67360   5.614   1.497   7.362
22373WAT     H167361   5.635   1.534   7.271
22373WAT     H267362   5.583   1.403   7.353
22374WAT      O67363   6.114   9.174   5.949
22374WAT     H167364   6.090   9.262   5.907
22374WAT     H267365   6.205   9.181   5.990
22375WAT      O67366   5.477   5.554   0.232
22375WAT     H167367   5.555   5.581   0.288
22375WAT     H267368   5.487   5.459   0.202
22376WAT      O67369   5.703   0.467   7.886
22376WAT     H167370   5.625   0.407   7.872
22376WAT     H267371   5.672   0.562   7.890
22377WAT      O67372   1.642   1.812   0.506
22377WAT     H167373   1.675   1.727   0.465
22377WAT     H267374   1.592   1.791   0.590
22378WAT      O67375   8.637   9.634   7.147
22378WAT     H167376   8.628   9.604   7.052
22378WAT     H267377   8.734   9.648   7.168
22379WAT      O67378   9.887   3.052   8.869
22379WAT     H167379   9.788   3.052   8.874
22379WAT     H267380   9.924   3.107   8.944
22380WAT      O67381   2.690   9.319   3.590
22380WAT     H167382   2.757   9.341   3.520
22380WAT     H267383   2.702   9.225   3.621
22381WAT      O67384   7.993   8.202   6.502
22381WAT     H167385   7.943   8.138   6.560
22381WAT     H267386   7.942   8.217   6.417
22382WAT      O67387   3.140   9.515   8.394
22382WAT     H167388   3.229   9.518   8.438
22382WAT     H267389   3.093   9.430   8.419
22383WAT      O67390   6.679   2.577   2.928
22383WAT     H167391   6.625   2.633   2.865
22383WAT     H267392   6.776   2.601   2.920
22384WAT      O67393   8.667   6.795   0.930
22384WAT     H167394   8.647   6.879   0.879
22384WAT     H267395   8.618   6.797   1.017
22385WAT      O67396   5.705   7.585   4.416
22385WAT     H167397   5.774   7.640   4.370
22385WAT     H267398   5.678   7.629   4.502
22386WAT      O67399   6.650   9.085   2.850
22386WAT     H167400   6.638   8.991   2.819
22386WAT     H267401   6.723   9.129   2.799
22387WAT      O67402   8.597   1.881   6.113
22387WAT     H167403   8.672   1.885   6.048
22387WAT     H267404   8.604   1.957   6.177
22388WAT      O67405   7.102   0.203   7.726
22388WAT     H167406   7.152   0.163   7.803
22388WAT     H267407   7.101   0.137   7.650
22389WAT      O67408   9.631   2.883   4.664
22389WAT     H167409   9.533   2.863   4.661
22389WAT     H267410   9.646   2.975   4.700
22390WAT      O67411   7.919   3.772   2.381
22390WAT     H167412   7.882   3.861   2.356
22390WAT     H267413   8.018   3.781   2.396
22391WAT      O67414   6.026   8.712   7.505
22391WAT     H167415   6.055   8.617   7.493
22391WAT     H267416   5.937   8.725   7.463
22392WAT      O67417   5.358   9.155   9.042
22392WAT     H167418   5.322   9.210   9.118
22392WAT     H267419   5.307   9.070   9.036
22393WAT      O67420   3.028   1.882   0.086
22393WAT     H167421   3.001   1.957   0.147
22393WAT     H267422   2.982   1.892  -0.002
22394WAT      O67423   4.657   5.059   7.249
22394WAT     H167424   4.738   5.009   7.278
22394WAT     H267425   4.680   5.121   7.175
22395WAT      O67426   4.829   7.062   0.345
22395WAT     H167427   4.743   7.082   0.297
22395WAT     H267428   4.810   7.003   0.423
22396WAT      O67429   2.869   6.115   4.886
22396WAT     H167430   2.885   6.171   4.804
22396WAT     H267431   2.914   6.157   4.964
22397WAT      O67432   1.530   7.487   4.416
22397WAT     H167433   1.442   7.440   4.418
22397WAT     H267434   1.591   7.440   4.353
22398WAT      O67435   4.643   3.793   6.376
22398WAT     H167436   4.605   3.759   6.291
22398WAT     H267437   4.579   3.857   6.419
22399WAT      O67438   4.819   3.763   3.991
22399WAT     H167439   4.913   3.731   3.993
22399WAT     H267440   4.802   3.820   4.071
22400WAT      O67441   3.711   4.260   8.037
22400WAT     H167442   3.716   4.354   8.073
22400WAT     H267443   3.626   4.217   8.068
22401WAT      O67444   4.268   0.303   9.287
22401WAT     H167445   4.329   0.381   9.272
22401WAT     H267446   4.295   0.255   9.370
22402WAT      O67447   7.633   4.634   2.058
22402WAT     H167448   7.674   4.725   2.049
22402WAT     H267449   7.681   4.570   1.998
22403WAT      O67450   7.809   4.800   4.460
22403WAT     H167451   7.761   4.870   4.514
22403WAT     H267452   7.841   4.840   4.374
22404WAT      O67453   5.642   1.956   8.606
22404WAT     H167454   5.690   2.041   8.586
22404WAT     H267455   5.544   1.972   8.611
22405WAT      O67456   5.347   5.220   1.280
22405WAT     H167457   5.343   5.155   1.356
22405WAT     H267458   5.433   5.209   1.231
22406WAT      O67459   7.535   7.263   9.452
22406WAT     H167460   7.461   7.279   9.517
22406WAT     H267461   7.511   7.186   9.393
22407WAT      O67462   6.163   9.576   3.396
22407WAT     H167463   6.140   9.479   3.396
22407WAT     H267464   6.213   9.599   3.479
22408WAT      O67465   9.654   2.221   7.365
22408WAT     H167466   9.719   2.211   7.440
22408WAT     H267467   9.605   2.308   7.375
22409WAT      O67468   7.422   9.092   0.901
22409WAT     H167469   7.421   9.174   0.844
22409WAT     H267470   7.364   9.106   0.981
22410WAT      O67471   3.337   8.535   9.250
22410WAT     H167472   3.270   8.470   9.287
22410WAT     H267473   3.289   8.611   9.207
22411WAT      O67474   1.298   7.719   1.139
22411WAT     H167475   1.291   7.774   1.222
22411WAT     H267476   1.334   7.777   1.065
22412WAT      O67477   5.084   9.236   0.443
22412WAT     H167478   5.126   9.327   0.447
22412WAT     H267479   5.156   9.166   0.444
22413WAT      O67480   4.506   6.339   7.512
22413WAT     H167481   4.438   6.364   7.443
22413WAT     H267482   4.598   6.362   7.479
22414WAT      O67483   9.631   5.900   4.556
22414WAT     H167484   9.621   5.834   4.630
22414WAT     H267485   9.727   5.926   4.548
22415WAT      O67486   4.912   0.591   6.542
22415WAT     H167487   5.009   0.617   6.543
22415WAT     H267488   4.889   0.552   6.453
22416WAT      O67489   6.678   1.537   3.200
22416WAT     H167490   6.583   1.527   3.228
22416WAT     H267491   6.718   1.446   3.184
22417WAT      O67492   6.979   4.721   9.591
22417WAT     H167493   6.892   4.721   9.542
22417WAT     H267494   7.029   4.805   9.569
22418WAT      O67495   9.484   2.058   3.861
22418WAT     H167496   9.396   2.043   3.815
22418WAT     H267497   9.530   2.137   3.820
22419WAT      O67498   8.219   8.741   8.165
22419WAT     H167499   8.172   8.746   8.077
22419WAT     H267500   8.159   8.697   8.232
22420WAT      O67501   0.846   0.004   8.408
22420WAT     H167502   0.853   0.053   8.321
22420WAT     H267503   0.919   0.035   8.469
22421WAT      O67504   9.169   5.833   6.733
22421WAT     H167505   9.177   5.733   6.738
22421WAT     H267506   9.095   5.857   6.669
22422WAT      O67507   8.865   9.095   9.530
22422WAT     H167508   8.848   9.148   9.612
22422WAT     H267509   8.873   8.998   9.553
22423WAT      O67510   7.279   1.430   5.617
22423WAT     H167511   7.274   1.337   5.582
22423WAT     H267512   7.375   1.456   5.628
22424WAT      O67513   2.527   6.018   0.992
22424WAT     H167514   2.602   6.082   0.979
22424WAT     H267515   2.440   6.067   0.992
22425WAT      O67516   9.264   2.823   9.715
22425WAT     H167517   9.238   2.772   9.797
22425WAT     H267518   9.364   2.827   9.709
22426WAT      O67519   3.730   7.160   5.193
22426WAT     H167520   3.805   7.153   5.258
22426WAT     H267521   3.661   7.222   5.228
22427WAT      O67522   7.012   6.643   0.622
22427WAT     H167523   7.072   6.596   0.557
22427WAT     H267524   7.048   6.634   0.714
22428WAT      O67525   5.514   6.698   2.848
22428WAT     H167526   5.584   6.665   2.785
22428WAT     H267527   5.495   6.795   2.830
22429WAT      O67528   1.140   9.199   7.755
22429WAT     H167529   1.180   9.241   7.837
22429WAT     H267530   1.042   9.222   7.750
22430WAT      O67531   6.008   3.692   2.126
22430WAT     H167532   6.047   3.640   2.202
22430WAT     H267533   5.914   3.664   2.111
22431WAT      O67534   2.920   1.084   7.977
22431WAT     H167535   2.935   1.019   8.051
22431WAT     H267536   2.830   1.127   7.988
22432WAT      O67537   1.365   5.376   1.582
22432WAT     H167538   1.331   5.408   1.494
22432WAT     H267539   1.315   5.421   1.656
22433WAT      O67540   9.474   9.299   7.350
22433WAT     H167541   9.484   9.315   7.252
22433WAT     H267542   9.415   9.369   7.390
22434WAT      O67543   0.659   5.348   7.859
22434WAT     H167544   0.606   5.354   7.774
22434WAT     H267545   0.709   5.261   7.860
22435WAT      O67546   6.987   8.228   3.344
22435WAT     H167547   6.936   8.265   3.266
22435WAT     H267548   7.054   8.161   3.311
22436WAT      O67549   1.713   6.142   2.649
22436WAT     H167550   1.793   6.169   2.704
22436WAT     H267551   1.706   6.042   2.649
22437WAT      O67552   7.063   4.603   3.296
22437WAT     H167553   6.989   4.598   3.364
22437WAT     H267554   7.028   4.576   3.206
22438WAT      O67555   9.159   8.569   5.174
22438WAT     H167556   9.240   8.616   5.210
22438WAT     H267557   9.183   8.524   5.088
22439WAT      O67558   6.657   3.343   3.618
22439WAT     H167559   6.732   3.351   3.684
22439WAT     H267560   6.616   3.432   3.602
22440WAT      O67561   4.728   0.489   3.100
22440WAT     H167562   4.649   0.534   3.142
22440WAT     H267563   4.804   0.554   3.095
22441WAT      O67564   8.323   3.833   3.413
22441WAT     H167565   8.240   3.798   3.370
22441WAT     H267566   8.310   3.929   3.437
22442WAT      O67567   0.071   3.309   9.616
22442WAT     H167568   0.128   3.338   9.539
22442WAT     H267569   0.129   3.273   9.688
22443WAT      O67570   0.228   7.577   5.271
22443WAT     H167571   0.206   7.479   5.273
22443WAT     H267572   0.322   7.591   5.304
22444WAT      O67573   2.215   3.931   1.128
22444WAT     H167574   2.191   4.006   1.067
22444WAT     H267575   2.132   3.885   1.159
22445WAT      O67576   6.071   1.232   2.791
22445WAT     H167577   6.046   1.201   2.699
22445WAT     H267578   5.990   1.268   2.836
22446WAT      O67579   9.271   6.870   9.206
22446WAT     H167580   9.204   6.796   9.218
22446WAT     H267581   9.354   6.833   9.163
22447WAT      O67582   8.179   6.032   4.070
22447WAT     H167583   8.250   5.972   4.108
22447WAT     H267584   8.189   6.123   4.110
22448WAT      O67585   1.171   7.841   7.953
22448WAT     H167586   1.082   7.824   7.912
22448WAT     H267587   1.213   7.755   7.981
22449WAT      O67588   5.817   8.978   5.657
22449WAT     H167589   5.806   8.880   5.642
22449WAT     H267590   5.781   9.028   5.578
22450WAT      O67591   2.526   5.742   8.046
22450WAT     H167592   2.484   5.833   8.042
22450WAT     H267593   2.568   5.729   8.136
22451WAT      O67594   2.380   1.692   7.248
22451WAT     H167595   2.411   1.752   7.322
22451WAT     H267596   2.347   1.748   7.172
22452WAT      O67597   9.789   5.850   5.585
22452WAT     H167598   9.736   5.909   5.525
22452WAT     H267599   9.740   5.836   5.671
22453WAT      O67600   4.299   6.290   6.974
22453WAT     H167601   4.266   6.377   7.010
22453WAT     H267602   4.318   6.228   7.050
22454WAT      O67603   7.371   9.530   5.562
22454WAT     H167604   7.376   9.430   5.558
22454WAT     H267605   7.447   9.566   5.615
22455WAT      O67606   2.518   1.778   1.993
22455WAT     H167607   2.469   1.797   1.908
22455WAT     H267608   2.539   1.680   1.998
22456WAT      O67609   5.263   8.501   7.381
22456WAT     H167610   5.212   8.450   7.450
22456WAT     H267611   5.208   8.506   7.297
22457WAT      O67612   8.738   8.842   8.037
22457WAT     H167613   8.738   8.832   8.137
22457WAT     H267614   8.783   8.927   8.011
22458WAT      O67615   8.193   4.686   5.658
22458WAT     H167616   8.237   4.691   5.747
22458WAT     H267617   8.237   4.616   5.602
22459WAT      O67618   9.412   6.717   3.926
22459WAT     H167619   9.417   6.720   3.827
22459WAT     H267620   9.487   6.772   3.965
22460WAT      O67621   1.047   6.231   6.896
22460WAT     H167622   0.954   6.225   6.934
22460WAT     H267623   1.053   6.171   6.816
22461WAT      O67624   4.819   0.750   2.239
22461WAT     H167625   4.760   0.672   2.218
22461WAT     H267626   4.822   0.812   2.161
22462WAT      O67627   1.627   3.606   3.323
22462WAT     H167628   1.555   3.621   3.390
22462WAT     H267629   1.638   3.687   3.265
22463WAT      O67630   8.188   4.327   7.856
22463WAT     H167631   8.126   4.248   7.859
22463WAT     H267632   8.180   4.372   7.767
22464WAT      O67633   4.440   5.228   8.717
22464WAT     H167634   4.496   5.253   8.796
22464WAT     H267635   4.413   5.311   8.668
22465WAT      O67636   8.022   1.775   1.066
22465WAT     H167637   8.065   1.814   1.147
22465WAT     H267638   8.057   1.683   1.050
22466WAT      O67639   6.645   6.473   6.436
22466WAT     H167640   6.686   6.564   6.424
22466WAT     H267641   6.638   6.453   6.534
22467WAT      O67642   4.029   8.626   8.882
22467WAT     H167643   3.973   8.652   8.803
22467WAT     H267644   4.063   8.708   8.927
22468WAT      O67645   9.856   0.400   1.801
22468WAT     H167646   9.911   0.321   1.831
22468WAT     H267647   9.776   0.409   1.860
22469WAT      O67648   9.773   7.250   8.406
22469WAT     H167649   9.680   7.286   8.405
22469WAT     H267650   9.785   7.190   8.485
22470WAT      O67651   9.665   5.610   1.522
22470WAT     H167652   9.756   5.582   1.493
22470WAT     H267653   9.614   5.644   1.444
22471WAT      O67654   6.660   7.809   4.361
22471WAT     H167655   6.662   7.766   4.451
22471WAT     H267656   6.701   7.747   4.294
22472WAT      O67657   9.170   3.785   2.254
22472WAT     H167658   9.191   3.698   2.299
22472WAT     H267659   9.089   3.826   2.297
22473WAT      O67660   3.122   3.588   5.680
22473WAT     H167661   3.130   3.628   5.589
22473WAT     H267662   3.165   3.497   5.680
22474WAT      O67663   8.190   7.973   7.173
22474WAT     H167664   8.166   8.034   7.098
22474WAT     H267665   8.277   7.928   7.153
22475WAT      O67666   5.058   7.022   0.195
22475WAT     H167667   5.051   7.094   0.126
22475WAT     H267668   4.972   7.016   0.245
22476WAT      O67669   5.295   8.114   4.053
22476WAT     H167670   5.292   8.212   4.034
22476WAT     H267671   5.240   8.094   4.135
22477WAT      O67672   3.446   8.084   5.468
22477WAT     H167673   3.545   8.094   5.477
22477WAT     H267674   3.424   7.991   5.439
22478WAT      O67675   0.956   5.540   5.610
22478WAT     H167676   0.944   5.443   5.633
22478WAT     H267677   0.949   5.595   5.694
22479WAT      O67678   6.677   6.516   4.185
22479WAT     H167679   6.597   6.473   4.143
22479WAT     H267680   6.704   6.464   4.266
22480WAT      O67681   8.560   4.302   2.917
22480WAT     H167682   8.600   4.215   2.888
22480WAT     H267683   8.604   4.332   3.002
22481WAT      O67684   2.119   2.474   1.052
22481WAT     H167685   2.137   2.462   0.954
22481WAT     H267686   2.156   2.562   1.082
22482WAT      O67687   1.624   4.817   2.967
22482WAT     H167688   1.613   4.743   2.900
22482WAT     H267689   1.543   4.876   2.965
22483WAT      O67690   6.325   2.596   4.455
22483WAT     H167691   6.353   2.554   4.542
22483WAT     H267692   6.362   2.543   4.379
22484WAT      O67693   6.096   4.047   7.026
22484WAT     H167694   6.116   3.994   6.943
22484WAT     H267695   6.057   4.135   7.001
22485WAT      O67696   0.082   5.696   5.913
22485WAT     H167697   0.124   5.668   5.999
22485WAT     H267698   0.118   5.641   5.838
22486WAT      O67699   2.114   4.478   0.274
22486WAT     H167700   2.023   4.437   0.272
22486WAT     H267701   2.125   4.529   0.360
22487WAT      O67702   0.556   9.748   7.295
22487WAT     H167703   0.508   9.825   7.252
22487WAT     H267704   0.634   9.784   7.347
22488WAT      O67705   3.548   2.859   3.183
22488WAT     H167706   3.480   2.850   3.110
22488WAT     H267707   3.555   2.773   3.233
22489WAT      O67708   0.128   3.044   0.399
22489WAT     H167709   0.216   3.084   0.426
22489WAT     H267710   0.134   3.010   0.305
22490WAT      O67711   5.455   6.531   6.731
22490WAT     H167712   5.436   6.500   6.638
22490WAT     H267713   5.489   6.454   6.786
22491WAT      O67714   2.862   4.424   8.822
22491WAT     H167715   2.783   4.408   8.763
22491WAT     H267716   2.927   4.484   8.775
22492WAT      O67717   5.689   9.477   2.330
22492WAT     H167718   5.741   9.515   2.407
22492WAT     H267719   5.746   9.412   2.280
22493WAT      O67720   7.460   3.739   9.506
22493WAT     H167721   7.513   3.755   9.589
22493WAT     H267722   7.484   3.650   9.467
22494WAT      O67723   5.298   4.348   8.408
22494WAT     H167724   5.363   4.293   8.459
22494WAT     H267725   5.238   4.288   8.355
22495WAT      O67726   5.748   8.849   8.554
22495WAT     H167727   5.715   8.815   8.642
22495WAT     H267728   5.772   8.773   8.495
22496WAT      O67729   4.736   1.955   6.908
22496WAT     H167730   4.693   1.884   6.852
22496WAT     H267731   4.675   2.034   6.914
22497WAT      O67732   8.698   7.953   5.543
22497WAT     H167733   8.790   7.915   5.554
22497WAT     H267734   8.704   8.051   5.525
22498WAT      O67735   6.937   4.000   0.263
22498WAT     H167736   6.908   3.905   0.258
22498WAT     H267737   6.937   4.040   0.171
22499WAT      O67738   1.257   7.712   3.424
22499WAT     H167739   1.163   7.745   3.412
22499WAT     H267740   1.263   7.659   3.509
22500WAT      O67741   6.571   0.989   5.626
22500WAT     H167742   6.479   0.992   5.664
22500WAT     H267743   6.638   0.996   5.700
22501WAT      O67744   4.816   8.578   9.133
22501WAT     H167745   4.764   8.527   9.064
22501WAT     H267746   4.773   8.667   9.148
22502WAT      O67747   4.658   1.491   0.561
22502WAT     H167748   4.571   1.480   0.512
22502WAT     H267749   4.693   1.402   0.588
22503WAT      O67750   8.867   5.779   4.145
22503WAT     H167751   8.811   5.809   4.068
22503WAT     H267752   8.836   5.690   4.177
22504WAT      O67753   5.728   2.434   7.234
22504WAT     H167754   5.815   2.420   7.187
22504WAT     H267755   5.653   2.434   7.168
22505WAT      O67756   6.731   5.544   1.451
22505WAT     H167757   6.802   5.614   1.448
22505WAT     H267758   6.760   5.466   1.395
22506WAT      O67759   9.818   2.646   8.343
22506WAT     H167760   9.753   2.572   8.359
22506WAT     H267761   9.769   2.724   8.303
22507WAT      O67762   1.677   1.486   4.143
22507WAT     H167763   1.587   1.515   4.113
22507WAT     H267764   1.731   1.566   4.170
22508WAT      O67765   9.432   3.989   9.325
22508WAT     H167766   9.406   4.063   9.388
22508WAT     H267767   9.357   3.973   9.261
22509WAT      O67768   6.293   0.787   6.612
22509WAT     H167769   6.285   0.720   6.538
22509WAT     H267770   6.205   0.832   6.626
22510WAT      O67771   6.144   4.219   7.243
22510WAT     H167772   6.143   4.314   7.210
22510WAT     H267773   6.108   4.159   7.172
22511WAT      O67774   9.238   1.034   6.752
22511WAT     H167775   9.259   0.937   6.735
22511WAT     H267776   9.187   1.071   6.674
22512WAT      O67777   9.498   1.596   1.788
22512WAT     H167778   9.445   1.535   1.847
22512WAT     H267779   9.555   1.655   1.844
22513WAT      O67780   1.454   4.885   7.909
22513WAT     H167781   1.421   4.858   7.818
22513WAT     H267782   1.538   4.939   7.899
22514WAT      O67783   6.696   4.251   6.189
22514WAT     H167784   6.670   4.211   6.101
22514WAT     H267785   6.698   4.350   6.181
22515WAT      O67786   5.527   0.502   7.033
22515WAT     H167787   5.431   0.530   7.021
22515WAT     H267788   5.530   0.414   7.081
22516WAT      O67789   7.957   7.355   4.969
22516WAT     H167790   7.900   7.403   5.036
22516WAT     H267791   7.988   7.269   5.008
22517WAT      O67792   0.855   5.545   7.891
22517WAT     H167793   0.781   5.478   7.885
22517WAT     H267794   0.873   5.582   7.800
22518WAT      O67795   8.000   3.344   7.550
22518WAT     H167796   7.948   3.372   7.470
22518WAT     H267797   7.987   3.410   7.624
22519WAT      O67798   9.010   7.949   9.375
22519WAT     H167799   8.966   7.988   9.456
22519WAT     H267800   9.006   8.015   9.300
22520WAT      O67801   4.570   3.379   9.553
22520WAT     H167802   4.643   3.351   9.491
22520WAT     H267803   4.483   3.383   9.504
22521WAT      O67804   8.653   8.024   2.259
22521WAT     H167805   8.622   7.934   2.289
22521WAT     H267806   8.576   8.076   2.224
22522WAT      O67807   1.561   4.171   1.144
22522WAT     H167808   1.483   4.114   1.119
22522WAT     H267809   1.646   4.126   1.117
22523WAT      O67810   4.213   9.589   3.340
22523WAT     H167811   4.181   9.665   3.396
22523WAT     H267812   4.275   9.531   3.394
22524WAT      O67813   6.391   3.010   0.199
22524WAT     H167814   6.424   2.984   0.108
22524WAT     H267815   6.465   3.054   0.249
22525WAT      O67816   5.897   5.880   3.482
22525WAT     H167817   5.844   5.862   3.399
22525WAT     H267818   5.993   5.856   3.466
22526WAT      O67819   0.675   8.108   3.231
22526WAT     H167820   0.608   8.105   3.157
22526WAT     H267821   0.728   8.023   3.231
22527WAT      O67822   0.984   2.051   9.868
22527WAT     H167823   0.900   2.084   9.910
22527WAT     H267824   0.968   2.035   9.770
22528WAT      O67825   1.332   4.300   4.535
22528WAT     H167826   1.394   4.253   4.598
22528WAT     H267827   1.382   4.329   4.454
22529WAT      O67828   4.205   1.271   7.632
22529WAT     H167829   4.302   1.288   7.616
22529WAT     H267830   4.151   1.333   7.576
22530WAT      O67831   6.480   4.338   3.271
22530WAT     H167832   6.507   4.427   3.308
22530WAT     H267833   6.420   4.292   3.337
22531WAT      O67834   1.435   2.682   9.089
22531WAT     H167835   1.336   2.688   9.099
22531WAT     H267836   1.469   2.604   9.141
22532WAT      O67837   8.911   2.688   8.778
22532WAT     H167838   8.880   2.624   8.848
22532WAT     H267839   8.995   2.653   8.736
22533WAT      O67840   4.971   2.438   1.567
22533WAT     H167841   4.974   2.341   1.543
22533WAT     H267842   4.930   2.490   1.492
22534WAT      O67843   9.220   1.000   1.353
22534WAT     H167844   9.128   0.993   1.390
22534WAT     H267845   9.274   0.921   1.383
22535WAT      O67846   4.189   6.492   8.434
22535WAT     H167847   4.273   6.443   8.414
22535WAT     H267848   4.153   6.463   8.523
22536WAT      O67849   0.563   1.065   4.592
22536WAT     H167850   0.501   1.111   4.530
22536WAT     H267851   0.525   1.066   4.685
22537WAT      O67852   3.487   3.584   8.033
22537WAT     H167853   3.513   3.561   7.939
22537WAT     H267854   3.551   3.652   8.070
22538WAT      O67855   0.518   1.062   6.837
22538WAT     H167856   0.460   1.088   6.760
22538WAT     H267857   0.471   0.995   6.893
22539WAT      O67858   1.438   8.562   0.608
22539WAT     H167859   1.361   8.566   0.672
22539WAT     H267860   1.438   8.644   0.551
22540WAT      O67861   4.423   2.141   2.757
22540WAT     H167862   4.416   2.218   2.693
22540WAT     H267863   4.518   2.115   2.768
22541WAT      O67864   5.247   9.457   5.312
22541WAT     H167865   5.177   9.439   5.382
22541WAT     H267866   5.305   9.377   5.301
22542WAT      O67867   6.100   2.318   1.581
22542WAT     H167868   6.023   2.332   1.644
22542WAT     H267869   6.068   2.325   1.487
22543WAT      O67870   5.412   5.263   2.176
22543WAT     H167871   5.342   5.288   2.110
22543WAT     H267872   5.380   5.285   2.269
22544WAT      O67873   7.099   7.336   1.317
22544WAT     H167874   7.042   7.346   1.236
22544WAT     H267875   7.076   7.407   1.383
22545WAT      O67876   9.462   2.824   4.082
22545WAT     H167877   9.370   2.786   4.069
22545WAT     H267878   9.459   2.923   4.072
22546WAT      O67879   8.740   4.651   2.158
22546WAT     H167880   8.692   4.574   2.201
22546WAT     H267881   8.695   4.737   2.184
22547WAT      O67882   1.841   7.524   7.661
22547WAT     H167883   1.918   7.560   7.714
22547WAT     H267884   1.831   7.577   7.577
22548WAT      O67885   8.575   2.753   0.396
22548WAT     H167886   8.549   2.769   0.491
22548WAT     H267887   8.505   2.791   0.335
22549WAT      O67888   0.302   5.784   1.359
22549WAT     H167889   0.383   5.804   1.303
22549WAT     H267890   0.328   5.779   1.455
22550WAT      O67891   3.044   5.894   8.013
22550WAT     H167892   2.994   5.911   8.097
22550WAT     H267893   3.102   5.813   8.024
22551WAT      O67894   1.878   2.115   7.820
22551WAT     H167895   1.922   2.172   7.890
22551WAT     H267896   1.826   2.042   7.864
22552WAT      O67897   6.884   9.166   2.742
22552WAT     H167898   6.949   9.152   2.817
22552WAT     H267899   6.905   9.103   2.668
22553WAT      O67900   2.102   8.237   4.639
22553WAT     H167901   2.020   8.241   4.695
22553WAT     H267902   2.171   8.180   4.684
22554WAT      O67903   7.477   6.989   6.689
22554WAT     H167904   7.405   7.058   6.683
22554WAT     H267905   7.452   6.920   6.757
22555WAT      O67906   2.177   0.722   9.889
22555WAT     H167907   2.127   0.639   9.863
22555WAT     H267908   2.199   0.774   9.806
22556WAT      O67909   0.991   8.616   0.329
22556WAT     H167910   0.936   8.699   0.313
22556WAT     H267911   0.996   8.598   0.427
22557WAT      O67912   4.651   0.566   8.220
22557WAT     H167913   4.659   0.636   8.150
22557WAT     H267914   4.613   0.606   8.303
22558WAT      O67915   2.999   0.592   0.314
22558WAT     H167916   3.001   0.663   0.244
22558WAT     H267917   3.074   0.528   0.299
22559WAT      O67918   6.867   4.229   4.731
22559WAT     H167919   6.854   4.327   4.746
22559WAT     H267920   6.779   4.186   4.712
22560WAT      O67921   8.213   8.092   9.444
22560WAT     H167922   8.184   8.055   9.356
22560WAT     H267923   8.312   8.094   9.449
22561WAT      O67924   4.465   0.976   7.117
22561WAT     H167925   4.370   0.960   7.146
22561WAT     H267926   4.464   1.036   7.037
22562WAT      O67927   9.122   5.112   3.295
22562WAT     H167928   9.026   5.098   3.320
22562WAT     H267929   9.146   5.052   3.219
22563WAT      O67930   1.447   1.792   4.325
22563WAT     H167931   1.379   1.803   4.253
22563WAT     H267932   1.405   1.808   4.414
22564WAT      O67933   6.051   1.785   2.919
22564WAT     H167934   6.143   1.794   2.881
22564WAT     H267935   6.022   1.873   2.958
22565WAT      O67936   3.908   8.694   0.613
22565WAT     H167937   3.920   8.781   0.661
22565WAT     H267938   3.830   8.701   0.552
22566WAT      O67939   1.274   8.882   2.802
22566WAT     H167940   1.180   8.916   2.804
22566WAT     H267941   1.312   8.882   2.894
22567WAT      O67942   4.395   5.751   7.996
22567WAT     H167943   4.453   5.817   8.044
22567WAT     H267944   4.441   5.720   7.912
22568WAT      O67945   2.377   0.582   6.373
22568WAT     H167946   2.364   0.675   6.336
22568WAT     H267947   2.452   0.538   6.325
22569WAT      O67948   1.814   8.005   7.540
22569WAT     H167949   1.879   8.054   7.598
22569WAT     H267950   1.862   7.932   7.491
22570WAT      O67951   0.935   4.023   6.324
22570WAT     H167952   0.885   3.948   6.281
22570WAT     H267953   0.871   4.079   6.377
22571WAT      O67954   9.132   6.425   7.382
22571WAT     H167955   9.201   6.411   7.453
22571WAT     H267956   9.119   6.340   7.331
22572WAT      O67957   7.166   7.162   4.039
22572WAT     H167958   7.261   7.194   4.048
22572WAT     H267959   7.123   7.207   3.961
22573WAT      O67960   2.659   6.593   5.277
22573WAT     H167961   2.647   6.565   5.181
22573WAT     H267962   2.692   6.687   5.280
22574WAT      O67963   8.139   2.031   5.224
22574WAT     H167964   8.053   2.077   5.247
22574WAT     H267965   8.200   2.096   5.179
22575WAT      O67966   5.761   1.436   3.875
22575WAT     H167967   5.821   1.433   3.955
22575WAT     H267968   5.718   1.526   3.869
22576WAT      O67969   6.818   9.103   3.330
22576WAT     H167970   6.842   9.170   3.260
22576WAT     H267971   6.901   9.056   3.361
22577WAT      O67972   1.894   6.446   4.205
22577WAT     H167973   1.983   6.414   4.175
22577WAT     H267974   1.875   6.535   4.164
22578WAT      O67975   3.321   9.689   5.231
22578WAT     H167976   3.397   9.743   5.194
22578WAT     H267977   3.245   9.750   5.254
22579WAT      O67978   7.721   0.412   6.554
22579WAT     H167979   7.814   0.428   6.586
22579WAT     H267980   7.693   0.319   6.577
22580WAT      O67981   2.413   2.485   2.788
22580WAT     H167982   2.336   2.424   2.771
22580WAT     H267983   2.492   2.454   2.735
22581WAT      O67984   0.227   1.669   2.441
22581WAT     H167985   0.253   1.625   2.527
22581WAT     H267986   0.185   1.758   2.460
22582WAT      O67987   2.064   0.193   3.108
22582WAT     H167988   2.145   0.230   3.062
22582WAT     H267989   2.019   0.126   3.049
22583WAT      O67990   8.442   6.490   7.329
22583WAT     H167991   8.527   6.485   7.277
22583WAT     H267992   8.459   6.532   7.418
22584WAT      O67993   4.546   2.288   8.073
22584WAT     H167994   4.536   2.273   8.171
22584WAT     H267995   4.474   2.239   8.024
22585WAT      O67996   2.198   6.231   1.494
22585WAT     H167997   2.239   6.197   1.578
22585WAT     H267998   2.269   6.244   1.425
22586WAT      O67999   7.334   6.949   3.127
22586WAT     H168000   7.375   6.981   3.042
22586WAT     H268001   7.235   6.964   3.124
22587WAT      O68002   3.694   0.047   6.928
22587WAT     H168003   3.720   0.114   6.997
22587WAT     H268004   3.711  -0.045   6.963
22588WAT      O68005   9.556   8.181   9.761
22588WAT     H168006   9.579   8.119   9.686
22588WAT     H268007   9.479   8.240   9.733
22589WAT      O68008   3.995   1.191   3.288
22589WAT     H168009   4.048   1.106   3.290
22589WAT     H268010   4.021   1.248   3.365
22590WAT      O68011   8.715   3.431   1.063
22590WAT     H168012   8.633   3.481   1.036
22590WAT     H268013   8.790   3.453   1.001
22591WAT      O68014   0.321   6.159   8.747
22591WAT     H168015   0.322   6.178   8.845
22591WAT     H268016   0.328   6.245   8.697
22592WAT      O68017   2.127   2.459   4.334
22592WAT     H168018   2.164   2.438   4.424
22592WAT     H268019   2.032   2.491   4.344
22593WAT      O68020   7.622   6.413   0.804
22593WAT     H168021   7.591   6.382   0.893
22593WAT     H268022   7.545   6.410   0.739
22594WAT      O68023   6.469   5.495   9.499
22594WAT     H168024   6.495   5.532   9.410
22594WAT     H268025   6.375   5.461   9.494
22595WAT      O68026   6.846   8.790   6.049
22595WAT     H168027   6.770   8.841   6.008
22595WAT     H268028   6.884   8.843   6.125
22596WAT      O68029   8.845   5.018   9.184
22596WAT     H168030   8.822   4.999   9.279
22596WAT     H268031   8.765   5.001   9.126
22597WAT      O68032   9.232   9.450   3.344
22597WAT     H168033   9.213   9.393   3.425
22597WAT     H268034   9.325   9.432   3.312
22598WAT      O68035   8.617   6.015   5.238
22598WAT     H168036   8.562   5.965   5.171
22598WAT     H268037   8.706   6.038   5.198
22599WAT      O68038   7.913   4.429   8.955
22599WAT     H168039   7.939   4.525   8.940
22599WAT     H268040   7.995   4.372   8.956
22600WAT      O68041   5.400   0.234   0.659
22600WAT     H168042   5.407   0.138   0.685
22600WAT     H268043   5.386   0.290   0.741
22601WAT      O68044   7.536   1.256   5.327
22601WAT     H168045   7.452   1.308   5.315
22601WAT     H268046   7.538   1.179   5.263
22602WAT      O68047   8.067   8.111   8.284
22602WAT     H168048   8.052   8.209   8.271
22602WAT     H268049   8.068   8.066   8.194
22603WAT      O68050   2.797   5.692   9.280
22603WAT     H168051   2.868   5.762   9.273
22603WAT     H268052   2.709   5.732   9.252
22604WAT      O68053   0.855   1.699   0.804
22604WAT     H168054   0.870   1.642   0.723
22604WAT     H268055   0.798   1.778   0.779
22605WAT      O68056   2.895   4.895   1.171
22605WAT     H168057   2.870   4.804   1.204
22605WAT     H268058   2.959   4.937   1.235
22606WAT      O68059   7.424   2.961   1.532
22606WAT     H168060   7.331   2.998   1.536
22606WAT     H268061   7.482   3.009   1.598
22607WAT      O68062   5.439   1.460   5.709
22607WAT     H168063   5.408   1.468   5.803
22607WAT     H268064   5.363   1.432   5.650
22608WAT      O68065   2.558   6.615   8.186
22608WAT     H168066   2.562   6.524   8.147
22608WAT     H268067   2.615   6.619   8.268
22609WAT      O68068   8.012   5.428   0.206
22609WAT     H168069   8.049   5.396   0.119
22609WAT     H268070   7.921   5.466   0.192
22610WAT      O68071   7.634   1.180   0.643
22610WAT     H168072   7.673   1.272   0.647
22610WAT     H268073   7.673   1.132   0.564
22611WAT      O68074   4.363   7.886   3.025
22611WAT     H168075   4.421   7.805   3.017
22611WAT     H268076   4.317   7.904   2.938
22612WAT      O68077   7.568   2.948   0.156
22612WAT     H168078   7.536   3.042   0.163
22612WAT     H268079   7.584   2.925   0.060
22613WAT      O68080   9.399   3.002   3.326
22613WAT     H168081   9.430   2.982   3.420
22613WAT     H268082   9.304   3.033   3.328
22614WAT      O68083   3.786   1.352   8.386
22614WAT     H168084   3.824   1.359   8.478
22614WAT     H268085   3.781   1.444   8.345
22615WAT      O68086   4.652   3.202   7.046
22615WAT     H168087   4.693   3.210   7.137
22615WAT     H268088   4.694   3.125   6.997
22616WAT      O68089   1.184   9.526   1.600
22616WAT     H168090   1.148   9.440   1.636
22616WAT     H268091   1.151   9.540   1.507
22617WAT      O68092   3.684   7.771   7.340
22617WAT     H168093   3.736   7.772   7.255
22617WAT     H268094   3.700   7.857   7.389
22618WAT      O68095   1.109   0.723   4.431
22618WAT     H168096   1.153   0.737   4.343
22618WAT     H268097   1.125   0.803   4.489
22619WAT      O68098   5.490   5.167   7.466
22619WAT     H168099   5.475   5.088   7.526
22619WAT     H268100   5.586   5.167   7.437
22620WAT      O68101   9.249   4.045   1.182
22620WAT     H168102   9.150   4.059   1.187
22620WAT     H268103   9.293   4.088   1.261
22621WAT      O68104   6.889   0.325   2.587
22621WAT     H168105   6.831   0.316   2.506
22621WAT     H268106   6.972   0.375   2.563
22622WAT      O68107   5.389   0.497   5.716
22622WAT     H168108   5.410   0.454   5.804
22622WAT     H268109   5.342   0.584   5.733
22623WAT      O68110   2.955   7.504   7.914
22623WAT     H168111   2.902   7.482   7.832
22623WAT     H268112   2.941   7.601   7.937
22624WAT      O68113   5.397   2.615   8.936
22624WAT     H168114   5.322   2.553   8.958
22624WAT     H268115   5.390   2.645   8.841
22625WAT      O68116   8.985   2.260   0.466
22625WAT     H168117   9.071   2.298   0.431
22625WAT     H268118   8.951   2.319   0.540
22626WAT      O68119   3.345   7.991   3.494
22626WAT     H168120   3.392   7.911   3.455
22626WAT     H268121   3.286   7.961   3.569
22627WAT      O68122   6.635   7.764   9.610
22627WAT     H168123   6.555   7.771   9.551
22627WAT     H268124   6.696   7.692   9.576
22628WAT      O68125   5.417   1.446   5.963
22628WAT     H168126   5.476   1.478   6.038
22628WAT     H268127   5.354   1.376   5.997
22629WAT      O68128   2.136   8.171   7.374
22629WAT     H168129   2.127   8.074   7.398
22629WAT     H268130   2.218   8.185   7.319
22630WAT      O68131   1.105   9.666   7.488
22630WAT     H168132   1.033   9.608   7.452
22630WAT     H268133   1.069   9.723   7.562
22631WAT      O68134   0.850   8.146   2.790
22631WAT     H168135   0.800   8.060   2.797
22631WAT     H268136   0.827   8.204   2.868
22632WAT      O68137   7.239   7.162   2.380
22632WAT     H168138   7.300   7.218   2.324
22632WAT     H268139   7.214   7.080   2.329
22633WAT      O68140   2.453   1.424   8.803
22633WAT     H168141   2.377   1.367   8.772
22633WAT     H268142   2.494   1.470   8.724
22634WAT      O68143   0.406   3.466   2.625
22634WAT     H168144   0.378   3.516   2.543
22634WAT     H268145   0.503   3.440   2.617
22635WAT      O68146   1.915   3.855   4.167
22635WAT     H168147   1.835   3.905   4.132
22635WAT     H268148   1.979   3.920   4.208
22636WAT      O68149   0.132   4.807   5.679
22636WAT     H168150   0.138   4.761   5.767
22636WAT     H268151   0.158   4.743   5.606
22637WAT      O68152   1.109   2.510   3.659
22637WAT     H168153   1.061   2.594   3.633
22637WAT     H268154   1.142   2.464   3.577
22638WAT      O68155   5.502   9.093   3.414
22638WAT     H168156   5.456   9.131   3.335
22638WAT     H268157   5.442   9.027   3.460
22639WAT      O68158   6.898   2.287   5.919
22639WAT     H168159   6.957   2.349   5.971
22639WAT     H268160   6.808   2.330   5.906
22640WAT      O68161   8.829   7.197   6.766
22640WAT     H168162   8.776   7.163   6.688
22640WAT     H268163   8.771   7.257   6.822
22641WAT      O68164   7.992   5.136   5.195
22641WAT     H168165   8.071   5.195   5.206
22641WAT     H268166   7.930   5.148   5.273
22642WAT      O68167   7.625   6.478   9.500
22642WAT     H168168   7.714   6.451   9.535
22642WAT     H268169   7.558   6.407   9.522
22643WAT      O68170   6.454   5.574   2.053
22643WAT     H168171   6.503   5.490   2.074
22643WAT     H268172   6.518   5.651   2.049
22644WAT      O68173   4.784   7.466   1.646
22644WAT     H168174   4.861   7.504   1.697
22644WAT     H268175   4.763   7.375   1.681
22645WAT      O68176   5.698   8.751   8.805
22645WAT     H168177   5.788   8.774   8.840
22645WAT     H268178   5.689   8.651   8.799
22646WAT      O68179   7.031   5.183   4.027
22646WAT     H168180   6.988   5.171   4.116
22646WAT     H268181   7.120   5.137   4.027
22647WAT      O68182   2.756   4.461   1.074
22647WAT     H168183   2.831   4.400   1.099
22647WAT     H268184   2.757   4.542   1.133
22648WAT      O68185   9.358   9.731   3.066
22648WAT     H168186   9.301   9.650   3.080
22648WAT     H268187   9.312   9.795   3.006
22649WAT      O68188   3.325   4.548   8.477
22649WAT     H168189   3.249   4.587   8.425
22649WAT     H268190   3.340   4.454   8.447
22650WAT      O68191   1.275   2.708   5.604
22650WAT     H168192   1.229   2.765   5.673
22650WAT     H268193   1.246   2.738   5.513
22651WAT      O68194   7.237   6.286   0.071
22651WAT     H168195   7.199   6.224   0.002
22651WAT     H268196   7.210   6.380   0.049
22652WAT      O68197   1.959   4.770   8.337
22652WAT     H168198   1.924   4.693   8.390
22652WAT     H268199   2.047   4.798   8.374
22653WAT      O68200   3.810   4.985   8.645
22653WAT     H168201   3.767   4.919   8.707
22653WAT     H268202   3.907   4.992   8.665
22654WAT      O68203   6.942   7.716   8.294
22654WAT     H168204   6.949   7.794   8.357
22654WAT     H268205   7.034   7.692   8.261
22655WAT      O68206   3.431   6.345   6.139
22655WAT     H168207   3.404   6.441   6.128
22655WAT     H268208   3.462   6.330   6.233
22656WAT      O68209   6.103   2.428   8.402
22656WAT     H168210   6.157   2.417   8.318
22656WAT     H268211   6.014   2.385   8.391
22657WAT      O68212   8.362   0.712   6.003
22657WAT     H168213   8.459   0.728   5.987
22657WAT     H268214   8.344   0.709   6.101
22658WAT      O68215   6.966   8.873   1.660
22658WAT     H168216   7.038   8.807   1.636
22658WAT     H268217   6.978   8.956   1.605
22659WAT      O68218   7.670   2.037   0.039
22659WAT     H168219   7.687   2.111  -0.026
22659WAT     H268220   7.732   2.045   0.116
22660WAT      O68221   6.010   7.391   2.747
22660WAT     H168222   5.969   7.472   2.705
22660WAT     H268223   6.015   7.403   2.846
22661WAT      O68224   9.868   3.713   2.505
22661WAT     H168225   9.907   3.640   2.449
22661WAT     H268226   9.788   3.678   2.554
22662WAT      O68227   9.357   4.042   7.846
22662WAT     H168228   9.344   3.974   7.919
22662WAT     H268229   9.312   4.011   7.763
22663WAT      O68230   5.606   7.283   9.471
22663WAT     H168231   5.677   7.284   9.400
22663WAT     H268232   5.639   7.231   9.550
22664WAT      O68233   4.913   6.497   9.325
22664WAT     H168234   4.895   6.588   9.288
22664WAT     H268235   4.837   6.469   9.384
22665WAT      O68236   1.963   0.226   9.339
22665WAT     H168237   2.031   0.278   9.288
22665WAT     H268238   1.891   0.194   9.276
22666WAT      O68239   2.405   7.558   9.005
22666WAT     H168240   2.356   7.471   8.994
22666WAT     H268241   2.423   7.598   8.915
22667WAT      O68242   5.303   2.026   4.435
22667WAT     H168243   5.222   2.069   4.475
22667WAT     H268244   5.352   1.974   4.506
22668WAT      O68245   2.224   5.678   2.553
22668WAT     H168246   2.213   5.713   2.646
22668WAT     H268247   2.320   5.687   2.525
22669WAT      O68248   9.621   1.220   3.133
22669WAT     H168249   9.545   1.181   3.185
22669WAT     H268250   9.598   1.312   3.103
22670WAT      O68251   5.356   0.761   8.289
22670WAT     H168252   5.296   0.690   8.253
22670WAT     H268253   5.410   0.724   8.365
22671WAT      O68254   4.810   1.673   2.013
22671WAT     H168255   4.830   1.581   2.046
22671WAT     H268256   4.858   1.740   2.070
22672WAT      O68257   9.519   3.054   8.963
22672WAT     H168258   9.435   3.085   9.008
22672WAT     H268259   9.508   2.959   8.934
22673WAT      O68260   9.591   1.826   0.769
22673WAT     H168261   9.672   1.850   0.716
22673WAT     H268262   9.618   1.788   0.857
22674WAT      O68263   4.195   6.167   8.235
22674WAT     H168264   4.110   6.209   8.202
22674WAT     H268265   4.204   6.076   8.196
22675WAT      O68266   7.821   0.072   6.351
22675WAT     H168267   7.916   0.104   6.352
22675WAT     H268268   7.761   0.149   6.373
22676WAT      O68269   6.285   0.754   1.872
22676WAT     H168270   6.316   0.764   1.967
22676WAT     H268271   6.360   0.718   1.816
22677WAT      O68272   7.466   6.848   2.843
22677WAT     H168273   7.389   6.793   2.877
22677WAT     H268274   7.544   6.788   2.828
22678WAT      O68275   6.427   2.661   0.975
22678WAT     H168276   6.346   2.605   0.965
22678WAT     H268277   6.403   2.757   0.961
22679WAT      O68278   4.864   2.327   9.701
22679WAT     H168279   4.865   2.316   9.800
22679WAT     H268280   4.796   2.396   9.676
22680WAT      O68281   1.410   8.719   7.783
22680WAT     H168282   1.432   8.813   7.809
22680WAT     H268283   1.409   8.712   7.683
22681WAT      O68284   4.895   7.622   6.489
22681WAT     H168285   4.969   7.645   6.427
22681WAT     H268286   4.932   7.585   6.574
22682WAT      O68287   1.590   7.126   4.595
22682WAT     H168288   1.608   7.086   4.505
22682WAT     H268289   1.628   7.068   4.666
22683WAT      O68290   7.376   8.753   8.669
22683WAT     H168291   7.279   8.733   8.678
22683WAT     H268292   7.423   8.731   8.754
22684WAT      O68293   2.238   4.042   3.295
22684WAT     H168294   2.171   3.970   3.312
22684WAT     H268295   2.272   4.077   3.382
22685WAT      O68296   2.809   2.533   2.370
22685WAT     H168297   2.893   2.580   2.343
22685WAT     H268298   2.832   2.443   2.408
22686WAT      O68299   4.767   7.575   1.025
22686WAT     H168300   4.841   7.607   1.084
22686WAT     H268301   4.770   7.624   0.938
22687WAT      O68302   6.570   8.030   3.252
22687WAT     H168303   6.584   8.103   3.319
22687WAT     H268304   6.619   7.948   3.282
22688WAT      O68305   6.527   3.853   4.927
22688WAT     H168306   6.500   3.941   4.965
22688WAT     H268307   6.536   3.786   5.001
22689WAT      O68308   6.098   6.232   4.310
22689WAT     H168309   6.195   6.248   4.294
22689WAT     H268310   6.044   6.282   4.242
22690WAT      O68311   4.831   7.285   9.820
22690WAT     H168312   4.774   7.203   9.820
22690WAT     H268313   4.914   7.267   9.874
22691WAT      O68314   8.323   0.576   2.857
22691WAT     H168315   8.226   0.594   2.844
22691WAT     H268316   8.376   0.651   2.815
22692WAT      O68317   2.081   9.377   5.178
22692WAT     H168318   2.051   9.308   5.243
22692WAT     H268319   2.163   9.423   5.213
22693WAT      O68320   0.154   3.511   3.127
22693WAT     H168321   0.248   3.478   3.128
22693WAT     H268322   0.093   3.440   3.164
22694WAT      O68323   6.324   4.960   5.594
22694WAT     H168324   6.349   4.873   5.637
22694WAT     H268325   6.401   5.023   5.600
22695WAT      O68326   9.180   0.293   9.084
22695WAT     H168327   9.225   0.222   9.029
22695WAT     H268328   9.128   0.250   9.157
22696WAT      O68329   8.817   8.694   3.226
22696WAT     H168330   8.796   8.614   3.169
22696WAT     H268331   8.862   8.764   3.170
22697WAT      O68332   5.883   7.185   6.437
22697WAT     H168333   5.972   7.185   6.392
22697WAT     H268334   5.844   7.277   6.433
22698WAT      O68335   9.189   1.192   6.524
22698WAT     H168336   9.213   1.281   6.487
22698WAT     H268337   9.210   1.121   6.457
22699WAT      O68338   0.180   1.767   3.033
22699WAT     H168339   0.179   1.669   3.015
22699WAT     H268340   0.141   1.785   3.123
22700WAT      O68341   4.090   7.868   6.392
22700WAT     H168342   4.085   7.859   6.491
22700WAT     H268343   4.087   7.965   6.367
22701WAT      O68344   4.070   3.637   4.234
22701WAT     H168345   4.036   3.717   4.186
22701WAT     H268346   4.165   3.652   4.262
22702WAT      O68347   4.512   8.410   1.149
22702WAT     H168348   4.582   8.469   1.190
22702WAT     H268349   4.517   8.419   1.049
22703WAT      O68350   8.300   9.281   3.159
22703WAT     H168351   8.333   9.348   3.225
22703WAT     H268352   8.378   9.235   3.116
22704WAT      O68353   7.948   9.698   7.429
22704WAT     H168354   7.895   9.764   7.377
22704WAT     H268355   7.938   9.607   7.388
22705WAT      O68356   0.161   1.066   5.745
22705WAT     H168357   0.099   0.997   5.709
22705WAT     H268358   0.203   1.116   5.669
22706WAT      O68359   3.082   1.686   1.531
22706WAT     H168360   3.017   1.726   1.466
22706WAT     H268361   3.060   1.716   1.624
22707WAT      O68362   6.969   8.167   1.628
22707WAT     H168363   7.022   8.120   1.557
22707WAT     H268364   6.914   8.239   1.587
22708WAT      O68365   0.963   7.792   7.806
22708WAT     H168366   0.951   7.700   7.769
22708WAT     H268367   0.935   7.859   7.737
22709WAT      O68368   0.567   0.842   6.516
22709WAT     H168369   0.557   0.745   6.539
22709WAT     H268370   0.557   0.855   6.418
22710WAT      O68371   2.795   8.688   8.819
22710WAT     H168372   2.753   8.599   8.839
22710WAT     H268373   2.723   8.754   8.798
22711WAT      O68374   7.126   7.940   2.630
22711WAT     H168375   7.031   7.967   2.645
22711WAT     H268376   7.145   7.939   2.532
22712WAT      O68377   8.191   2.980   7.517
22712WAT     H168378   8.269   2.919   7.527
22712WAT     H268379   8.137   2.981   7.601
22713WAT      O68380   3.088   9.570   7.773
22713WAT     H168381   3.102   9.507   7.697
22713WAT     H268382   2.998   9.553   7.814
22714WAT      O68383   6.513   3.610   4.348
22714WAT     H168384   6.572   3.542   4.304
22714WAT     H268385   6.419   3.596   4.318
22715WAT      O68386   5.934   0.541   1.787
22715WAT     H168387   5.971   0.630   1.812
22715WAT     H268388   5.843   0.552   1.746
22716WAT      O68389   4.825   7.994   8.896
22716WAT     H168390   4.741   7.978   8.949
22716WAT     H268391   4.821   8.085   8.855
22717WAT      O68392   9.730   3.452   5.190
22717WAT     H168393   9.765   3.509   5.116
22717WAT     H268394   9.682   3.510   5.257
22718WAT      O68395   9.199   1.416   6.972
22718WAT     H168396   9.270   1.418   7.042
22718WAT     H268397   9.238   1.384   6.886
22719WAT      O68398   2.459   8.805   9.549
22719WAT     H168399   2.397   8.826   9.473
22719WAT     H268400   2.503   8.717   9.533
22720WAT      O68401   3.422   7.738   0.976
22720WAT     H168402   3.478   7.699   1.049
22720WAT     H268403   3.407   7.669   0.905
22721WAT      O68404   5.306   2.068   5.768
22721WAT     H168405   5.316   2.127   5.848
22721WAT     H268406   5.324   2.121   5.685
22722WAT      O68407   0.298   3.206   2.606
22722WAT     H168408   0.362   3.282   2.603
22722WAT     H268409   0.260   3.190   2.515
22723WAT      O68410   4.579   1.306   0.880
22723WAT     H168411   4.564   1.404   0.893
22723WAT     H268412   4.675   1.290   0.856
22724WAT      O68413   5.221   0.162   2.508
22724WAT     H168414   5.238   0.065   2.492
22724WAT     H268415   5.225   0.181   2.607
22725WAT      O68416   6.215   3.791   0.342
22725WAT     H168417   6.138   3.812   0.281
22725WAT     H268418   6.228   3.691   0.345
22726WAT      O68419   9.400   5.385   2.560
22726WAT     H168420   9.402   5.294   2.599
22726WAT     H268421   9.382   5.452   2.632
22727WAT      O68422   9.786   7.958   5.883
22727WAT     H168423   9.852   7.907   5.938
22727WAT     H268424   9.732   8.017   5.943
22728WAT      O68425   0.339   6.702   6.781
22728WAT     H168426   0.382   6.792   6.790
22728WAT     H268427   0.307   6.671   6.871
22729WAT      O68428   6.046   2.375   5.321
22729WAT     H168429   5.962   2.381   5.374
22729WAT     H268430   6.028   2.398   5.226
22730WAT      O68431   0.514   6.240   3.033
22730WAT     H168432   0.497   6.204   2.942
22730WAT     H268433   0.552   6.168   3.091
22731WAT      O68434   0.055   5.901   3.001
22731WAT     H168435   0.148   5.934   2.989
22731WAT     H268436  -0.009   5.966   2.958
22732WAT      O68437   9.507   9.772   6.669
22732WAT     H168438   9.446   9.754   6.747
22732WAT     H268439   9.597   9.797   6.703
22733WAT      O68440   2.153   5.407   2.645
22733WAT     H168441   2.190   5.442   2.731
22733WAT     H268442   2.194   5.456   2.568
22734WAT      O68443   0.106   2.745   4.070
22734WAT     H168444   0.181   2.795   4.113
22734WAT     H268445   0.117   2.648   4.087
22735WAT      O68446   3.313   3.583   1.024
22735WAT     H168447   3.312   3.674   0.983
22735WAT     H268448   3.405   3.563   1.058
22736WAT      O68449   3.145   6.902   0.206
22736WAT     H168450   3.149   6.832   0.278
22736WAT     H268451   3.228   6.957   0.209
22737WAT      O68452   2.317   3.847   0.622
22737WAT     H168453   2.320   3.829   0.721
22737WAT     H268454   2.409   3.869   0.590
22738WAT      O68455   1.995   2.312   5.869
22738WAT     H168456   1.973   2.368   5.948
22738WAT     H268457   2.091   2.285   5.873
22739WAT      O68458   7.370   7.951   9.752
22739WAT     H168459   7.458   7.926   9.793
22739WAT     H268460   7.315   8.001   9.819
22740WAT      O68461   2.126   8.386   0.607
22740WAT     H168462   2.152   8.292   0.633
22740WAT     H268463   2.104   8.388   0.510
22741WAT      O68464   3.959   9.385   8.951
22741WAT     H168465   4.027   9.365   8.881
22741WAT     H268466   3.924   9.478   8.937
22742WAT      O68467   3.966   5.986   8.274
22742WAT     H168468   3.977   6.049   8.351
22742WAT     H268469   3.966   5.892   8.308
22743WAT      O68470   5.413   0.034   7.539
22743WAT     H168471   5.354   0.035   7.459
22743WAT     H268472   5.509   0.037   7.510
22744WAT      O68473   7.153   2.976   4.871
22744WAT     H168474   7.144   2.877   4.882
22744WAT     H268475   7.167   2.997   4.774
22745WAT      O68476   0.116   4.455   1.836
22745WAT     H168477   0.035   4.457   1.778
22745WAT     H268478   0.167   4.541   1.826
22746WAT      O68479   2.408   9.518   7.259
22746WAT     H168480   2.368   9.452   7.323
22746WAT     H268481   2.497   9.485   7.229
22747WAT      O68482   3.786   2.491   2.038
22747WAT     H168483   3.723   2.422   2.074
22747WAT     H268484   3.746   2.582   2.050
22748WAT      O68485   4.950   1.868   3.424
22748WAT     H168486   4.902   1.826   3.347
22748WAT     H268487   5.040   1.899   3.395
22749WAT      O68488   0.688   7.299   3.127
22749WAT     H168489   0.718   7.207   3.153
22749WAT     H268490   0.621   7.292   3.052
22750WAT      O68491   0.872   3.660   2.124
22750WAT     H168492   0.777   3.666   2.093
22750WAT     H268493   0.874   3.637   2.221
22751WAT      O68494   5.839   6.934   1.067
22751WAT     H168495   5.886   6.980   0.992
22751WAT     H268496   5.779   6.863   1.029
22752WAT      O68497   7.718   7.229   0.628
22752WAT     H168498   7.746   7.300   0.692
22752WAT     H268499   7.793   7.164   0.615
22753WAT      O68500   1.114   8.713   8.382
22753WAT     H168501   1.145   8.695   8.289
22753WAT     H268502   1.167   8.658   8.446
22754WAT      O68503   4.615   0.085   6.671
22754WAT     H168504   4.550   0.159   6.689
22754WAT     H268505   4.626   0.029   6.753
22755WAT      O68506   1.652   4.107   2.765
22755WAT     H168507   1.557   4.096   2.735
22755WAT     H268508   1.712   4.102   2.685
22756WAT      O68509   2.655   4.946   3.818
22756WAT     H168510   2.565   4.978   3.845
22756WAT     H268511   2.720   4.959   3.893
22757WAT      O68512   4.582   2.860   3.448
22757WAT     H168513   4.610   2.937   3.391
22757WAT     H268514   4.557   2.783   3.390
22758WAT      O68515   6.301   3.513   4.938
22758WAT     H168516   6.202   3.524   4.945
22758WAT     H268517   6.323   3.417   4.923
22759WAT      O68518   8.845   8.442   7.917
22759WAT     H168519   8.746   8.436   7.912
22759WAT     H268520   8.873   8.452   8.012
22760WAT      O68521   8.255   9.750   5.889
22760WAT     H168522   8.178   9.696   5.854
22760WAT     H268523   8.271   9.726   5.985
22761WAT      O68524   9.407   2.135   1.811
22761WAT     H168525   9.464   2.156   1.890
22761WAT     H268526   9.310   2.138   1.837
22762WAT      O68527   7.906   8.096   9.444
22762WAT     H168528   7.857   8.178   9.474
22762WAT     H268529   8.004   8.114   9.446
22763WAT      O68530   8.704   0.692   2.612
22763WAT     H168531   8.776   0.754   2.582
22763WAT     H268532   8.713   0.675   2.711
22764WAT      O68533   8.785   4.786   5.886
22764WAT     H168534   8.850   4.726   5.839
22764WAT     H268535   8.693   4.747   5.881
22765WAT      O68536   7.490   4.905   1.820
22765WAT     H168537   7.427   4.983   1.823
22765WAT     H268538   7.558   4.914   1.893
22766WAT      O68539   2.058   9.548   5.643
22766WAT     H168540   2.134   9.605   5.609
22766WAT     H268541   2.076   9.523   5.738
22767WAT      O68542   4.404   0.929   8.610
22767WAT     H168543   4.385   0.831   8.625
22767WAT     H268544   4.465   0.962   8.683
22768WAT      O68545   9.062   9.641   6.889
22768WAT     H168546   9.126   9.661   6.815
22768WAT     H268547   9.031   9.546   6.881
22769WAT      O68548   0.330   6.049   7.647
22769WAT     H168549   0.406   6.113   7.641
22769WAT     H268550   0.245   6.100   7.659
22770WAT      O68551   4.390   0.589   4.280
22770WAT     H168552   4.326   0.623   4.212
22770WAT     H268553   4.375   0.636   4.367
22771WAT      O68554   7.325   4.750   3.214
22771WAT     H168555   7.295   4.684   3.282
22771WAT     H268556   7.278   4.838   3.228
22772WAT      O68557   0.743   3.310   8.885
22772WAT     H168558   0.796   3.393   8.866
22772WAT     H268559   0.671   3.331   8.951
22773WAT      O68560   9.068   2.134   2.426
22773WAT     H168561   9.045   2.120   2.330
22773WAT     H268562   9.162   2.102   2.442
22774WAT      O68563   8.487   6.385   0.053
22774WAT     H168564   8.516   6.374   0.148
22774WAT     H268565   8.567   6.387  -0.006
22775WAT      O68566   0.406   6.523   6.141
22775WAT     H168567   0.317   6.567   6.130
22775WAT     H268568   0.412   6.445   6.078
22776WAT      O68569   0.980   6.692   9.300
22776WAT     H168570   0.976   6.643   9.213
22776WAT     H268571   1.071   6.732   9.311
22777WAT      O68572   4.096   2.903   9.108
22777WAT     H168573   4.122   2.970   9.039
22777WAT     H268574   4.075   2.816   9.064
22778WAT      O68575   6.756   8.018   9.638
22778WAT     H168576   6.717   8.105   9.610
22778WAT     H268577   6.687   7.946   9.631
22779WAT      O68578   6.942   5.127   0.548
22779WAT     H168579   6.852   5.170   0.555
22779WAT     H268580   6.961   5.075   0.631
22780WAT      O68581   5.978   5.704   5.903
22780WAT     H168582   5.959   5.783   5.960
22780WAT     H268583   6.059   5.721   5.847
22781WAT      O68584   5.185   3.917   8.799
22781WAT     H168585   5.192   3.956   8.707
22781WAT     H268586   5.189   3.991   8.867
22782WAT      O68587   3.133   7.573   3.689
22782WAT     H168588   3.222   7.556   3.646
22782WAT     H268589   3.070   7.608   3.621
22783WAT      O68590   4.265   9.798   7.975
22783WAT     H168591   4.253   9.747   8.060
22783WAT     H268592   4.260   9.735   7.897
22784WAT      O68593   9.871   8.615   5.609
22784WAT     H168594   9.950   8.644   5.663
22784WAT     H268595   9.870   8.515   5.604
22785WAT      O68596   9.177   4.733   0.167
22785WAT     H168597   9.162   4.667   0.093
22785WAT     H268598   9.133   4.820   0.144
22786WAT      O68599   9.760   6.217   2.118
22786WAT     H168600   9.714   6.305   2.131
22786WAT     H268601   9.842   6.214   2.175
22787WAT      O68602   0.717   6.648   2.349
22787WAT     H168603   0.648   6.674   2.416
22787WAT     H268604   0.776   6.577   2.387
22788WAT      O68605   5.384   6.433   0.751
22788WAT     H168606   5.324   6.355   0.771
22788WAT     H268607   5.439   6.412   0.671
22789WAT      O68608   8.789   5.078   7.370
22789WAT     H168609   8.759   5.173   7.372
22789WAT     H268610   8.843   5.058   7.452
22790WAT      O68611   5.156   7.124   7.828
22790WAT     H168612   5.140   7.027   7.847
22790WAT     H268613   5.136   7.177   7.911
22791WAT      O68614   8.990   7.391   5.642
22791WAT     H168615   9.078   7.344   5.652
22791WAT     H268616   9.001   7.472   5.585
22792WAT      O68617   3.162   9.459   4.562
22792WAT     H168618   3.159   9.556   4.535
22792WAT     H268619   3.076   9.434   4.606
22793WAT      O68620   5.766   0.193   5.223
22793WAT     H168621   5.713   0.112   5.250
22793WAT     H268622   5.766   0.259   5.297
22794WAT      O68623   7.939   3.312   9.593
22794WAT     H168624   7.935   3.313   9.693
22794WAT     H268625   8.000   3.384   9.562
22795WAT      O68626   6.328   0.412   3.034
22795WAT     H168627   6.367   0.370   2.952
22795WAT     H268628   6.252   0.357   3.068
22796WAT      O68629   7.869   9.300   7.585
22796WAT     H168630   7.950   9.317   7.641
22796WAT     H268631   7.803   9.247   7.637
22797WAT      O68632   3.830   2.402   1.464
22797WAT     H168633   3.813   2.307   1.491
22797WAT     H268634   3.916   2.433   1.503
22798WAT      O68635   9.310   1.842   5.912
22798WAT     H168636   9.249   1.917   5.939
22798WAT     H268637   9.405   1.869   5.927
22799WAT      O68638   6.024   7.464   0.517
22799WAT     H168639   6.105   7.520   0.497
22799WAT     H268640   6.025   7.383   0.458
22800WAT      O68641   3.922   3.838   3.387
22800WAT     H168642   3.872   3.924   3.375
22800WAT     H268643   3.860   3.762   3.371
22801WAT      O68644   7.668   3.273   5.559
22801WAT     H168645   7.627   3.361   5.536
22801WAT     H268646   7.705   3.231   5.477
22802WAT      O68647   3.356   0.888   5.181
22802WAT     H168648   3.370   0.898   5.082
22802WAT     H268649   3.445   0.888   5.226
22803WAT      O68650   3.283   4.627   1.002
22803WAT     H168651   3.300   4.619   1.100
22803WAT     H268652   3.364   4.596   0.952
22804WAT      O68653   3.858   6.646   0.658
22804WAT     H168654   3.905   6.560   0.640
22804WAT     H268655   3.867   6.707   0.579
22805WAT      O68656   8.956   6.949   9.108
22805WAT     H168657   8.865   6.951   9.066
22805WAT     H268658   8.947   6.952   9.207
22806WAT      O68659   2.174   8.411   5.008
22806WAT     H168660   2.166   8.349   4.929
22806WAT     H268661   2.209   8.361   5.086
22807WAT      O68662   9.499   6.096   4.912
22807WAT     H168663   9.405   6.109   4.879
22807WAT     H268664   9.562   6.141   4.849
22808WAT      O68665   3.238   9.811   8.748
22808WAT     H168666   3.187   9.842   8.828
22808WAT     H268667   3.174   9.784   8.676
22809WAT      O68668   4.566   2.185   9.605
22809WAT     H168669   4.636   2.220   9.544
22809WAT     H268670   4.594   2.096   9.641
22810WAT      O68671   5.064   9.243   9.414
22810WAT     H168672   5.069   9.191   9.499
22810WAT     H268673   5.063   9.179   9.337
22811WAT      O68674   3.885   1.606   5.652
22811WAT     H168675   3.803   1.613   5.710
22811WAT     H268676   3.959   1.564   5.704
22812WAT      O68677   1.769   6.225   5.423
22812WAT     H168678   1.706   6.154   5.392
22812WAT     H268679   1.722   6.312   5.430
22813WAT      O68680   3.416   1.784   7.678
22813WAT     H168681   3.344   1.715   7.671
22813WAT     H268682   3.504   1.741   7.659
22814WAT      O68683   1.779   1.704   8.108
22814WAT     H168684   1.803   1.617   8.151
22814WAT     H268685   1.726   1.759   8.173
22815WAT      O68686   9.239   1.312   1.240
22815WAT     H168687   9.232   1.326   1.339
22815WAT     H268688   9.306   1.241   1.220
22816WAT      O68689   1.229   4.029   7.570
22816WAT     H168690   1.287   4.023   7.488
22816WAT     H268691   1.189   4.120   7.575
22817WAT      O68692   0.445   5.750   0.494
22817WAT     H168693   0.364   5.739   0.551
22817WAT     H268694   0.520   5.694   0.530
22818WAT      O68695   3.252   6.867   5.105
22818WAT     H168696   3.302   6.784   5.079
22818WAT     H268697   3.279   6.942   5.045
22819WAT      O68698   0.956   5.035   5.797
22819WAT     H168699   0.938   5.072   5.888
22819WAT     H268700   0.936   5.105   5.728
22820WAT      O68701   5.088   8.127   7.105
22820WAT     H168702   5.027   8.158   7.032
22820WAT     H268703   5.118   8.034   7.086
22821WAT      O68704   5.858   0.305   2.326
22821WAT     H168705   5.795   0.338   2.397
22821WAT     H268706   5.809   0.249   2.261
22822WAT      O68707   8.465   2.684   3.667
22822WAT     H168708   8.528   2.714   3.739
22822WAT     H268709   8.394   2.626   3.707
22823WAT      O68710   5.323   4.425   0.560
22823WAT     H168711   5.354   4.433   0.466
22823WAT     H268712   5.396   4.387   0.617
22824WAT      O68713   0.638   1.243   9.122
22824WAT     H168714   0.698   1.176   9.078
22824WAT     H268715   0.594   1.300   9.053
22825WAT      O68716   1.997   7.171   7.875
22825WAT     H168717   1.926   7.227   7.919
22825WAT     H268718   2.046   7.119   7.946
22826WAT      O68719   0.016   7.750   7.007
22826WAT     H168720  -0.010   7.752   6.910
22826WAT     H268721   0.075   7.828   7.027
22827WAT      O68722   1.712   9.647   7.799
22827WAT     H168723   1.696   9.723   7.861
22827WAT     H268724   1.625   9.605   7.774
22828WAT      O68725   8.731   3.819   1.485
22828WAT     H168726   8.802   3.847   1.421
22828WAT     H268727   8.763   3.835   1.579
22829WAT      O68728   5.353   6.500   7.766
22829WAT     H168729   5.276   6.450   7.806
22829WAT     H268730   5.368   6.467   7.673
22830WAT      O68731   0.882   5.771   3.762
22830WAT     H168732   0.958   5.762   3.826
22830WAT     H268733   0.892   5.705   3.688
22831WAT      O68734   6.144   0.952   8.436
22831WAT     H168735   6.200   1.027   8.401
22831WAT     H268736   6.066   0.989   8.487
22832WAT      O68737   6.231   1.808   9.531
22832WAT     H168738   6.239   1.731   9.593
22832WAT     H268739   6.175   1.782   9.452
22833WAT      O68740   2.980   0.333   9.489
22833WAT     H168741   3.061   0.335   9.430
22833WAT     H268742   2.939   0.242   9.485
22834WAT      O68743   2.791   6.293   8.010
22834WAT     H168744   2.724   6.284   8.084
22834WAT     H268745   2.815   6.389   7.998
22835WAT      O68746   6.797   2.768   7.649
22835WAT     H168747   6.890   2.788   7.620
22835WAT     H268748   6.787   2.787   7.747
22836WAT      O68749   5.530   2.005   3.568
22836WAT     H168750   5.563   2.095   3.540
22836WAT     H268751   5.579   1.976   3.651
22837WAT      O68752   8.873   5.555   6.330
22837WAT     H168753   8.861   5.459   6.304
22837WAT     H268754   8.963   5.567   6.373
22838WAT      O68755   5.530   2.227   5.552
22838WAT     H168756   5.568   2.251   5.462
22838WAT     H268757   5.579   2.149   5.589
22839WAT      O68758   5.848   1.251   7.180
22839WAT     H168759   5.786   1.188   7.132
22839WAT     H268760   5.813   1.344   7.173
22840WAT      O68761   5.479   3.034   5.638
22840WAT     H168762   5.530   3.120   5.638
22840WAT     H268763   5.530   2.965   5.691
22841WAT      O68764   5.353   8.343   5.018
22841WAT     H168765   5.390   8.253   4.998
22841WAT     H268766   5.339   8.352   5.117
22842WAT      O68767   8.277   0.675   3.718
22842WAT     H168768   8.296   0.734   3.796
22842WAT     H268769   8.345   0.692   3.646
22843WAT      O68770   3.729   4.168   0.892
22843WAT     H168771   3.733   4.104   0.815
22843WAT     H268772   3.648   4.225   0.884
22844WAT      O68773   8.108   5.355   3.908
22844WAT     H168774   8.127   5.262   3.936
22844WAT     H268775   8.010   5.366   3.891
22845WAT      O68776   9.156   2.554   8.748
22845WAT     H168777   9.153   2.482   8.818
22845WAT     H268778   9.251   2.575   8.727
22846WAT      O68779   5.524   3.412   8.825
22846WAT     H168780   5.613   3.400   8.782
22846WAT     H268781   5.465   3.466   8.765
22847WAT      O68782   4.690   3.680   6.615
22847WAT     H168783   4.691   3.722   6.524
22847WAT     H268784   4.742   3.738   6.678
22848WAT      O68785   1.913   1.548   3.331
22848WAT     H168786   1.855   1.496   3.269
22848WAT     H268787   2.009   1.539   3.304
22849WAT      O68788   7.560   4.868   8.577
22849WAT     H168789   7.573   4.838   8.482
22849WAT     H268790   7.613   4.951   8.593
22850WAT      O68791   5.664   0.646   5.102
22850WAT     H168792   5.599   0.587   5.148
22850WAT     H268793   5.753   0.600   5.096
22851WAT      O68794   0.619   1.520   0.452
22851WAT     H168795   0.555   1.445   0.470
22851WAT     H268796   0.574   1.607   0.469
22852WAT      O68797   7.722   7.864   2.349
22852WAT     H168798   7.790   7.916   2.400
22852WAT     H268799   7.646   7.924   2.323
22853WAT      O68800   7.707   6.978   8.393
22853WAT     H168801   7.715   6.957   8.490
22853WAT     H268802   7.796   6.966   8.348
22854WAT      O68803   1.914   1.986   5.288
22854WAT     H168804   1.982   1.996   5.215
22854WAT     H268805   1.955   1.941   5.366
22855WAT      O68806   9.346   0.779   0.470
22855WAT     H168807   9.271   0.844   0.486
22855WAT     H268808   9.347   0.752   0.374
22856WAT      O68809   1.210   8.308   9.198
22856WAT     H168810   1.173   8.391   9.156
22856WAT     H268811   1.135   8.255   9.237
22857WAT      O68812   5.945   7.509   9.656
22857WAT     H168813   6.023   7.488   9.714
22857WAT     H268814   5.951   7.456   9.571
22858WAT      O68815   9.350   5.443   1.481
22858WAT     H168816   9.407   5.418   1.560
22858WAT     H268817   9.379   5.531   1.445
22859WAT      O68818   8.293   6.994   3.526
22859WAT     H168819   8.306   6.898   3.501
22859WAT     H268820   8.276   7.047   3.444
22860WAT      O68821   4.595   7.203   5.823
22860WAT     H168822   4.682   7.167   5.789
22860WAT     H268823   4.540   7.236   5.746
22861WAT      O68824   0.010   0.157   9.529
22861WAT     H168825  -0.015   0.121   9.618
22861WAT     H268826  -0.071   0.160   9.471
22862WAT      O68827   9.079   4.242   7.970
22862WAT     H168828   9.054   4.316   7.907
22862WAT     H268829   9.175   4.251   7.995
22863WAT      O68830   2.677   7.329   9.716
22863WAT     H168831   2.603   7.376   9.764
22863WAT     H268832   2.762   7.340   9.767
22864WAT      O68833   4.116   8.200   4.615
22864WAT     H168834   4.125   8.127   4.548
22864WAT     H268835   4.023   8.236   4.614
22865WAT      O68836   4.460   4.058   6.236
22865WAT     H168837   4.467   4.034   6.333
22865WAT     H268838   4.367   4.039   6.203
22866WAT      O68839   1.929   2.301   5.094
22866WAT     H168840   1.998   2.367   5.124
22866WAT     H268841   1.861   2.288   5.166
22867WAT      O68842   4.508   0.785   9.030
22867WAT     H168843   4.527   0.736   9.115
22867WAT     H268844   4.409   0.786   9.013
22868WAT      O68845   2.964   9.203   1.319
22868WAT     H168846   2.951   9.280   1.381
22868WAT     H268847   2.875   9.162   1.296
22869WAT      O68848   3.454   2.662   1.897
22869WAT     H168849   3.538   2.706   1.930
22869WAT     H268850   3.436   2.692   1.803
22870WAT      O68851   2.656   1.919   2.171
22870WAT     H168852   2.597   1.967   2.235
22870WAT     H268853   2.602   1.884   2.095
22871WAT      O68854   7.494   2.279   3.230
22871WAT     H168855   7.566   2.348   3.218
22871WAT     H268856   7.535   2.188   3.227
22872WAT      O68857   4.906   1.816   7.053
22872WAT     H168858   4.837   1.873   7.010
22872WAT     H268859   4.870   1.722   7.062
22873WAT      O68860   5.409   8.535   3.756
22873WAT     H168861   5.335   8.589   3.796
22873WAT     H268862   5.496   8.583   3.768
22874WAT      O68863   5.204   4.862   7.281
22874WAT     H168864   5.178   4.837   7.188
22874WAT     H268865   5.254   4.948   7.280
22875WAT      O68866   2.592   3.494   1.920
22875WAT     H168867   2.541   3.515   1.836
22875WAT     H268868   2.690   3.491   1.899
22876WAT      O68869   0.338   3.599   0.279
22876WAT     H168870   0.348   3.506   0.313
22876WAT     H268871   0.264   3.645   0.327
22877WAT      O68872   8.439   0.283   3.737
22877WAT     H168873   8.361   0.339   3.764
22877WAT     H268874   8.515   0.341   3.710
22878WAT      O68875   8.674   8.157   9.750
22878WAT     H168876   8.730   8.144   9.832
22878WAT     H268877   8.607   8.084   9.744
22879WAT      O68878   5.287   6.974   3.021
22879WAT     H168879   5.330   6.988   3.110
22879WAT     H268880   5.358   6.963   2.951
22880WAT      O68881   3.477   5.150   9.245
22880WAT     H168882   3.417   5.070   9.249
22880WAT     H268883   3.432   5.223   9.193
22881WAT      O68884   2.597   0.728   9.296
22881WAT     H168885   2.601   0.827   9.279
22881WAT     H268886   2.501   0.701   9.310
22882WAT      O68887   7.954   4.309   1.938
22882WAT     H168888   8.035   4.362   1.915
22882WAT     H268889   7.924   4.332   2.031
22883WAT      O68890   9.455   6.458   1.776
22883WAT     H168891   9.473   6.501   1.864
22883WAT     H268892   9.506   6.506   1.704
22884WAT      O68893   3.903   2.894   5.199
22884WAT     H168894   3.863   2.985   5.188
22884WAT     H268895   3.968   2.895   5.276
22885WAT      O68896   7.858   7.238   8.883
22885WAT     H168897   7.819   7.253   8.792
22885WAT     H268898   7.958   7.239   8.877
22886WAT      O68899   5.330   4.616   1.607
22886WAT     H168900   5.413   4.562   1.591
22886WAT     H268901   5.354   4.702   1.652
22887WAT      O68902   7.979   6.845   0.831
22887WAT     H168903   7.994   6.907   0.908
22887WAT     H268904   7.939   6.760   0.865
22888WAT      O68905   3.101   7.926   0.982
22888WAT     H168906   3.129   7.931   0.886
22888WAT     H268907   3.182   7.932   1.041
22889WAT      O68908   8.219   6.475   7.624
22889WAT     H168909   8.305   6.526   7.617
22889WAT     H268910   8.143   6.539   7.631
22890WAT      O68911   4.385   2.637   0.445
22890WAT     H168912   4.358   2.541   0.431
22890WAT     H268913   4.478   2.640   0.483
22891WAT      O68914   5.009   1.269   2.514
22891WAT     H168915   4.927   1.306   2.558
22891WAT     H268916   5.049   1.338   2.454
22892WAT      O68917   4.258   3.270   7.799
22892WAT     H168918   4.212   3.244   7.714
22892WAT     H268919   4.326   3.201   7.823
22893WAT      O68920   9.310   4.951   1.530
22893WAT     H168921   9.324   4.937   1.432
22893WAT     H268922   9.262   5.038   1.544
22894WAT      O68923   2.339   4.017   7.289
22894WAT     H168924   2.253   3.987   7.248
22894WAT     H268925   2.355   4.113   7.266
22895WAT      O68926   0.209   6.081   2.172
22895WAT     H168927   0.270   6.136   2.115
22895WAT     H268928   0.264   6.028   2.237
22896WAT      O68929   4.328   6.655   6.789
22896WAT     H168930   4.420   6.687   6.765
22896WAT     H268931   4.297   6.702   6.871
22897WAT      O68932   1.458   9.352   3.164
22897WAT     H168933   1.413   9.434   3.127
22897WAT     H268934   1.464   9.360   3.264
22898WAT      O68935   5.579   2.389   3.278
22898WAT     H168936   5.537   2.459   3.222
22898WAT     H268937   5.678   2.389   3.263
22899WAT      O68938   7.371   8.374   1.575
22899WAT     H168939   7.362   8.371   1.476
22899WAT     H268940   7.452   8.322   1.603
22900WAT      O68941   6.740   0.352   2.367
22900WAT     H168942   6.728   0.451   2.360
22900WAT     H268943   6.683   0.307   2.298
22901WAT      O68944   7.377   4.710   1.291
22901WAT     H168945   7.332   4.799   1.294
22901WAT     H268946   7.319   4.642   1.338
22902WAT      O68947   6.743   3.851   5.915
22902WAT     H168948   6.658   3.849   5.968
22902WAT     H268949   6.816   3.808   5.969
22903WAT      O68950   2.521   6.418   7.002
22903WAT     H168951   2.530   6.503   6.949
22903WAT     H268952   2.612   6.379   7.018
22904WAT      O68953   0.683   7.745   2.144
22904WAT     H168954   0.689   7.845   2.151
22904WAT     H268955   0.615   7.712   2.209
22905WAT      O68956   4.448   7.752   1.818
22905WAT     H168957   4.546   7.763   1.837
22905WAT     H268958   4.436   7.687   1.743
22906WAT      O68959   5.764   3.597   8.555
22906WAT     H168960   5.752   3.612   8.457
22906WAT     H268961   5.697   3.652   8.606
22907WAT      O68962   6.208   1.073   4.362
22907WAT     H168963   6.281   1.070   4.429
22907WAT     H268964   6.143   1.145   4.387
22908WAT      O68965   6.203   4.111   0.012
22908WAT     H168966   6.117   4.110  -0.040
22908WAT     H268967   6.186   4.150   0.103
22909WAT      O68968   4.451   9.165   9.296
22909WAT     H168969   4.398   9.248   9.311
22909WAT     H268970   4.473   9.123   9.384
22910WAT      O68971   2.558   1.631   3.633
22910WAT     H168972   2.487   1.623   3.703
22910WAT     H268973   2.643   1.663   3.675
22911WAT      O68974   9.329   1.323   6.757
22911WAT     H168975   9.337   1.374   6.671
22911WAT     H268976   9.344   1.226   6.740
22912WAT      O68977   3.124   8.699   0.683
22912WAT     H168978   3.156   8.767   0.617
22912WAT     H268979   3.121   8.609   0.640
22913WAT      O68980   5.563   2.392   0.118
22913WAT     H168981   5.526   2.376   0.026
22913WAT     H268982   5.642   2.453   0.112
22914WAT      O68983   1.319   3.095   5.481
22914WAT     H168984   1.248   3.026   5.476
22914WAT     H268985   1.298   3.170   5.419
22915WAT      O68986   1.419   8.470   4.695
22915WAT     H168987   1.355   8.394   4.697
22915WAT     H268988   1.431   8.502   4.601
22916WAT      O68989   5.172   9.502   4.415
22916WAT     H168990   5.167   9.478   4.511
22916WAT     H268991   5.151   9.600   4.404
22917WAT      O68992   6.776   5.784   0.077
22917WAT     H168993   6.736   5.693   0.086
22917WAT     H268994   6.734   5.831  -0.001
22918WAT      O68995   8.940   6.232   3.350
22918WAT     H168996   8.861   6.292   3.363
22918WAT     H268997   8.935   6.156   3.414
22919WAT      O68998   3.822   9.495   4.723
22919WAT     H168999   3.816   9.482   4.822
22919WAT     H269000   3.875   9.422   4.682
22920WAT      O69001   0.530   1.678   6.009
22920WAT     H169002   0.627   1.679   6.033
22920WAT     H269003   0.475   1.664   6.091
22921WAT      O69004   0.501   3.483   2.012
22921WAT     H169005   0.518   3.552   2.082
22921WAT     H269006   0.513   3.391   2.051
22922WAT      O69007   6.904   6.232   0.460
22922WAT     H169008   6.973   6.281   0.513
22922WAT     H269009   6.925   6.240   0.362
22923WAT      O69010   2.343   1.435   6.866
22923WAT     H169011   2.399   1.355   6.843
22923WAT     H269012   2.268   1.406   6.925
22924WAT      O69013   0.523   5.898   9.814
22924WAT     H169014   0.444   5.869   9.867
22924WAT     H269015   0.550   5.990   9.843
22925WAT      O69016   0.454   5.539   1.959
22925WAT     H169017   0.468   5.450   1.915
22925WAT     H269018   0.365   5.539   2.005
22926WAT      O69019   3.402   7.032   4.952
22926WAT     H169020   3.466   6.954   4.958
22926WAT     H269021   3.445   7.107   4.902
22927WAT      O69022   2.513   7.048   7.842
22927WAT     H169023   2.511   6.957   7.884
22927WAT     H269024   2.419   7.080   7.829
22928WAT      O69025   0.613   4.465   1.166
22928WAT     H169026   0.516   4.444   1.183
22928WAT     H269027   0.658   4.488   1.252
22929WAT      O69028   5.213   1.060   8.925
22929WAT     H169029   5.124   1.070   8.969
22929WAT     H269030   5.269   0.996   8.978
22930WAT      O69031   6.911   3.592   3.160
22930WAT     H169032   6.863   3.672   3.123
22930WAT     H269033   7.009   3.613   3.166
22931WAT      O69034   3.009   6.002   4.193
22931WAT     H169035   3.052   6.092   4.193
22931WAT     H269036   3.068   5.936   4.240
22932WAT      O69037   6.123   9.027   1.576
22932WAT     H169038   6.210   9.074   1.588
22932WAT     H269039   6.049   9.094   1.573
22933WAT      O69040   6.958   7.834   9.509
22933WAT     H169041   7.044   7.813   9.556
22933WAT     H269042   6.889   7.858   9.577
22934WAT      O69043   2.357   4.585   3.989
22934WAT     H169044   2.344   4.568   3.892
22934WAT     H269045   2.349   4.683   4.008
22935WAT      O69046   2.801   1.194   2.381
22935WAT     H169047   2.860   1.209   2.302
22935WAT     H269048   2.756   1.105   2.373
22936WAT      O69049   3.553   0.602   3.440
22936WAT     H169050   3.592   0.587   3.531
22936WAT     H269051   3.626   0.594   3.371
22937WAT      O69052   9.010   5.005   5.592
22937WAT     H169053   9.094   4.982   5.542
22937WAT     H269054   8.940   4.936   5.573
22938WAT      O69055   5.871   8.627   5.793
22938WAT     H169056   5.787   8.645   5.742
22938WAT     H269057   5.892   8.529   5.790
22939WAT      O69058   4.730   1.957   1.849
22939WAT     H169059   4.729   1.883   1.916
22939WAT     H269060   4.779   2.035   1.887
22940WAT      O69061   1.132   2.880   5.775
22940WAT     H169062   1.085   2.860   5.861
22940WAT     H269063   1.135   2.979   5.760
22941WAT      O69064   0.186   1.966   6.972
22941WAT     H169065   0.149   2.009   7.054
22941WAT     H269066   0.110   1.941   6.911
22942WAT      O69067   8.985   2.785   6.010
22942WAT     H169068   9.038   2.779   6.094
22942WAT     H269069   8.953   2.694   5.983
22943WAT      O69070   5.963   2.957   1.124
22943WAT     H169071   5.885   3.018   1.136
22943WAT     H269072   6.048   3.009   1.132
22944WAT      O69073   8.884   3.338   9.077
22944WAT     H169074   8.809   3.271   9.076
22944WAT     H269075   8.948   3.318   9.003
22945WAT      O69076   8.930   2.446   0.056
22945WAT     H169077   9.017   2.479   0.019
22945WAT     H269078   8.883   2.390  -0.012
22946WAT      O69079   6.179   4.263   8.693
22946WAT     H169080   6.103   4.323   8.666
22946WAT     H269081   6.249   4.318   8.739
22947WAT      O69082   9.479   5.687   6.934
22947WAT     H169083   9.415   5.764   6.933
22947WAT     H269084   9.435   5.608   6.892
22948WAT      O69085   6.003   6.555   0.047
22948WAT     H169086   5.973   6.568  -0.047
22948WAT     H269087   5.972   6.466   0.081
22949WAT      O69088   7.176   6.840   6.160
22949WAT     H169089   7.088   6.886   6.150
22949WAT     H269090   7.248   6.898   6.121
22950WAT      O69091   1.521   9.755   2.999
22950WAT     H169092   1.536   9.697   2.919
22950WAT     H269093   1.510   9.698   3.080
22951WAT      O69094   2.104   4.273   1.282
22951WAT     H169095   2.045   4.239   1.356
22951WAT     H269096   2.140   4.195   1.231
22952WAT      O69097   3.646   2.175   6.003
22952WAT     H169098   3.642   2.196   6.101
22952WAT     H269099   3.730   2.212   5.964
22953WAT      O69100   8.483   0.345   9.455
22953WAT     H169101   8.572   0.387   9.474
22953WAT     H269102   8.467   0.344   9.356
22954WAT      O69103   6.167   4.056   1.861
22954WAT     H169104   6.138   4.069   1.766
22954WAT     H269105   6.167   3.958   1.882
22955WAT      O69106   9.066   3.301   1.399
22955WAT     H169107   9.118   3.238   1.341
22955WAT     H269108   8.977   3.319   1.357
22956WAT      O69109   2.521   2.719   3.983
22956WAT     H169110   2.526   2.629   4.026
22956WAT     H269111   2.540   2.710   3.886
22957WAT      O69112   0.064   4.180   9.205
22957WAT     H169113   0.049   4.175   9.304
22957WAT     H269114   0.158   4.209   9.186
22958WAT      O69115   0.257   5.501   8.106
22958WAT     H169116   0.160   5.500   8.130
22958WAT     H269117   0.285   5.410   8.075
22959WAT      O69118   4.682   3.978   2.960
22959WAT     H169119   4.773   3.940   2.978
22959WAT     H269120   4.614   3.930   3.015
22960WAT      O69121   1.608   5.541   8.251
22960WAT     H169122   1.705   5.560   8.270
22960WAT     H269123   1.586   5.449   8.284
22961WAT      O69124   7.526   0.032   0.230
22961WAT     H169125   7.514  -0.063   0.259
22961WAT     H269126   7.437   0.071   0.207
22962WAT      O69127   9.302   5.182   0.745
22962WAT     H169128   9.284   5.250   0.817
22962WAT     H269129   9.371   5.219   0.682
22963WAT      O69130   0.019   4.000   0.274
22963WAT     H169131  -0.012   3.906   0.287
22963WAT     H269132   0.036   4.043   0.362
22964WAT      O69133   8.825   0.645   6.970
22964WAT     H169134   8.814   0.743   6.951
22964WAT     H269135   8.909   0.612   6.926
22965WAT      O69136   2.957   6.582   3.618
22965WAT     H169137   3.046   6.536   3.619
22965WAT     H269138   2.929   6.601   3.524
22966WAT      O69139   2.720   1.018   0.567
22966WAT     H169140   2.707   1.056   0.658
22966WAT     H269141   2.682   1.081   0.499
22967WAT      O69142   8.859   3.079   2.963
22967WAT     H169143   8.852   3.029   3.049
22967WAT     H269144   8.954   3.082   2.933
22968WAT      O69145   5.985   4.504   3.294
22968WAT     H169146   5.892   4.532   3.272
22968WAT     H269147   5.990   4.404   3.298
22969WAT      O69148   9.544   1.954   5.982
22969WAT     H169149   9.635   1.944   5.940
22969WAT     H269150   9.552   1.942   6.080
22970WAT      O69151   7.995   6.474   5.791
22970WAT     H169152   7.933   6.441   5.863
22970WAT     H269153   8.030   6.396   5.740
22971WAT      O69154   7.680   6.309   4.654
22971WAT     H169155   7.714   6.305   4.748
22971WAT     H269156   7.661   6.404   4.630
22972WAT      O69157   5.323   9.574   1.900
22972WAT     H169158   5.354   9.479   1.898
22972WAT     H269159   5.399   9.634   1.923
22973WAT      O69160   4.659   1.114   9.397
22973WAT     H169161   4.626   1.132   9.490
22973WAT     H269162   4.745   1.163   9.382
22974WAT      O69163   2.477   8.807   4.812
22974WAT     H169164   2.404   8.873   4.793
22974WAT     H269165   2.438   8.728   4.860
22975WAT      O69166   7.788   4.302   0.133
22975WAT     H169167   7.691   4.324   0.139
22975WAT     H269168   7.826   4.291   0.224
22976WAT      O69169   3.844   7.981   2.167
22976WAT     H169170   3.890   8.059   2.124
22976WAT     H269171   3.749   7.977   2.135
22977WAT      O69172   3.007   3.128   7.986
22977WAT     H169173   2.951   3.115   8.068
22977WAT     H269174   3.104   3.125   8.010
22978WAT      O69175   5.942   9.833   8.794
22978WAT     H169176   6.021   9.778   8.823
22978WAT     H269177   5.960   9.930   8.815
22979WAT      O69178   6.932   3.675   4.582
22979WAT     H169179   6.933   3.653   4.484
22979WAT     H269180   6.924   3.774   4.594
22980WAT      O69181   6.824   0.499   8.508
22980WAT     H169182   6.730   0.510   8.475
22980WAT     H269183   6.881   0.570   8.466
22981WAT      O69184   1.490   4.370   0.452
22981WAT     H169185   1.440   4.453   0.478
22981WAT     H269186   1.479   4.354   0.354
22982WAT      O69187   6.514   1.886   1.523
22982WAT     H169188   6.507   1.850   1.615
22982WAT     H269189   6.494   1.984   1.524
22983WAT      O69190   0.479   7.366   0.546
22983WAT     H169191   0.553   7.430   0.525
22983WAT     H269192   0.445   7.384   0.638
22984WAT      O69193   1.111   8.445   5.577
22984WAT     H169194   1.060   8.528   5.597
22984WAT     H269195   1.047   8.371   5.554
22985WAT      O69196   8.751   9.391   7.394
22985WAT     H169197   8.707   9.322   7.451
22985WAT     H269198   8.739   9.366   7.297
22986WAT      O69199   4.300   2.051   0.068
22986WAT     H169200   4.241   2.004   0.003
22986WAT     H269201   4.335   1.985   0.135
22987WAT      O69202   2.035   1.111   5.256
22987WAT     H169203   2.046   1.024   5.304
22987WAT     H269204   2.049   1.097   5.158
22988WAT      O69205   9.099   5.718   9.465
22988WAT     H169206   9.163   5.788   9.434
22988WAT     H269207   9.143   5.662   9.535
22989WAT      O69208   0.517   4.383   4.274
22989WAT     H169209   0.495   4.480   4.285
22989WAT     H269210   0.617   4.372   4.278
22990WAT      O69211   6.357   4.771   7.958
22990WAT     H169212   6.382   4.675   7.949
22990WAT     H269213   6.397   4.824   7.883
22991WAT      O69214   6.708   9.317   1.835
22991WAT     H169215   6.738   9.409   1.861
22991WAT     H269216   6.648   9.322   1.756
22992WAT      O69217   5.166   3.791   1.068
22992WAT     H169218   5.120   3.711   1.029
22992WAT     H269219   5.225   3.833   0.999
22993WAT      O69220   6.825   3.103   3.864
22993WAT     H169221   6.862   3.036   3.929
22993WAT     H269222   6.811   3.060   3.775
22994WAT      O69223   4.029   4.951   1.721
22994WAT     H169224   3.945   4.991   1.759
22994WAT     H269225   4.108   4.998   1.759
22995WAT      O69226   3.662   5.344   0.495
22995WAT     H169227   3.687   5.424   0.550
22995WAT     H269228   3.563   5.333   0.497
22996WAT      O69229   2.575   0.762   6.723
22996WAT     H169230   2.653   0.713   6.683
22996WAT     H269231   2.602   0.802   6.810
22997WAT      O69232   2.944   6.605   8.257
22997WAT     H169233   2.862   6.624   8.311
22997WAT     H269234   2.920   6.604   8.159
22998WAT      O69235   8.398   1.013   1.224
22998WAT     H169236   8.342   1.092   1.246
22998WAT     H269237   8.472   1.003   1.291
22999WAT      O69238   8.992   6.851   4.933
22999WAT     H169239   8.999   6.951   4.942
22999WAT     H269240   9.007   6.809   5.022
23000WAT      O69241   7.685   3.233   4.624
23000WAT     H169242   7.625   3.179   4.683
23000WAT     H269243   7.636   3.314   4.591
23001WAT      O69244   8.359   1.231   6.024
23001WAT     H169245   8.302   1.152   6.048
23001WAT     H269246   8.380   1.283   6.107
23002WAT      O69247   9.271   7.016   0.577
23002WAT     H169248   9.178   7.014   0.539
23002WAT     H269249   9.293   6.928   0.617
23003WAT      O69250   8.970   2.431   1.801
23003WAT     H169251   8.958   2.527   1.776
23003WAT     H269252   8.933   2.415   1.892
23004WAT      O69253   7.787   0.036   7.336
23004WAT     H169254   7.723  -0.016   7.279
23004WAT     H269255   7.735   0.096   7.397
23005WAT      O69256   6.538   1.766   2.894
23005WAT     H169257   6.451   1.799   2.856
23005WAT     H269258   6.548   1.669   2.875
23006WAT      O69259   8.857   0.097   9.433
23006WAT     H169260   8.925   0.166   9.409
23006WAT     H269261   8.875   0.062   9.525
23007WAT      O69262   3.244   9.175   4.493
23007WAT     H169263   3.281   9.257   4.537
23007WAT     H269264   3.151   9.159   4.525
23008WAT      O69265   0.997   2.307   2.455
23008WAT     H169266   1.086   2.334   2.491
23008WAT     H269267   0.990   2.331   2.359
23009WAT      O69268   7.045   0.552   6.696
23009WAT     H169269   7.095   0.471   6.664
23009WAT     H269270   6.948   0.529   6.705
23010WAT      O69271   6.390   5.210   7.204
23010WAT     H169272   6.329   5.224   7.127
23010WAT     H269273   6.370   5.277   7.276
23011WAT      O69274   8.958   2.121   6.608
23011WAT     H169275   8.944   2.099   6.512
23011WAT     H269276   9.006   2.208   6.616
23012WAT      O69277   2.026   3.938   5.103
23012WAT     H169278   2.093   3.870   5.072
23012WAT     H269279   2.058   4.030   5.079
23013WAT      O69280   3.074   0.398   1.467
23013WAT     H169281   3.110   0.353   1.549
23013WAT     H269282   3.142   0.462   1.432
23014WAT      O69283   9.359   2.428   1.091
23014WAT     H169284   9.293   2.409   1.018
23014WAT     H269285   9.329   2.508   1.142
23015WAT      O69286   5.009   4.006   4.472
23015WAT     H169287   4.918   4.046   4.480
23015WAT     H269288   5.042   3.979   4.562
23016WAT      O69289   3.792   6.474   1.125
23016WAT     H169290   3.761   6.567   1.104
23016WAT     H269291   3.736   6.437   1.200
23017WAT      O69292   7.249   1.789   0.346
23017WAT     H169293   7.317   1.846   0.299
23017WAT     H269294   7.263   1.795   0.444
23018WAT      O69295   7.553   5.191   0.706
23018WAT     H169296   7.455   5.179   0.688
23018WAT     H269297   7.575   5.289   0.708
23019WAT      O69298   8.779   8.477   9.029
23019WAT     H169299   8.819   8.524   8.949
23019WAT     H269300   8.739   8.390   9.000
23020WAT      O69301   0.471   8.520   0.776
23020WAT     H169302   0.545   8.467   0.819
23020WAT     H269303   0.458   8.605   0.827
23021WAT      O69304   2.103   3.016   2.276
23021WAT     H169305   2.190   2.980   2.312
23021WAT     H269306   2.105   3.116   2.280
23022WAT      O69307   1.593   8.825   0.087
23022WAT     H169308   1.542   8.897   0.041
23022WAT     H269309   1.530   8.751   0.113
23023WAT      O69310   3.081   4.468   8.047
23023WAT     H169311   3.170   4.508   8.025
23023WAT     H269312   3.009   4.521   8.001
23024WAT      O69313   1.223   8.889   4.675
23024WAT     H169314   1.288   8.936   4.615
23024WAT     H269315   1.157   8.839   4.619
23025WAT      O69316   2.201   0.180   3.933
23025WAT     H169317   2.118   0.213   3.889
23025WAT     H269318   2.221   0.087   3.902
23026WAT      O69319   5.855   3.495   0.510
23026WAT     H169320   5.856   3.396   0.517
23026WAT     H269321   5.941   3.532   0.543
23027WAT      O69322   8.763   6.030   4.763
23027WAT     H169323   8.828   6.101   4.790
23027WAT     H269324   8.800   5.940   4.788
23028WAT      O69325   7.683   5.971   0.039
23028WAT     H169326   7.755   5.911   0.073
23028WAT     H269327   7.690   6.060   0.084
23029WAT      O69328   2.102   5.056   8.788
23029WAT     H169329   2.192   5.026   8.818
23029WAT     H269330   2.110   5.143   8.740
23030WAT      O69331   4.917   3.816   1.295
23030WAT     H169332   5.012   3.825   1.326
23030WAT     H269333   4.886   3.903   1.256
23031WAT      O69334   2.982   9.034   8.363
23031WAT     H169335   3.033   8.958   8.404
23031WAT     H269336   2.887   9.033   8.395
23032WAT      O69337   4.882   2.609   1.332
23032WAT     H169338   4.973   2.610   1.290
23032WAT     H269339   4.847   2.703   1.337
23033WAT      O69340   6.471   6.753   5.581
23033WAT     H169341   6.449   6.656   5.591
23033WAT     H269342   6.473   6.776   5.484
23034WAT      O69343   4.535   2.359   4.589
23034WAT     H169344   4.541   2.449   4.631
23034WAT     H269345   4.589   2.357   4.505
23035WAT      O69346   7.011   7.939   5.744
23035WAT     H169347   6.972   7.933   5.653
23035WAT     H269348   7.081   8.011   5.746
23036WAT      O69349   0.337   1.029   7.184
23036WAT     H169350   0.315   1.124   7.166
23036WAT     H269351   0.293   0.999   7.268
23037WAT      O69352   3.808   3.388   8.764
23037WAT     H169353   3.811   3.469   8.706
23037WAT     H269354   3.890   3.332   8.748
23038WAT      O69355   0.693   6.818   9.702
23038WAT     H169356   0.646   6.772   9.626
23038WAT     H269357   0.640   6.897   9.731
23039WAT      O69358   2.397   8.994   2.462
23039WAT     H169359   2.403   8.963   2.557
23039WAT     H269360   2.436   8.923   2.402
23040WAT      O69361   8.714   2.819   2.429
23040WAT     H169362   8.634   2.765   2.402
23040WAT     H269363   8.699   2.857   2.520
23041WAT      O69364   8.657   8.868   4.943
23041WAT     H169365   8.702   8.790   4.900
23041WAT     H269366   8.703   8.890   5.029
23042WAT      O69367   7.851   7.966   7.524
23042WAT     H169368   7.773   8.020   7.493
23042WAT     H269369   7.825   7.910   7.602
23043WAT      O69370   4.074   4.464   9.355
23043WAT     H169371   4.154   4.404   9.360
23043WAT     H269372   3.995   4.412   9.322
23044WAT      O69373   2.477   2.803   0.592
23044WAT     H169374   2.461   2.902   0.584
23044WAT     H269375   2.448   2.772   0.682
23045WAT      O69376   6.554   9.456   8.679
23045WAT     H169377   6.508   9.388   8.621
23045WAT     H269378   6.649   9.465   8.649
23046WAT      O69379   9.878   1.995   4.159
23046WAT     H169380   9.874   1.986   4.259
23046WAT     H269381   9.955   2.053   4.134
23047WAT      O69382   3.934   9.260   2.543
23047WAT     H169383   3.998   9.207   2.488
23047WAT     H269384   3.871   9.309   2.483
23048WAT      O69385   5.866   4.963   8.602
23048WAT     H169386   5.934   4.985   8.532
23048WAT     H269387   5.789   5.026   8.595
23049WAT      O69388   2.888   0.370   1.019
23049WAT     H169389   2.985   0.350   1.036
23049WAT     H269390   2.878   0.416   0.931
23050WAT      O69391   3.228   5.953   9.271
23050WAT     H169392   3.323   5.935   9.243
23050WAT     H269393   3.226   6.032   9.333
23051WAT      O69394   7.881   6.415   7.549
23051WAT     H169395   7.917   6.327   7.580
23051WAT     H269396   7.930   6.489   7.595
23052WAT      O69397   2.255   1.685   3.406
23052WAT     H169398   2.230   1.649   3.495
23052WAT     H269399   2.231   1.619   3.335
23053WAT      O69400   4.655   8.503   6.727
23053WAT     H169401   4.574   8.456   6.694
23053WAT     H269402   4.713   8.530   6.650
23054WAT      O69403   7.772   0.204   2.221
23054WAT     H169404   7.704   0.215   2.149
23054WAT     H269405   7.859   0.243   2.191
23055WAT      O69406   2.782   7.001   8.053
23055WAT     H169407   2.750   7.049   8.135
23055WAT     H269408   2.847   7.058   8.004
23056WAT      O69409   2.651   5.671   2.460
23056WAT     H169410   2.625   5.701   2.552
23056WAT     H269411   2.683   5.750   2.407
23057WAT      O69412  -0.000   7.256   1.666
23057WAT     H169413   0.021   7.229   1.572
23057WAT     H269414  -0.001   7.356   1.673
23058WAT      O69415   0.516   3.962   8.034
23058WAT     H169416   0.580   3.887   8.054
23058WAT     H269417   0.510   4.023   8.113
23059WAT      O69418   0.953   0.910   5.653
23059WAT     H169419   1.050   0.896   5.631
23059WAT     H269420   0.924   0.842   5.720
23060WAT      O69421   8.111   7.406   0.670
23060WAT     H169422   8.044   7.391   0.598
23060WAT     H269423   8.169   7.325   0.679
23061WAT      O69424   6.995   6.397   1.101
23061WAT     H169425   6.938   6.363   1.177
23061WAT     H269426   6.955   6.366   1.014
23062WAT      O69427   4.443   5.709   5.083
23062WAT     H169428   4.518   5.746   5.139
23062WAT     H269429   4.467   5.618   5.051
23063WAT      O69430   7.291   2.139   4.462
23063WAT     H169431   7.358   2.103   4.527
23063WAT     H269432   7.335   2.156   4.374
23064WAT      O69433   7.859   7.710   9.232
23064WAT     H169434   7.813   7.643   9.173
23064WAT     H269435   7.825   7.801   9.212
23065WAT      O69436   4.331   7.570   3.261
23065WAT     H169437   4.294   7.510   3.189
23065WAT     H269438   4.362   7.514   3.338
23066WAT      O69439   5.251   4.987   8.769
23066WAT     H169440   5.266   4.924   8.692
23066WAT     H269441   5.219   4.936   8.848
23067WAT      O69442   9.210   0.610   8.601
23067WAT     H169443   9.166   0.681   8.657
23067WAT     H269444   9.140   0.546   8.569
23068WAT      O69445   2.204   2.773   9.412
23068WAT     H169446   2.159   2.740   9.495
23068WAT     H269447   2.260   2.701   9.373
23069WAT      O69448   5.917   4.957   3.812
23069WAT     H169449   5.894   4.920   3.721
23069WAT     H269450   5.945   5.053   3.803
23070WAT      O69451   6.305   8.313   8.990
23070WAT     H169452   6.268   8.278   9.077
23070WAT     H269453   6.271   8.405   8.974
23071WAT      O69454   8.918   3.255   1.834
23071WAT     H169455   8.977   3.238   1.913
23071WAT     H269456   8.949   3.200   1.757
23072WAT      O69457   2.550   6.612   3.375
23072WAT     H169458   2.594   6.680   3.316
23072WAT     H269459   2.591   6.523   3.359
23073WAT      O69460   4.422   8.227   9.593
23073WAT     H169461   4.365   8.306   9.572
23073WAT     H269462   4.367   8.144   9.591
23074WAT      O69463   1.553   9.334   9.224
23074WAT     H169464   1.542   9.280   9.141
23074WAT     H269465   1.634   9.303   9.273
23075WAT      O69466   7.121   2.361   6.639
23075WAT     H169467   7.076   2.333   6.554
23075WAT     H269468   7.186   2.434   6.619
23076WAT      O69469   7.918   9.059   8.709
23076WAT     H169470   7.873   9.083   8.623
23076WAT     H269471   7.984   8.985   8.693
23077WAT      O69472   5.121   8.543   6.813
23077WAT     H169473   5.160   8.485   6.742
23077WAT     H269474   5.038   8.500   6.849
23078WAT      O69475   3.712   7.673   3.327
23078WAT     H169476   3.692   7.719   3.414
23078WAT     H269477   3.811   7.668   3.314
23079WAT      O69478   1.758   0.301   7.596
23079WAT     H169479   1.686   0.315   7.528
23079WAT     H269480   1.818   0.226   7.567
23080WAT      O69481   6.607   4.161   8.641
23080WAT     H169482   6.582   4.257   8.636
23080WAT     H269483   6.692   4.146   8.591
23081WAT      O69484   3.700   0.298   8.789
23081WAT     H169485   3.750   0.235   8.849
23081WAT     H269486   3.764   0.365   8.752
23082WAT      O69487   4.636   9.018   0.184
23082WAT     H169488   4.573   9.073   0.240
23082WAT     H269489   4.730   9.038   0.211
23083WAT      O69490   4.691   7.595   0.399
23083WAT     H169491   4.638   7.661   0.346
23083WAT     H269492   4.664   7.502   0.373
23084WAT      O69493   4.700   4.039   6.126
23084WAT     H169494   4.601   4.025   6.140
23084WAT     H269495   4.738   3.958   6.082
23085WAT      O69496   2.928   2.341   0.584
23085WAT     H169497   2.863   2.266   0.600
23085WAT     H269498   2.879   2.428   0.584
23086WAT      O69499   3.845   4.852   2.048
23086WAT     H169500   3.794   4.778   2.004
23086WAT     H269501   3.852   4.929   1.985
23087WAT      O69502   6.003   4.287   4.696
23087WAT     H169503   5.951   4.310   4.779
23087WAT     H269504   6.065   4.362   4.674
23088WAT      O69505   7.565   5.560   2.104
23088WAT     H169506   7.625   5.493   2.149
23088WAT     H269507   7.620   5.630   2.059
23089WAT      O69508   3.246   5.568   7.380
23089WAT     H169509   3.185   5.646   7.395
23089WAT     H269510   3.272   5.529   7.469
23090WAT      O69511   5.792   6.734   2.217
23090WAT     H169512   5.777   6.831   2.240
23090WAT     H269513   5.796   6.724   2.117
23091WAT      O69514   4.629   1.172   5.826
23091WAT     H169515   4.608   1.074   5.824
23091WAT     H269516   4.707   1.191   5.767
23092WAT      O69517   0.578   1.066   3.903
23092WAT     H169518   0.620   1.150   3.870
23092WAT     H269519   0.637   1.024   3.972
23093WAT      O69520   5.260   0.320   3.078
23093WAT     H169521   5.342   0.267   3.099
23093WAT     H269522   5.281   0.418   3.080
23094WAT      O69523   2.310   7.798   4.736
23094WAT     H169524   2.231   7.843   4.779
23094WAT     H269525   2.311   7.820   4.638
23095WAT      O69526   7.973   9.287   1.521
23095WAT     H169527   8.008   9.209   1.469
23095WAT     H269528   7.990   9.371   1.470
23096WAT      O69529   4.305   0.427   2.701
23096WAT     H169530   4.248   0.416   2.783
23096WAT     H269531   4.264   0.374   2.626
23097WAT      O69532   1.765   3.882   6.532
23097WAT     H169533   1.693   3.909   6.596
23097WAT     H269534   1.793   3.788   6.552
23098WAT      O69535   3.767   8.994   2.328
23098WAT     H169536   3.712   8.980   2.246
23098WAT     H269537   3.709   9.028   2.402
23099WAT      O69538   5.004   0.232   9.106
23099WAT     H169539   4.923   0.250   9.162
23099WAT     H269540   4.996   0.141   9.064
23100WAT      O69541   1.050   5.813   9.314
23100WAT     H169542   1.059   5.714   9.302
23100WAT     H269543   1.095   5.841   9.399
23101WAT      O69544   0.046   8.522   3.945
23101WAT     H169545   0.145   8.517   3.932
23101WAT     H269546   0.005   8.433   3.925
23102WAT      O69547   8.042   9.578   0.802
23102WAT     H169548   8.069   9.597   0.707
23102WAT     H269549   8.011   9.663   0.845
23103WAT      O69550   6.755   6.561   5.612
23103WAT     H169551   6.811   6.609   5.545
23103WAT     H269552   6.782   6.588   5.705
23104WAT      O69553   4.920   3.330   6.068
23104WAT     H169554   4.916   3.297   5.974
23104WAT     H269555   5.015   3.338   6.097
23105WAT      O69556   0.975   1.299   9.685
23105WAT     H169557   1.002   1.376   9.742
23105WAT     H269558   1.019   1.307   9.596
23106WAT      O69559   9.624   2.093   5.359
23106WAT     H169560   9.723   2.084   5.373
23106WAT     H269561   9.607   2.126   5.265
23107WAT      O69562   9.457   7.407   5.927
23107WAT     H169563   9.405   7.449   6.001
23107WAT     H269564   9.553   7.400   5.954
23108WAT      O69565   8.506   9.456   8.298
23108WAT     H169566   8.498   9.391   8.374
23108WAT     H269567   8.556   9.537   8.329
23109WAT      O69568   8.457   7.771   8.866
23109WAT     H169569   8.512   7.749   8.947
23109WAT     H269570   8.507   7.835   8.808
23110WAT      O69571   0.151   8.917   4.017
23110WAT     H169572   0.075   8.855   4.000
23110WAT     H269573   0.144   8.997   3.958
23111WAT      O69574   5.050   1.945   3.014
23111WAT     H169575   5.070   1.969   3.109
23111WAT     H269576   5.041   1.846   3.005
23112WAT      O69577   9.475   2.403   2.286
23112WAT     H169578   9.478   2.501   2.268
23112WAT     H269579   9.496   2.386   2.383
23113WAT      O69580   3.868   0.708   3.031
23113WAT     H169581   3.860   0.676   2.936
23113WAT     H269582   3.963   0.704   3.060
23114WAT      O69583   0.762   6.992   8.005
23114WAT     H169584   0.775   7.043   8.090
23114WAT     H269585   0.782   6.895   8.021
23115WAT      O69586   0.928   8.572   8.053
23115WAT     H169587   0.879   8.574   7.966
23115WAT     H269588   1.026   8.578   8.035
23116WAT      O69589   5.813   9.143   1.804
23116WAT     H169590   5.837   9.053   1.768
23116WAT     H269591   5.748   9.132   1.880
23117WAT      O69592   2.007   6.742   5.447
23117WAT     H169593   1.946   6.686   5.391
23117WAT     H269594   2.097   6.748   5.403
23118WAT      O69595   2.688   5.167   2.607
23118WAT     H169596   2.722   5.235   2.542
23118WAT     H269597   2.604   5.200   2.650
23119WAT      O69598   7.038   3.390   3.538
23119WAT     H169599   6.973   3.373   3.612
23119WAT     H269600   6.991   3.385   3.450
23120WAT      O69601   1.036   4.921   2.605
23120WAT     H169602   1.094   4.841   2.623
23120WAT     H269603   0.946   4.907   2.645
23121WAT      O69604   4.208   3.866   0.520
23121WAT     H169605   4.259   3.952   0.510
23121WAT     H269606   4.260   3.804   0.578
23122WAT      O69607   4.139   9.221   8.468
23122WAT     H169608   4.227   9.247   8.510
23122WAT     H269609   4.150   9.135   8.418
23123WAT      O69610   5.317   4.883   2.101
23123WAT     H169611   5.248   4.887   2.029
23123WAT     H269612   5.377   4.962   2.095
23124WAT      O69613   0.505   4.523   7.611
23124WAT     H169614   0.464   4.613   7.623
23124WAT     H269615   0.595   4.521   7.656
23125WAT      O69616   7.287   7.639   4.880
23125WAT     H169617   7.220   7.710   4.858
23125WAT     H269618   7.324   7.600   4.796
23126WAT      O69619   3.382   9.787   8.289
23126WAT     H169620   3.315   9.803   8.216
23126WAT     H269621   3.424   9.698   8.277
23127WAT      O69622   5.785   3.547   6.743
23127WAT     H169623   5.731   3.557   6.827
23127WAT     H269624   5.735   3.489   6.678
23128WAT      O69625   1.242   4.530   1.432
23128WAT     H169626   1.238   4.473   1.351
23128WAT     H269627   1.333   4.524   1.473
23129WAT      O69628   9.397   7.439   9.691
23129WAT     H169629   9.432   7.525   9.727
23129WAT     H269630   9.335   7.458   9.614
23130WAT      O69631   5.903   1.379   1.475
23130WAT     H169632   5.848   1.461   1.456
23130WAT     H269633   5.847   1.297   1.459
23131WAT      O69634   9.111   4.717   1.274
23131WAT     H169635   9.022   4.756   1.248
23131WAT     H269636   9.134   4.642   1.212
23132WAT      O69637   3.277   2.881   7.478
23132WAT     H169638   3.328   2.864   7.393
23132WAT     H269639   3.310   2.820   7.550
23133WAT      O69640   0.387   9.692   7.555
23133WAT     H169641   0.440   9.695   7.470
23133WAT     H269642   0.407   9.608   7.605
23134WAT      O69643   4.878   8.534   4.428
23134WAT     H169644   4.946   8.562   4.360
23134WAT     H269645   4.810   8.476   4.384
23135WAT      O69646   5.882   4.912   7.742
23135WAT     H169647   5.864   5.006   7.711
23135WAT     H269648   5.841   4.848   7.677
23136WAT      O69649   6.425   2.739   3.248
23136WAT     H169650   6.345   2.723   3.190
23136WAT     H269651   6.496   2.784   3.194
23137WAT      O69652   4.675   4.539   1.165
23137WAT     H169653   4.771   4.525   1.187
23137WAT     H269654   4.619   4.480   1.223
23138WAT      O69655   2.404   8.228   5.463
23138WAT     H169656   2.475   8.293   5.438
23138WAT     H269657   2.437   8.135   5.445
23139WAT      O69658   8.609   2.750   6.903
23139WAT     H169659   8.573   2.817   6.838
23139WAT     H269660   8.708   2.754   6.903
23140WAT      O69661   7.926   3.186   4.436
23140WAT     H169662   7.874   3.269   4.415
23140WAT     H269663   8.016   3.211   4.471
23141WAT      O69664   0.897   2.903   7.634
23141WAT     H169665   0.951   2.942   7.709
23141WAT     H269666   0.952   2.834   7.587
23142WAT      O69667   5.506   1.835   5.298
23142WAT     H169668   5.572   1.772   5.258
23142WAT     H269669   5.535   1.858   5.391
23143WAT      O69670   5.782   5.663   9.594
23143WAT     H169671   5.782   5.628   9.688
23143WAT     H269672   5.741   5.754   9.593
23144WAT      O69673   1.821   4.441   3.340
23144WAT     H169674   1.729   4.453   3.377
23144WAT     H269675   1.816   4.435   3.240
23145WAT      O69676   0.785   9.157   4.997
23145WAT     H169677   0.803   9.077   5.054
23145WAT     H269678   0.873   9.196   4.967
23146WAT      O69679   1.586   0.713   6.228
23146WAT     H169680   1.584   0.812   6.223
23146WAT     H269681   1.576   0.673   6.137
23147WAT      O69682   4.188   3.790   0.282
23147WAT     H169683   4.278   3.810   0.243
23147WAT     H269684   4.193   3.796   0.381
23148WAT      O69685   7.914   5.273   4.130
23148WAT     H169686   8.010   5.282   4.103
23148WAT     H269687   7.879   5.362   4.158
23149WAT      O69688   8.663   0.660   3.888
23149WAT     H169689   8.616   0.740   3.850
23149WAT     H269690   8.684   0.596   3.814
23150WAT      O69691   3.956   2.314   4.742
23150WAT     H169692   3.959   2.412   4.722
23150WAT     H269693   3.953   2.300   4.841
23151WAT      O69694   9.698   6.126   9.342
23151WAT     H169695   9.634   6.090   9.274
23151WAT     H269696   9.790   6.128   9.304
23152WAT      O69697   3.771   1.160   4.712
23152WAT     H169698   3.760   1.162   4.613
23152WAT     H269699   3.867   1.143   4.735
23153WAT      O69700   1.703   1.630   8.820
23153WAT     H169701   1.774   1.663   8.757
23153WAT     H269702   1.613   1.649   8.781
23154WAT      O69703   5.455   0.416   4.317
23154WAT     H169704   5.374   0.473   4.299
23154WAT     H269705   5.515   0.419   4.237
23155WAT      O69706   3.395   9.251   7.097
23155WAT     H169707   3.450   9.180   7.053
23155WAT     H269708   3.309   9.263   7.048
23156WAT      O69709   4.715   1.548   7.005
23156WAT     H169710   4.718   1.456   7.046
23156WAT     H269711   4.667   1.610   7.068
23157WAT      O69712   4.062   0.448   9.686
23157WAT     H169713   4.158   0.459   9.660
23157WAT     H269714   4.045   0.353   9.711
23158WAT      O69715   7.397   6.981   1.316
23158WAT     H169716   7.357   6.972   1.407
23158WAT     H269717   7.458   6.903   1.298
23159WAT      O69718   3.577   7.914   1.844
23159WAT     H169719   3.496   7.909   1.902
23159WAT     H269720   3.607   7.822   1.821
23160WAT      O69721   2.175   1.003   1.606
23160WAT     H169722   2.206   1.070   1.673
23160WAT     H269723   2.247   0.987   1.539
23161WAT      O69724   8.847   5.207   8.686
23161WAT     H169725   8.896   5.240   8.605
23161WAT     H269726   8.748   5.219   8.672
23162WAT      O69727   6.021   6.060   7.655
23162WAT     H169728   6.054   6.126   7.722
23162WAT     H269729   6.048   6.091   7.563
23163WAT      O69730   7.013   8.646   5.892
23163WAT     H169731   6.952   8.685   5.961
23163WAT     H269732   6.999   8.693   5.805
23164WAT      O69733   8.768   1.507   2.764
23164WAT     H169734   8.820   1.468   2.840
23164WAT     H269735   8.831   1.538   2.693
23165WAT      O69736   0.690   0.775   8.214
23165WAT     H169737   0.761   0.836   8.249
23165WAT     H269738   0.602   0.823   8.214
23166WAT      O69739   7.957   8.844   0.214
23166WAT     H169740   7.872   8.801   0.182
23166WAT     H269741   8.008   8.880   0.135
23167WAT      O69742   5.562   8.422   8.094
23167WAT     H169743   5.546   8.521   8.087
23167WAT     H269744   5.476   8.373   8.079
23168WAT      O69745   9.208   9.179   4.183
23168WAT     H169746   9.300   9.207   4.209
23168WAT     H269747   9.202   9.079   4.183
23169WAT      O69748   5.839   6.359   4.953
23169WAT     H169749   5.810   6.270   4.917
23169WAT     H269750   5.763   6.424   4.947
23170WAT      O69751   3.800   3.417   4.806
23170WAT     H169752   3.700   3.421   4.804
23170WAT     H269753   3.833   3.346   4.744
23171WAT      O69754   6.113   3.399   7.730
23171WAT     H169755   6.075   3.463   7.663
23171WAT     H269756   6.069   3.310   7.719
23172WAT      O69757   0.955   2.478   5.531
23172WAT     H169758   1.018   2.450   5.603
23172WAT     H269759   0.913   2.566   5.556
23173WAT      O69760   8.088   2.347   8.031
23173WAT     H169761   8.170   2.339   8.088
23173WAT     H269762   8.024   2.410   8.074
23174WAT      O69763   8.562   3.371   5.141
23174WAT     H169764   8.584   3.465   5.165
23174WAT     H269765   8.546   3.318   5.224
23175WAT      O69766   3.449   7.427   7.946
23175WAT     H169767   3.380   7.489   7.984
23175WAT     H269768   3.510   7.396   8.019
23176WAT      O69769   8.043   3.555   7.146
23176WAT     H169770   8.084   3.645   7.128
23176WAT     H269771   8.086   3.487   7.087
23177WAT      O69772   0.354   2.646   3.174
23177WAT     H169773   0.318   2.733   3.142
23177WAT     H269774   0.300   2.614   3.252
23178WAT      O69775   4.954   2.089   6.790
23178WAT     H169776   4.865   2.057   6.822
23178WAT     H269777   4.981   2.170   6.841
23179WAT      O69778   4.776   4.281   5.517
23179WAT     H169779   4.690   4.329   5.501
23179WAT     H269780   4.793   4.216   5.444
23180WAT      O69781   3.573   3.872   6.821
23180WAT     H169782   3.582   3.941   6.892
23180WAT     H269783   3.659   3.865   6.770
23181WAT      O69784   7.587   9.606   5.711
23181WAT     H169785   7.671   9.560   5.682
23181WAT     H269786   7.603   9.705   5.714
23182WAT      O69787   9.018   0.385   3.270
23182WAT     H169788   9.046   0.470   3.316
23182WAT     H269789   8.962   0.330   3.331
23183WAT      O69790   2.656   3.642   5.370
23183WAT     H169791   2.704   3.570   5.420
23183WAT     H269792   2.563   3.613   5.351
23184WAT      O69793   0.937   2.477   7.610
23184WAT     H169794   0.999   2.398   7.613
23184WAT     H269795   0.989   2.560   7.628
23185WAT      O69796   2.426   3.127   7.572
23185WAT     H169797   2.486   3.164   7.501
23185WAT     H269798   2.460   3.039   7.603
23186WAT      O69799   2.502   6.637   0.108
23186WAT     H169800   2.529   6.714   0.166
23186WAT     H269801   2.415   6.599   0.142
23187WAT      O69802   7.257   4.639   8.357
23187WAT     H169803   7.314   4.718   8.334
23187WAT     H269804   7.186   4.667   8.422
23188WAT      O69805   8.281   3.795   1.300
23188WAT     H169806   8.294   3.733   1.223
23188WAT     H269807   8.367   3.843   1.319
23189WAT      O69808   1.406   0.337   1.962
23189WAT     H169809   1.311   0.314   1.985
23189WAT     H269810   1.456   0.356   2.047
23190WAT      O69811   8.251   0.344   3.461
23190WAT     H169812   8.307   0.342   3.544
23190WAT     H269813   8.161   0.305   3.481
23191WAT      O69814   4.108   5.634   8.681
23191WAT     H169815   4.202   5.602   8.669
23191WAT     H269816   4.067   5.588   8.760
23192WAT      O69817   3.578   5.747   5.062
23192WAT     H169818   3.561   5.835   5.018
23192WAT     H269819   3.499   5.720   5.116
23193WAT      O69820   1.749   1.964   8.660
23193WAT     H169821   1.804   1.886   8.690
23193WAT     H269822   1.809   2.043   8.644
23194WAT      O69823   7.545   7.643   1.541
23194WAT     H169824   7.476   7.683   1.482
23194WAT     H269825   7.619   7.606   1.486
23195WAT      O69826   1.378   1.299   0.005
23195WAT     H169827   1.456   1.333   0.057
23195WAT     H269828   1.306   1.368   0.002
23196WAT      O69829   3.358   6.837   1.161
23196WAT     H169830   3.367   6.773   1.085
23196WAT     H269831   3.288   6.804   1.224
23197WAT      O69832   4.743   7.809   9.339
23197WAT     H169833   4.817   7.836   9.277
23197WAT     H269834   4.732   7.879   9.410
23198WAT      O69835   5.664   4.908   3.903
23198WAT     H169836   5.740   4.954   3.858
23198WAT     H269837   5.616   4.850   3.837
23199WAT      O69838   2.775   1.104   8.527
23199WAT     H169839   2.838   1.137   8.597
23199WAT     H269840   2.770   1.004   8.530
23200WAT      O69841   1.021   7.543   2.004
23200WAT     H169842   1.119   7.523   1.993
23200WAT     H269843   0.987   7.499   2.087
23201WAT      O69844   0.634   6.455   3.122
23201WAT     H169845   0.590   6.378   3.075
23201WAT     H269846   0.723   6.472   3.082
23202WAT      O69847   5.746   2.946   6.776
23202WAT     H169848   5.841   2.921   6.797
23202WAT     H269849   5.708   2.998   6.852
23203WAT      O69850   9.184   5.719   9.887
23203WAT     H169851   9.150   5.771   9.965
23203WAT     H269852   9.283   5.728   9.881
23204WAT      O69853   8.753   7.492   2.261
23204WAT     H169854   8.754   7.447   2.171
23204WAT     H269855   8.711   7.431   2.328
23205WAT      O69856   6.784   8.353   9.889
23205WAT     H169857   6.706   8.292   9.884
23205WAT     H269858   6.758   8.444   9.858
23206WAT      O69859   1.939   2.919   0.824
23206WAT     H169860   1.972   2.825   0.815
23206WAT     H269861   1.942   2.965   0.736
23207WAT      O69862   3.747   2.518   0.119
23207WAT     H169863   3.681   2.550   0.187
23207WAT     H269864   3.825   2.580   0.117
23208WAT      O69865   5.079   3.380   5.648
23208WAT     H169866   5.122   3.364   5.559
23208WAT     H269867   5.140   3.435   5.705
23209WAT      O69868   2.418   1.183   6.385
23209WAT     H169869   2.363   1.151   6.308
23209WAT     H269870   2.507   1.214   6.353
23210WAT      O69871   2.640   4.627   4.967
23210WAT     H169872   2.695   4.705   4.995
23210WAT     H269873   2.556   4.624   5.021
23211WAT      O69874   5.809   3.291   5.113
23211WAT     H169875   5.875   3.352   5.156
23211WAT     H269876   5.717   3.327   5.127
23212WAT      O69877   1.310   5.650   9.231
23212WAT     H169878   1.348   5.740   9.209
23212WAT     H269879   1.326   5.630   9.327
23213WAT      O69880   7.581   4.489   1.596
23213WAT     H169881   7.517   4.426   1.554
23213WAT     H269882   7.663   4.497   1.538
23214WAT      O69883   7.445   5.467   9.561
23214WAT     H169884   7.458   5.436   9.466
23214WAT     H269885   7.369   5.416   9.601
23215WAT      O69886   5.112   7.673   7.979
23215WAT     H169887   5.050   7.675   7.901
23215WAT     H269888   5.205   7.696   7.949
23216WAT      O69889   1.642   8.175   9.325
23216WAT     H169890   1.734   8.177   9.285
23216WAT     H269891   1.649   8.186   9.424
23217WAT      O69892   9.661   5.895   6.039
23217WAT     H169893   9.665   5.859   5.946
23217WAT     H269894   9.610   5.832   6.097
23218WAT      O69895   5.821   7.131   2.567
23218WAT     H169896   5.885   7.157   2.494
23218WAT     H269897   5.818   7.031   2.574
23219WAT      O69898   3.513   8.192   9.518
23219WAT     H169899   3.501   8.263   9.449
23219WAT     H269900   3.611   8.175   9.531
23220WAT      O69901   4.529   9.593   5.981
23220WAT     H169902   4.527   9.633   6.073
23220WAT     H269903   4.506   9.496   5.987
23221WAT      O69904   7.714   6.551   3.503
23221WAT     H169905   7.804   6.593   3.490
23221WAT     H269906   7.656   6.572   3.425
23222WAT      O69907   4.581   1.185   5.183
23222WAT     H169908   4.562   1.156   5.089
23222WAT     H269909   4.674   1.221   5.189
23223WAT      O69910   4.446   2.745   2.425
23223WAT     H169911   4.523   2.709   2.373
23223WAT     H269912   4.453   2.845   2.429
23224WAT      O69913   1.651   2.194   0.638
23224WAT     H169914   1.625   2.289   0.658
23224WAT     H269915   1.569   2.140   0.620
23225WAT      O69916   4.907   4.351   7.070
23225WAT     H169917   4.810   4.366   7.053
23225WAT     H269918   4.932   4.395   7.156
23226WAT      O69919   5.860   9.749   9.041
23226WAT     H169920   5.774   9.745   9.091
23226WAT     H269921   5.842   9.767   8.944
23227WAT      O69922   3.323   1.983   1.567
23227WAT     H169923   3.324   1.896   1.617
23227WAT     H269924   3.276   1.970   1.480
23228WAT      O69925   5.238   8.759   6.320
23228WAT     H169926   5.153   8.711   6.343
23228WAT     H269927   5.278   8.796   6.404
23229WAT      O69928   0.115   3.903   9.593
23229WAT     H169929   0.052   3.891   9.669
23229WAT     H269930   0.123   3.818   9.542
23230WAT      O69931   7.472   3.891   4.302
23230WAT     H169932   7.429   3.980   4.286
23230WAT     H269933   7.416   3.819   4.261
23231WAT      O69934   9.809   5.236   5.174
23231WAT     H169935   9.903   5.207   5.187
23231WAT     H269936   9.799   5.331   5.205
23232WAT      O69937   2.224   2.660   3.463
23232WAT     H169938   2.150   2.648   3.530
23232WAT     H269939   2.184   2.664   3.371
23233WAT      O69940   8.483   8.989   9.638
23233WAT     H169941   8.388   8.974   9.666
23233WAT     H269942   8.511   9.081   9.663
23234WAT      O69943   8.220   2.398   2.398
23234WAT     H169944   8.184   2.404   2.491
23234WAT     H269945   8.174   2.464   2.340
23235WAT      O69946   8.318   2.577   6.177
23235WAT     H169947   8.385   2.636   6.132
23235WAT     H269948   8.361   2.533   6.256
23236WAT      O69949   7.165   5.763   6.553
23236WAT     H169950   7.095   5.792   6.488
23236WAT     H269951   7.227   5.698   6.508
23237WAT      O69952   9.452   9.654   2.060
23237WAT     H169953   9.424   9.750   2.049
23237WAT     H269954   9.527   9.649   2.126
23238WAT      O69955   4.560   5.916   8.115
23238WAT     H169956   4.650   5.884   8.145
23238WAT     H269957   4.507   5.947   8.195
23239WAT      O69958   4.410   7.556   1.420
23239WAT     H169959   4.355   7.475   1.402
23239WAT     H269960   4.445   7.593   1.334
23240WAT      O69961   5.461   6.854   6.382
23240WAT     H169962   5.417   6.880   6.468
23240WAT     H269963   5.496   6.761   6.390
23241WAT      O69964   6.921   1.365   1.758
23241WAT     H169965   6.920   1.389   1.855
23241WAT     H269966   6.852   1.295   1.740
23242WAT      O69967   4.705   2.013   2.755
23242WAT     H169968   4.722   2.042   2.661
23242WAT     H269969   4.752   2.075   2.818
23243WAT      O69970   3.498   1.788   1.317
23243WAT     H169971   3.400   1.800   1.302
23243WAT     H269972   3.534   1.867   1.366
23244WAT      O69973   5.743   2.906   3.703
23244WAT     H169974   5.720   2.847   3.780
23244WAT     H269975   5.660   2.926   3.651
23245WAT      O69976   2.539   6.346   2.836
23245WAT     H169977   2.578   6.412   2.900
23245WAT     H269978   2.613   6.299   2.787
23246WAT      O69979   7.020   0.830   9.658
23246WAT     H169980   7.079   0.803   9.582
23246WAT     H269981   6.926   0.802   9.637
23247WAT      O69982   7.295   7.894   2.846
23247WAT     H169983   7.226   7.889   2.774
23247WAT     H269984   7.383   7.921   2.807
23248WAT      O69985   8.235   8.855   4.515
23248WAT     H169986   8.220   8.911   4.434
23248WAT     H269987   8.229   8.912   4.597
23249WAT      O69988   8.790   1.885   9.278
23249WAT     H169989   8.873   1.830   9.285
23249WAT     H269990   8.740   1.882   9.365
23250WAT      O69991   6.779   0.136   4.804
23250WAT     H169992   6.738   0.200   4.739
23250WAT     H269993   6.735   0.047   4.795
23251WAT      O69994   6.677   6.318   5.575
23251WAT     H169995   6.712   6.408   5.602
23251WAT     H269996   6.740   6.248   5.608
23252WAT      O69997   2.947   1.668   9.018
23252WAT     H169998   2.907   1.757   8.997
23252WAT     H269999   2.896   1.625   9.092
23253WAT      O70000   2.220   2.079   5.604
23253WAT     H170001   2.225   1.993   5.555
23253WAT     H270002   2.134   2.126   5.583
23254WAT      O70003   2.287   7.633   6.596
23254WAT     H170004   2.319   7.635   6.691
23254WAT     H270005   2.366   7.642   6.535
23255WAT      O70006   7.657   4.113   2.991
23255WAT     H170007   7.750   4.122   3.028
23255WAT     H270008   7.659   4.131   2.892
23256WAT      O70009   8.192   4.822   6.487
23256WAT     H170010   8.142   4.738   6.463
23256WAT     H270011   8.155   4.899   6.436
23257WAT      O70012   2.416   1.618   2.554
23257WAT     H170013   2.350   1.692   2.539
23257WAT     H270014   2.454   1.589   2.466
23258WAT      O70015   1.351   0.616   1.227
23258WAT     H170016   1.408   0.534   1.227
23258WAT     H270017   1.408   0.696   1.247
23259WAT      O70018   5.814   4.247   2.830
23259WAT     H170019   5.797   4.316   2.901
23259WAT     H270020   5.878   4.178   2.865
23260WAT      O70021   6.322   7.741   5.230
23260WAT     H170022   6.270   7.658   5.210
23260WAT     H270023   6.419   7.719   5.240
23261WAT      O70024   6.950   6.645   7.491
23261WAT     H170025   6.882   6.600   7.549
23261WAT     H270026   7.040   6.638   7.533
23262WAT      O70027   4.348   4.639   5.330
23262WAT     H170028   4.335   4.701   5.407
23262WAT     H270029   4.302   4.552   5.348
23263WAT      O70030   5.221   5.209   7.819
23263WAT     H170031   5.212   5.160   7.733
23263WAT     H270032   5.219   5.308   7.803
23264WAT      O70033   5.520   9.220   4.439
23264WAT     H170034   5.481   9.284   4.372
23264WAT     H270035   5.618   9.235   4.447
23265WAT      O70036   3.448   4.444   9.544
23265WAT     H170037   3.500   4.383   9.603
23265WAT     H270038   3.491   4.534   9.543
23266WAT      O70039   8.967   2.927   6.471
23266WAT     H170040   8.971   2.827   6.472
23266WAT     H270041   8.902   2.958   6.540
23267WAT      O70042   1.126   6.584   1.176
23267WAT     H170043   1.149   6.613   1.270
23267WAT     H270044   1.181   6.505   1.152
23268WAT      O70045   2.731   7.759   6.001
23268WAT     H170046   2.736   7.854   5.970
23268WAT     H270047   2.804   7.742   6.067
23269WAT      O70048   3.531   6.814   9.163
23269WAT     H170049   3.533   6.863   9.250
23269WAT     H270050   3.465   6.858   9.102
23270WAT      O70051   8.750   0.042   1.123
23270WAT     H170052   8.801  -0.042   1.143
23270WAT     H270053   8.687   0.061   1.198
23271WAT      O70054   4.314   7.285   6.012
23271WAT     H170055   4.401   7.273   5.966
23271WAT     H270056   4.293   7.382   6.021
23272WAT      O70057   0.998   1.037   7.412
23272WAT     H170058   0.943   0.986   7.479
23272WAT     H270059   0.937   1.078   7.344
23273WAT      O70060   1.758   5.567   2.338
23273WAT     H170061   1.726   5.526   2.423
23273WAT     H270062   1.797   5.495   2.279
23274WAT      O70063   8.211   2.639   0.319
23274WAT     H170064   8.118   2.674   0.311
23274WAT     H270065   8.208   2.540   0.336
23275WAT      O70066   1.877   5.698   2.833
23275WAT     H170067   1.936   5.654   2.900
23275WAT     H270068   1.912   5.679   2.741
23276WAT      O70069   6.032   5.506   2.030
23276WAT     H170070   6.111   5.555   2.069
23276WAT     H270071   6.009   5.546   1.941
23277WAT      O70072   0.133   7.926   0.361
23277WAT     H170073   0.035   7.936   0.375
23277WAT     H270074   0.168   7.853   0.420
23278WAT      O70075   4.121   1.393   6.335
23278WAT     H170076   4.160   1.309   6.372
23278WAT     H270077   4.110   1.460   6.408
23279WAT      O70078   0.594   2.470   2.996
23279WAT     H170079   0.497   2.494   2.984
23279WAT     H270080   0.639   2.542   3.049
23280WAT      O70081   2.057   5.152   7.853
23280WAT     H170082   1.972   5.150   7.905
23280WAT     H270083   2.119   5.219   7.893
23281WAT      O70084   7.109   4.658   7.286
23281WAT     H170085   7.201   4.629   7.258
23281WAT     H270086   7.053   4.676   7.206
23282WAT      O70087   6.698   2.118   2.260
23282WAT     H170088   6.624   2.136   2.196
23282WAT     H270089   6.665   2.061   2.335
23283WAT      O70090   0.059   4.648   7.232
23283WAT     H170091   0.143   4.594   7.221
23283WAT     H270092   0.055   4.718   7.161
23284WAT      O70093   7.331   3.639   3.419
23284WAT     H170094   7.298   3.569   3.482
23284WAT     H270095   7.360   3.720   3.471
23285WAT      O70096   9.545   9.813   5.708
23285WAT     H170097   9.456   9.769   5.716
23285WAT     H270098   9.595   9.772   5.631
23286WAT      O70099   9.093   8.718   1.451
23286WAT     H170100   9.192   8.710   1.438
23286WAT     H270101   9.068   8.814   1.458
23287WAT      O70102   9.563   7.679   6.006
23287WAT     H170103   9.507   7.699   5.926
23287WAT     H270104   9.633   7.612   5.982
23288WAT      O70105   7.886   3.012   8.459
23288WAT     H170106   7.893   3.110   8.478
23288WAT     H270107   7.843   2.966   8.537
23289WAT      O70108   3.365   6.315   4.336
23289WAT     H170109   3.383   6.377   4.259
23289WAT     H270110   3.420   6.344   4.414
23290WAT      O70111   2.429   8.613   3.525
23290WAT     H170112   2.369   8.678   3.477
23290WAT     H270113   2.485   8.662   3.591
23291WAT      O70114   1.056   4.156   0.899
23291WAT     H170115   0.970   4.108   0.916
23291WAT     H270116   1.045   4.253   0.921
23292WAT      O70117   4.053   2.460   1.617
23292WAT     H170118   4.064   2.559   1.632
23292WAT     H270119   4.010   2.419   1.698
23293WAT      O70120   0.459   8.781   1.916
23293WAT     H170121   0.428   8.731   1.998
23293WAT     H270122   0.528   8.849   1.943
23294WAT      O70123   0.803   8.525   2.745
23294WAT     H170124   0.858   8.608   2.734
23294WAT     H270125   0.855   8.446   2.713
23295WAT      O70126   9.456   3.948   4.518
23295WAT     H170127   9.514   4.018   4.560
23295WAT     H270128   9.385   3.993   4.463
23296WAT      O70129   0.956   9.658   1.771
23296WAT     H170130   0.916   9.569   1.747
23296WAT     H270131   1.049   9.664   1.733
23297WAT      O70132   9.053   2.230   8.673
23297WAT     H170133   9.035   2.269   8.583
23297WAT     H270134   9.042   2.130   8.669
23298WAT      O70135   5.554   4.639   6.957
23298WAT     H170136   5.600   4.659   7.044
23298WAT     H270137   5.476   4.701   6.946
23299WAT      O70138   7.814   7.616   2.371
23299WAT     H170139   7.780   7.710   2.372
23299WAT     H270140   7.789   7.573   2.284
23300WAT      O70141   4.005   4.422   3.041
23300WAT     H170142   4.005   4.522   3.036
23300WAT     H270143   4.078   4.391   3.103
23301WAT      O70144   0.712   1.035   2.263
23301WAT     H170145   0.763   0.955   2.232
23301WAT     H270146   0.655   1.070   2.189
23302WAT      O70147   2.635   7.721   2.609
23302WAT     H170148   2.608   7.734   2.704
23302WAT     H270149   2.654   7.625   2.592
23303WAT      O70150   8.362   0.964   2.545
23303WAT     H170151   8.426   0.989   2.472
23303WAT     H270152   8.268   0.979   2.514
23304WAT      O70153   4.695   5.846   2.654
23304WAT     H170154   4.742   5.916   2.601
23304WAT     H270155   4.596   5.851   2.635
23305WAT      O70156   6.426   6.023   0.300
23305WAT     H170157   6.514   6.066   0.280
23305WAT     H270158   6.371   6.020   0.216
23306WAT      O70159   8.972   5.938   4.915
23306WAT     H170160   8.988   5.840   4.903
23306WAT     H270161   9.053   5.989   4.885
23307WAT      O70162   8.946   3.304   4.226
23307WAT     H170163   8.900   3.357   4.155
23307WAT     H270164   9.045   3.323   4.222
23308WAT      O70165   1.083   6.657   9.838
23308WAT     H170166   1.074   6.654   9.739
23308WAT     H270167   1.074   6.752   9.870
23309WAT      O70168   8.007   5.416   9.608
23309WAT     H170169   7.965   5.480   9.544
23309WAT     H270170   8.053   5.343   9.558
23310WAT      O70171   4.206   1.527   0.770
23310WAT     H170172   4.144   1.494   0.841
23310WAT     H270173   4.261   1.450   0.737
23311WAT      O70174   7.358   8.534   9.796
23311WAT     H170175   7.352   8.509   9.893
23311WAT     H270176   7.305   8.618   9.780
23312WAT      O70177   9.773   8.430   4.209
23312WAT     H170178   9.738   8.522   4.225
23312WAT     H270179   9.789   8.385   4.296
23313WAT      O70180   9.557   5.150   8.621
23313WAT     H170181   9.518   5.234   8.658
23313WAT     H270182   9.556   5.154   8.521
23314WAT      O70183   5.508   6.733   3.393
23314WAT     H170184   5.494   6.675   3.313
23314WAT     H270185   5.420   6.753   3.436
23315WAT      O70186   4.027   6.702   1.635
23315WAT     H170187   4.035   6.772   1.564
23315WAT     H270188   3.932   6.698   1.666
23316WAT      O70189   8.481   4.535   7.667
23316WAT     H170190   8.490   4.532   7.766
23316WAT     H270191   8.559   4.487   7.625
23317WAT      O70192   6.796   7.531   1.996
23317WAT     H170193   6.838   7.619   1.977
23317WAT     H270194   6.696   7.542   2.002
23318WAT      O70195   8.908   2.661   5.693
23318WAT     H170196   8.828   2.696   5.742
23318WAT     H270197   8.956   2.595   5.750
23319WAT      O70198   2.179   8.241   1.416
23319WAT     H170199   2.236   8.295   1.354
23319WAT     H270200   2.197   8.144   1.402
23320WAT      O70201   5.926   1.577   0.222
23320WAT     H170202   5.934   1.578   0.322
23320WAT     H270203   5.834   1.606   0.196
23321WAT      O70204   9.747   8.240   5.246
23321WAT     H170205   9.704   8.214   5.159
23321WAT     H270206   9.712   8.180   5.319
23322WAT      O70207   5.325   6.157   8.206
23322WAT     H170208   5.395   6.158   8.277
23322WAT     H270209   5.362   6.195   8.122
23323WAT      O70210   7.561   1.001   2.802
23323WAT     H170211   7.471   0.980   2.763
23323WAT     H270212   7.564   0.970   2.897
23324WAT      O70213   1.085   4.413   1.199
23324WAT     H170214   1.044   4.420   1.108
23324WAT     H270215   1.043   4.338   1.249
23325WAT      O70216   7.916   5.284   1.295
23325WAT     H170217   7.977   5.362   1.280
23325WAT     H270218   7.903   5.235   1.209
23326WAT      O70219   8.529   5.521   1.763
23326WAT     H170220   8.555   5.504   1.668
23326WAT     H270221   8.600   5.574   1.809
23327WAT      O70222   8.149   2.069   5.498
23327WAT     H170223   8.151   2.023   5.409
23327WAT     H270224   8.074   2.135   5.499
23328WAT      O70225   4.320   8.017   5.164
23328WAT     H170226   4.402   7.987   5.212
23328WAT     H270227   4.319   8.117   5.157
23329WAT      O70228   0.223   2.323   9.675
23329WAT     H170229   0.245   2.413   9.638
23329WAT     H270230   0.181   2.334   9.766
23330WAT      O70231   4.087   8.382   1.718
23330WAT     H170232   4.137   8.455   1.671
23330WAT     H270233   3.989   8.394   1.701
23331WAT      O70234   8.319   1.769   7.825
23331WAT     H170235   8.264   1.691   7.795
23331WAT     H270236   8.278   1.809   7.907
23332WAT      O70237   3.148   3.637   3.828
23332WAT     H170238   3.208   3.596   3.897
23332WAT     H270239   3.155   3.736   3.832
23333WAT      O70240   8.020   0.110   6.179
23333WAT     H170241   8.099   0.135   6.123
23333WAT     H270242   8.019   0.011   6.193
23334WAT      O70243   5.424   3.984   5.388
23334WAT     H170244   5.417   4.079   5.357
23334WAT     H270245   5.504   3.973   5.447
23335WAT      O70246   1.074   0.807   3.520
23335WAT     H170247   1.133   0.822   3.599
23335WAT     H270248   0.987   0.767   3.551
23336WAT      O70249   2.570   7.339   2.056
23336WAT     H170250   2.606   7.291   2.136
23336WAT     H270251   2.470   7.333   2.057
23337WAT      O70252   3.667   9.117   0.092
23337WAT     H170253   3.596   9.059   0.052
23337WAT     H270254   3.730   9.060   0.146
23338WAT      O70255   2.854   4.792   7.792
23338WAT     H170256   2.809   4.782   7.704
23338WAT     H270257   2.875   4.701   7.829
23339WAT      O70258   4.597   2.918   1.325
23339WAT     H170259   4.689   2.906   1.361
23339WAT     H270260   4.554   2.829   1.314
23340WAT      O70261   6.121   8.657   9.620
23340WAT     H170262   6.192   8.712   9.662
23340WAT     H270263   6.032   8.702   9.632
23341WAT      O70264   3.568   7.373   8.987
23341WAT     H170265   3.489   7.333   9.035
23341WAT     H270266   3.556   7.472   8.982
23342WAT      O70267   4.818   5.944   3.935
23342WAT     H170268   4.827   5.883   3.857
23342WAT     H270269   4.758   6.020   3.911
23343WAT      O70270   3.595   5.414   0.830
23343WAT     H170271   3.501   5.433   0.801
23343WAT     H270272   3.658   5.473   0.782
23344WAT      O70273   9.571   8.697   6.786
23344WAT     H170274   9.560   8.744   6.699
23344WAT     H270275   9.619   8.610   6.772
23345WAT      O70276   5.026   4.307   2.088
23345WAT     H170277   5.054   4.320   2.184
23345WAT     H270278   5.083   4.364   2.029
23346WAT      O70279   7.678   5.771   0.875
23346WAT     H170280   7.704   5.692   0.931
23346WAT     H270281   7.671   5.743   0.780
23347WAT      O70282   4.191   6.823   4.222
23347WAT     H170283   4.283   6.864   4.224
23347WAT     H270284   4.183   6.764   4.142
23348WAT      O70285   8.791   1.727   0.782
23348WAT     H170286   8.824   1.741   0.875
23348WAT     H270287   8.739   1.807   0.753
23349WAT      O70288   5.897   9.808   2.436
23349WAT     H170289   5.990   9.841   2.451
23349WAT     H270290   5.849   9.871   2.375
23350WAT      O70291   2.502   8.384   7.728
23350WAT     H170292   2.459   8.383   7.819
23350WAT     H270293   2.444   8.335   7.663
23351WAT      O70294   2.796   1.482   5.526
23351WAT     H170295   2.830   1.532   5.447
23351WAT     H270296   2.704   1.516   5.549
23352WAT      O70297   8.697   6.434   7.202
23352WAT     H170298   8.744   6.405   7.119
23352WAT     H270299   8.730   6.380   7.279
23353WAT      O70300   1.104   7.166   6.736
23353WAT     H170301   1.072   7.103   6.807
23353WAT     H270302   1.041   7.243   6.728
23354WAT      O70303   7.138   8.958   2.153
23354WAT     H170304   7.093   8.934   2.239
23354WAT     H270305   7.223   9.006   2.172
23355WAT      O70306   9.674   8.935   2.744
23355WAT     H170307   9.696   9.030   2.767
23355WAT     H270308   9.577   8.927   2.724
23356WAT      O70309   1.455   1.486   4.806
23356WAT     H170310   1.441   1.442   4.894
23356WAT     H270311   1.392   1.447   4.739
23357WAT      O70312   0.851   3.041   7.315
23357WAT     H170313   0.870   3.059   7.411
23357WAT     H270314   0.841   2.942   7.301
23358WAT      O70315   7.339   0.325   8.950
23358WAT     H170316   7.392   0.390   8.896
23358WAT     H270317   7.241   0.340   8.935
23359WAT      O70318   4.212   6.292   3.361
23359WAT     H170319   4.227   6.193   3.358
23359WAT     H270320   4.281   6.338   3.304
23360WAT      O70321   0.571   8.112   1.336
23360WAT     H170322   0.485   8.129   1.385
23360WAT     H270323   0.594   8.192   1.281
23361WAT      O70324   7.369   9.426   1.727
23361WAT     H170325   7.330   9.518   1.722
23361WAT     H270326   7.358   9.380   1.638
23362WAT      O70327   3.601   9.053   7.049
23362WAT     H170328   3.682   8.995   7.045
23362WAT     H270329   3.562   9.051   7.141
23363WAT      O70330   3.191   6.078   2.287
23363WAT     H170331   3.213   6.159   2.342
23363WAT     H270332   3.093   6.079   2.266
23364WAT      O70333   2.046   0.313   5.408
23364WAT     H170334   1.951   0.282   5.400
23364WAT     H270335   2.093   0.298   5.321
23365WAT      O70336   7.273   2.627   1.940
23365WAT     H170337   7.266   2.574   2.024
23365WAT     H270338   7.254   2.567   1.862
23366WAT      O70339   1.720   5.231   9.002
23366WAT     H170340   1.748   5.286   9.080
23366WAT     H270341   1.664   5.154   9.035
23367WAT      O70342   9.767   4.719   8.808
23367WAT     H170343   9.839   4.789   8.813
23367WAT     H270344   9.805   4.630   8.832
23368WAT      O70345   4.614   5.929   7.557
23368WAT     H170346   4.517   5.945   7.534
23368WAT     H270347   4.632   5.962   7.649
23369WAT      O70348   5.438   4.558   5.587
23369WAT     H170349   5.471   4.648   5.615
23369WAT     H270350   5.374   4.568   5.511
23370WAT      O70351   7.771   3.096   0.509
23370WAT     H170352   7.870   3.101   0.499
23370WAT     H270353   7.745   3.002   0.531
23371WAT      O70354   1.364   3.019   6.812
23371WAT     H170355   1.464   3.012   6.821
23371WAT     H270356   1.339   3.016   6.715
23372WAT      O70357   8.668   5.680   4.779
23372WAT     H170358   8.688   5.646   4.871
23372WAT     H270359   8.754   5.707   4.734
23373WAT      O70360   9.254   4.574   1.973
23373WAT     H170361   9.282   4.628   2.052
23373WAT     H270362   9.216   4.634   1.903
23374WAT      O70363   9.490   7.532   5.409
23374WAT     H170364   9.541   7.612   5.442
23374WAT     H270365   9.447   7.486   5.486
23375WAT      O70366   8.796   3.224   7.331
23375WAT     H170367   8.862   3.162   7.373
23375WAT     H270368   8.740   3.266   7.403
23376WAT      O70369   7.759   5.445   9.366
23376WAT     H170370   7.762   5.411   9.460
23376WAT     H270371   7.717   5.376   9.307
23377WAT      O70372   3.486   6.967   4.079
23377WAT     H170373   3.493   6.892   4.013
23377WAT     H270374   3.521   6.937   4.168
23378WAT      O70375   6.635   2.909   2.005
23378WAT     H170376   6.676   2.831   2.053
23378WAT     H270377   6.588   2.967   2.070
23379WAT      O70378   2.307   2.554   2.199
23379WAT     H170379   2.343   2.632   2.148
23379WAT     H270380   2.383   2.496   2.229
23380WAT      O70381   3.813   1.329   6.169
23380WAT     H170382   3.731   1.284   6.204
23380WAT     H270383   3.879   1.260   6.140
23381WAT      O70384   0.932   2.361   4.503
23381WAT     H170385   0.976   2.437   4.550
23381WAT     H270386   0.859   2.324   4.560
23382WAT      O70387   5.019   5.896   4.370
23382WAT     H170388   4.960   5.869   4.294
23382WAT     H270389   5.000   5.836   4.449
23383WAT      O70390   1.926   5.793   7.111
23383WAT     H170391   1.914   5.758   7.018
23383WAT     H270392   1.950   5.890   7.108
23384WAT      O70393   1.396   2.667   9.448
23384WAT     H170394   1.377   2.675   9.546
23384WAT     H270395   1.462   2.593   9.433
23385WAT      O70396   0.257   1.976   3.690
23385WAT     H170397   0.340   1.930   3.658
23385WAT     H270398   0.184   1.908   3.701
23386WAT      O70399   2.619   8.028   9.337
23386WAT     H170400   2.526   7.992   9.338
23386WAT     H270401   2.668   7.993   9.257
23387WAT      O70402   4.297   1.842   8.960
23387WAT     H170403   4.339   1.834   8.869
23387WAT     H270404   4.358   1.802   9.028
23388WAT      O70405   3.228   8.222   7.342
23388WAT     H170406   3.228   8.202   7.440
23388WAT     H270407   3.247   8.138   7.291
23389WAT      O70408   1.845   6.677   0.343
23389WAT     H170409   1.811   6.633   0.260
23389WAT     H270410   1.909   6.617   0.390
23390WAT      O70411   8.616   6.077   0.516
23390WAT     H170412   8.581   5.987   0.544
23390WAT     H270413   8.715   6.078   0.524
23391WAT      O70414   3.513   2.637   9.268
23391WAT     H170415   3.509   2.539   9.287
23391WAT     H270416   3.565   2.653   9.184
23392WAT      O70417   4.406   8.411   6.665
23392WAT     H170418   4.431   8.336   6.605
23392WAT     H270419   4.317   8.448   6.638
23393WAT      O70420   2.006   2.808   9.018
23393WAT     H170421   1.988   2.897   8.977
23393WAT     H270422   2.098   2.778   8.993
23394WAT      O70423   5.494   1.012   0.242
23394WAT     H170424   5.452   1.089   0.194
23394WAT     H270425   5.523   0.942   0.176
23395WAT      O70426   5.142   3.150   0.837
23395WAT     H170427   5.133   3.061   0.882
23395WAT     H270428   5.233   3.187   0.856
23396WAT      O70429   4.606   1.640   8.925
23396WAT     H170430   4.701   1.666   8.910
23396WAT     H270431   4.579   1.666   9.017
23397WAT      O70432   0.633   2.285   1.278
23397WAT     H170433   0.651   2.270   1.181
23397WAT     H270434   0.577   2.367   1.290
23398WAT      O70435   2.096   2.875   2.571
23398WAT     H170436   1.998   2.891   2.560
23398WAT     H270437   2.124   2.800   2.510
23399WAT      O70438   0.088   3.392   8.148
23399WAT     H170439   0.135   3.468   8.104
23399WAT     H270440   0.001   3.373   8.101
23400WAT      O70441   3.741   2.941   0.669
23400WAT     H170442   3.702   3.030   0.644
23400WAT     H270443   3.784   2.947   0.758
23401WAT      O70444   1.877   6.892   1.975
23401WAT     H170445   1.912   6.938   2.056
23401WAT     H270446   1.859   6.959   1.904
23402WAT      O70447   4.662   4.124   5.730
23402WAT     H170448   4.703   4.175   5.654
23402WAT     H270449   4.565   4.147   5.736
23403WAT      O70450   9.344   2.639   1.249
23403WAT     H170451   9.298   2.597   1.328
23403WAT     H270452   9.438   2.663   1.275
23404WAT      O70453   2.758   4.957   8.877
23404WAT     H170454   2.707   4.961   8.791
23404WAT     H270455   2.784   5.049   8.906
23405WAT      O70456   0.081   7.440   8.392
23405WAT     H170457  -0.008   7.398   8.377
23405WAT     H270458   0.111   7.485   8.307
23406WAT      O70459   5.373   5.708   8.271
23406WAT     H170460   5.369   5.756   8.358
23406WAT     H270461   5.450   5.743   8.218
23407WAT      O70462   6.652   5.497   0.141
23407WAT     H170463   6.677   5.470   0.234
23407WAT     H270464   6.554   5.516   0.137
23408WAT      O70465   6.297   2.275   2.032
23408WAT     H170466   6.231   2.261   2.105
23408WAT     H270467   6.295   2.371   2.003
23409WAT      O70468   7.729   2.491   1.154
23409WAT     H170469   7.700   2.554   1.226
23409WAT     H270470   7.828   2.485   1.153
23410WAT      O70471   0.597   6.412   0.701
23410WAT     H170472   0.581   6.434   0.604
23410WAT     H270473   0.525   6.350   0.733
23411WAT      O70474   3.207   6.182   7.538
23411WAT     H170475   3.218   6.100   7.594
23411WAT     H270476   3.183   6.154   7.444
23412WAT      O70477   0.038   5.396   3.800
23412WAT     H170478   0.095   5.327   3.846
23412WAT     H270479  -0.059   5.376   3.818
23413WAT      O70480   4.997   4.637   0.008
23413WAT     H170481   5.037   4.601  -0.076
23413WAT     H270482   5.028   4.732   0.021
23414WAT      O70483   9.627   8.489   1.946
23414WAT     H170484   9.645   8.483   1.848
23414WAT     H270485   9.548   8.549   1.961
23415WAT      O70486   3.327   3.313   1.379
23415WAT     H170487   3.379   3.393   1.352
23415WAT     H270488   3.389   3.235   1.393
23416WAT      O70489   7.372   5.409   8.009
23416WAT     H170490   7.322   5.366   7.933
23416WAT     H270491   7.313   5.414   8.089
23417WAT      O70492   1.419   1.347   0.349
23417WAT     H170493   1.501   1.347   0.293
23417WAT     H270494   1.430   1.282   0.425
23418WAT      O70495   3.469   0.292   7.673
23418WAT     H170496   3.379   0.335   7.666
23418WAT     H270497   3.480   0.226   7.599
23419WAT      O70498   1.805   9.086   7.419
23419WAT     H170499   1.860   9.129   7.348
23419WAT     H270500   1.734   9.030   7.378
23420WAT      O70501   0.606   8.264   9.482
23420WAT     H170502   0.706   8.263   9.470
23420WAT     H270503   0.565   8.329   9.418
23421WAT      O70504   5.048   4.925   0.022
23421WAT     H170505   5.104   4.969   0.093
23421WAT     H270506   5.048   4.980  -0.061
23422WAT      O70507   7.042   1.733   4.305
23422WAT     H170508   6.993   1.694   4.228
23422WAT     H270509   7.136   1.754   4.278
23423WAT      O70510   4.687   6.994   2.531
23423WAT     H170511   4.632   7.066   2.574
23423WAT     H270512   4.681   6.911   2.586
23424WAT      O70513   2.515   1.550   9.092
23424WAT     H170514   2.507   1.649   9.098
23424WAT     H270515   2.469   1.518   9.009
23425WAT      O70516   7.657   1.486   8.179
23425WAT     H170517   7.714   1.476   8.260
23425WAT     H270518   7.591   1.559   8.193
23426WAT      O70519   5.956   1.677   5.217
23426WAT     H170520   5.933   1.772   5.237
23426WAT     H270521   5.882   1.617   5.250
23427WAT      O70522   1.237   5.691   9.755
23427WAT     H170523   1.254   5.785   9.784
23427WAT     H270524   1.221   5.634   9.836
23428WAT      O70525   1.029   0.401   3.854
23428WAT     H170526   1.103   0.464   3.828
23428WAT     H270527   0.972   0.382   3.775
23429WAT      O70528   4.915   0.824   7.342
23429WAT     H170529   4.825   0.859   7.315
23429WAT     H270530   4.983   0.897   7.335
23430WAT      O70531   8.380   3.199   6.628
23430WAT     H170532   8.301   3.254   6.655
23430WAT     H270533   8.348   3.114   6.586
23431WAT      O70534   4.998   1.908   2.113
23431WAT     H170535   5.097   1.919   2.120
23431WAT     H270536   4.956   1.930   2.201
23432WAT      O70537   0.142   6.747   7.794
23432WAT     H170538   0.079   6.677   7.762
23432WAT     H270539   0.118   6.835   7.755
23433WAT      O70540   4.736   6.027   2.862
23433WAT     H170541   4.680   5.946   2.846
23433WAT     H270542   4.689   6.108   2.828
23434WAT      O70543   2.748   2.229   1.858
23434WAT     H170544   2.771   2.210   1.954
23434WAT     H270545   2.672   2.293   1.854
23435WAT      O70546   9.018   7.735   1.657
23435WAT     H170547   9.082   7.663   1.681
23435WAT     H270548   8.999   7.791   1.738
23436WAT      O70549   5.474   0.897   1.806
23436WAT     H170550   5.553   0.896   1.745
23436WAT     H270551   5.404   0.835   1.770
23437WAT      O70552   8.307   6.619   5.406
23437WAT     H170553   8.278   6.714   5.393
23437WAT     H270554   8.231   6.565   5.442
23438WAT      O70555   8.463   3.735   2.678
23438WAT     H170556   8.543   3.725   2.738
23438WAT     H270557   8.462   3.827   2.639
23439WAT      O70558   0.921   5.664   4.233
23439WAT     H170559   0.956   5.605   4.306
23439WAT     H270560   0.965   5.753   4.240
23440WAT      O70561   1.211   3.962   1.299
23440WAT     H170562   1.147   3.949   1.375
23440WAT     H270563   1.233   3.873   1.259
23441WAT      O70564   0.789   8.935   5.776
23441WAT     H170565   0.733   9.016   5.763
23441WAT     H270566   0.730   8.854   5.783
23442WAT      O70567   5.715   6.805   8.499
23442WAT     H170568   5.780   6.853   8.441
23442WAT     H270569   5.622   6.823   8.467
23443WAT      O70570   7.721   6.360   5.439
23443WAT     H170571   7.666   6.283   5.406
23443WAT     H270572   7.681   6.446   5.406
23444WAT      O70573   4.648   4.853   7.540
23444WAT     H170574   4.580   4.796   7.493
23444WAT     H270575   4.626   4.857   7.637
23445WAT      O70576   8.340   8.896   6.726
23445WAT     H170577   8.381   8.954   6.796
23445WAT     H270578   8.327   8.950   6.642
23446WAT      O70579   6.819   5.409   3.043
23446WAT     H170580   6.867   5.346   2.982
23446WAT     H270581   6.728   5.428   3.007
23447WAT      O70582   1.657   6.738   6.614
23447WAT     H170583   1.702   6.827   6.602
23447WAT     H270584   1.724   6.665   6.597
23448WAT      O70585   3.028   1.687   4.547
23448WAT     H170586   3.035   1.783   4.518
23448WAT     H270587   3.113   1.639   4.525
23449WAT      O70588   5.374   0.862   5.431
23449WAT     H170589   5.320   0.789   5.389
23449WAT     H270590   5.365   0.946   5.377
23450WAT      O70591   7.360   7.886   8.758
23450WAT     H170592   7.416   7.805   8.739
23450WAT     H270593   7.307   7.871   8.841
23451WAT      O70594   1.015   8.753   4.541
23451WAT     H170595   0.938   8.764   4.478
23451WAT     H270596   1.039   8.657   4.548
23452WAT      O70597   4.830   0.779   8.469
23452WAT     H170598   4.843   0.877   8.485
23452WAT     H270599   4.770   0.742   8.540
23453WAT      O70600   9.539   6.817   3.349
23453WAT     H170601   9.544   6.732   3.402
23453WAT     H270602   9.616   6.876   3.374
23454WAT      O70603   7.463   4.120   9.582
23454WAT     H170604   7.454   4.023   9.557
23454WAT     H270605   7.559   4.139   9.602
23455WAT      O70606   6.337   8.067   4.911
23455WAT     H170607   6.271   8.009   4.959
23455WAT     H270608   6.377   8.015   4.835
23456WAT      O70609   4.534   7.707   7.828
23456WAT     H170610   4.572   7.688   7.919
23456WAT     H270611   4.465   7.779   7.834
23457WAT      O70612   3.333   3.864   6.703
23457WAT     H170613   3.367   3.847   6.610
23457WAT     H270614   3.409   3.857   6.767
23458WAT      O70615   4.319   7.150   3.009
23458WAT     H170616   4.229   7.108   3.022
23458WAT     H270617   4.312   7.249   3.017
23459WAT      O70618   8.710   1.266   4.308
23459WAT     H170619   8.686   1.183   4.359
23459WAT     H270620   8.648   1.277   4.230
23460WAT      O70621   0.675   3.904   1.972
23460WAT     H170622   0.613   3.976   2.003
23460WAT     H270623   0.739   3.942   1.905
23461WAT      O70624   9.194   3.292   8.024
23461WAT     H170625   9.129   3.341   8.082
23461WAT     H270626   9.251   3.358   7.975
23462WAT      O70627   0.678   8.122   0.966
23462WAT     H170628   0.644   8.189   1.032
23462WAT     H270629   0.638   8.140   0.876
23463WAT      O70630   6.085   4.170   3.602
23463WAT     H170631   5.988   4.148   3.588
23463WAT     H270632   6.094   4.234   3.678
23464WAT      O70633   1.857   7.150   5.004
23464WAT     H170634   1.924   7.079   4.984
23464WAT     H270635   1.888   7.237   4.966
23465WAT      O70636   5.315   9.328   2.189
23465WAT     H170637   5.278   9.416   2.220
23465WAT     H270638   5.285   9.256   2.252
23466WAT      O70639   2.951   9.081   9.842
23466WAT     H170640   2.857   9.104   9.819
23466WAT     H270641   2.994   9.158   9.890
23467WAT      O70642   8.561   0.653   2.379
23467WAT     H170643   8.602   0.680   2.467
23467WAT     H270644   8.462   0.657   2.386
23468WAT      O70645   8.091   9.398   2.016
23468WAT     H170646   8.018   9.375   1.952
23468WAT     H270647   8.079   9.493   2.047
23469WAT      O70648   9.767   4.907   6.344
23469WAT     H170649   9.711   4.978   6.300
23469WAT     H270650   9.720   4.819   6.337
23470WAT      O70651   6.427   7.005   2.961
23470WAT     H170652   6.448   6.930   2.897
23470WAT     H270653   6.399   6.966   3.049
23471WAT      O70654   2.134   2.752   6.582
23471WAT     H170655   2.187   2.671   6.556
23471WAT     H270656   2.036   2.730   6.576
23472WAT      O70657   5.636   0.604   7.343
23472WAT     H170658   5.543   0.641   7.345
23472WAT     H270659   5.631   0.504   7.348
23473WAT      O70660   5.950   4.449   0.145
23473WAT     H170661   6.037   4.472   0.102
23473WAT     H270662   5.890   4.405   0.078
23474WAT      O70663   7.680   2.244   1.369
23474WAT     H170664   7.595   2.261   1.420
23474WAT     H270665   7.681   2.301   1.287
23475WAT      O70666   5.106   0.899   1.902
23475WAT     H170667   5.068   0.905   1.810
23475WAT     H270668   5.176   0.827   1.905
23476WAT      O70669   0.772   2.423   8.351
23476WAT     H170670   0.738   2.517   8.344
23476WAT     H270671   0.713   2.371   8.413
23477WAT      O70672   2.495   5.701   7.716
23477WAT     H170673   2.446   5.622   7.678
23477WAT     H270674   2.543   5.674   7.799
23478WAT      O70675   1.580   8.068   3.233
23478WAT     H170676   1.544   8.080   3.140
23478WAT     H270677   1.525   8.120   3.298
23479WAT      O70678   2.968   0.973   3.014
23479WAT     H170679   2.969   0.957   3.113
23479WAT     H270680   3.008   1.063   2.995
23480WAT      O70681   4.117   7.336   9.767
23480WAT     H170682   4.075   7.268   9.827
23480WAT     H270683   4.045   7.391   9.724
23481WAT      O70684   6.159   6.482   3.686
23481WAT     H170685   6.185   6.422   3.610
23481WAT     H270686   6.216   6.461   3.765
23482WAT      O70687   7.083   2.796   8.213
23482WAT     H170688   7.046   2.709   8.179
23482WAT     H270689   7.181   2.786   8.228
23483WAT      O70690   5.122   7.522   0.938
23483WAT     H170691   5.186   7.579   0.991
23483WAT     H270692   5.126   7.428   0.971
23484WAT      O70693   4.955   7.077   1.655
23484WAT     H170694   5.007   7.059   1.738
23484WAT     H270695   4.977   7.008   1.586
23485WAT      O70696   9.551   5.225   5.322
23485WAT     H170697   9.642   5.227   5.281
23485WAT     H270698   9.482   5.215   5.251
23486WAT      O70699   8.963   8.224   4.760
23486WAT     H170700   8.977   8.308   4.707
23486WAT     H270701   9.046   8.204   4.813
23487WAT      O70702   9.879   5.238   1.432
23487WAT     H170703   9.807   5.172   1.454
23487WAT     H270704   9.862   5.277   1.341
23488WAT      O70705   8.712   2.352   7.201
23488WAT     H170706   8.657   2.379   7.121
23488WAT     H270707   8.661   2.286   7.256
23489WAT      O70708   8.339   3.416   8.393
23489WAT     H170709   8.434   3.442   8.410
23489WAT     H270710   8.315   3.337   8.450
23490WAT      O70711   8.247   1.612   4.224
23490WAT     H170712   8.234   1.569   4.135
23490WAT     H270713   8.311   1.689   4.216
23491WAT      O70714   9.863   8.544   8.400
23491WAT     H170715   9.858   8.499   8.311
23491WAT     H270716   9.826   8.636   8.394
23492WAT      O70717   8.475   1.298   7.462
23492WAT     H170718   8.527   1.318   7.545
23492WAT     H270719   8.524   1.228   7.409
23493WAT      O70720   0.309   9.732   2.348
23493WAT     H170721   0.385   9.775   2.395
23493WAT     H270722   0.315   9.751   2.250
23494WAT      O70723   3.338   4.796   8.297
23494WAT     H170724   3.246   4.825   8.324
23494WAT     H270725   3.397   4.876   8.286
23495WAT      O70726   6.453   7.244   4.551
23495WAT     H170727   6.546   7.216   4.526
23495WAT     H270728   6.406   7.277   4.469
23496WAT      O70729   8.626   7.116   7.625
23496WAT     H170730   8.538   7.096   7.582
23496WAT     H270731   8.651   7.211   7.606
23497WAT      O70732   1.653   8.552   6.960
23497WAT     H170733   1.679   8.513   6.871
23497WAT     H270734   1.612   8.481   7.017
23498WAT      O70735   9.543   6.184   7.509
23498WAT     H170736   9.512   6.092   7.487
23498WAT     H270737   9.588   6.184   7.599
23499WAT      O70738   1.503   7.296   4.866
23499WAT     H170739   1.578   7.360   4.883
23499WAT     H270740   1.448   7.330   4.790
23500WAT      O70741   0.658   1.222   6.346
23500WAT     H170742   0.611   1.251   6.430
23500WAT     H270743   0.671   1.301   6.286
23501WAT      O70744   2.134   9.735   4.461
23501WAT     H170745   2.196   9.664   4.429
23501WAT     H270746   2.139   9.814   4.400
23502WAT      O70747   8.246   5.167   6.437
23502WAT     H170748   8.332   5.143   6.390
23502WAT     H270749   8.265   5.186   6.533
23503WAT      O70750   7.194   8.750   0.676
23503WAT     H170751   7.165   8.743   0.580
23503WAT     H270752   7.283   8.795   0.681
23504WAT      O70753   4.772   7.965   4.842
23504WAT     H170754   4.677   7.940   4.863
23504WAT     H270755   4.809   7.903   4.773
23505WAT      O70756   9.024   4.310   2.853
23505WAT     H170757   9.003   4.386   2.914
23505WAT     H270758   9.084   4.342   2.779
23506WAT      O70759   9.538   2.612   0.340
23506WAT     H170760   9.541   2.570   0.249
23506WAT     H270761   9.629   2.607   0.381
23507WAT      O70762   5.674   0.728   3.640
23507WAT     H170763   5.723   0.644   3.663
23507WAT     H270764   5.641   0.722   3.546
23508WAT      O70765   3.766   3.732   4.818
23508WAT     H170766   3.848   3.759   4.868
23508WAT     H270767   3.791   3.665   4.747
23509WAT      O70768   9.605   2.400   1.223
23509WAT     H170769   9.524   2.401   1.164
23509WAT     H270770   9.607   2.315   1.275
23510WAT      O70771   2.349   9.666   9.764
23510WAT     H170772   2.402   9.582   9.771
23510WAT     H270773   2.373   9.713   9.678
23511WAT      O70774   5.731   7.449   5.672
23511WAT     H170775   5.764   7.413   5.759
23511WAT     H270776   5.801   7.509   5.632
23512WAT      O70777   1.934   1.768   8.754
23512WAT     H170778   1.998   1.806   8.687
23512WAT     H270779   1.965   1.791   8.846
23513WAT      O70780   0.340   9.404   7.039
23513WAT     H170781   0.359   9.468   7.113
23513WAT     H270782   0.245   9.375   7.043
23514WAT      O70783   9.274   6.106   7.447
23514WAT     H170784   9.198   6.073   7.392
23514WAT     H270785   9.239   6.164   7.521
23515WAT      O70786   1.187   5.431   0.303
23515WAT     H170787   1.285   5.437   0.322
23515WAT     H270788   1.145   5.366   0.367
23516WAT      O70789   7.165   3.082   8.430
23516WAT     H170790   7.146   2.986   8.449
23516WAT     H270791   7.183   3.094   8.332
23517WAT      O70792   3.104   1.031   5.102
23517WAT     H170793   3.097   1.129   5.084
23517WAT     H270794   3.201   1.004   5.099
23518WAT      O70795   3.663   0.698   0.776
23518WAT     H170796   3.723   0.628   0.738
23518WAT     H270797   3.620   0.664   0.859
23519WAT      O70798   1.774   1.233   8.206
23519WAT     H170799   1.847   1.178   8.166
23519WAT     H270800   1.686   1.207   8.166
23520WAT      O70801   2.179   1.656   4.643
23520WAT     H170802   2.241   1.617   4.711
23520WAT     H270803   2.183   1.602   4.559
23521WAT      O70804   3.816   3.501   5.088
23521WAT     H170805   3.901   3.552   5.102
23521WAT     H270806   3.823   3.446   5.006
23522WAT      O70807   5.816   8.411   6.597
23522WAT     H170808   5.893   8.415   6.660
23522WAT     H270809   5.731   8.428   6.646
23523WAT      O70810   9.214   7.981   3.887
23523WAT     H170811   9.270   8.024   3.816
23523WAT     H270812   9.118   7.998   3.870
23524WAT      O70813   5.089   9.060   7.116
23524WAT     H170814   5.085   9.135   7.183
23524WAT     H270815   5.032   8.984   7.148
23525WAT      O70816   7.255   8.881   7.151
23525WAT     H170817   7.277   8.947   7.223
23525WAT     H270818   7.272   8.922   7.061
23526WAT      O70819   7.407   5.743   1.870
23526WAT     H170820   7.347   5.666   1.851
23526WAT     H270821   7.355   5.817   1.913
23527WAT      O70822   4.420   3.765   2.156
23527WAT     H170823   4.416   3.773   2.056
23527WAT     H270824   4.512   3.791   2.187
23528WAT      O70825   5.770   3.600   7.707
23528WAT     H170826   5.722   3.601   7.795
23528WAT     H270827   5.710   3.637   7.636
23529WAT      O70828   1.845   7.478   5.869
23529WAT     H170829   1.856   7.427   5.955
23529WAT     H270830   1.793   7.561   5.886
23530WAT      O70831   9.312   1.273   8.628
23530WAT     H170832   9.250   1.347   8.652
23530WAT     H270833   9.325   1.271   8.529
23531WAT      O70834   6.318   9.131   1.338
23531WAT     H170835   6.223   9.122   1.309
23531WAT     H270836   6.330   9.219   1.384
23532WAT      O70837   9.202   7.540   1.749
23532WAT     H170838   9.295   7.564   1.777
23532WAT     H270839   9.201   7.447   1.712
23533WAT      O70840   9.860   8.172   1.973
23533WAT     H170841   9.787   8.240   1.968
23533WAT     H270842   9.908   8.180   2.060
23534WAT      O70843   5.391   4.147   0.096
23534WAT     H170844   5.489   4.137   0.079
23534WAT     H270845   5.342   4.075   0.047
23535WAT      O70846   5.365   0.187   4.476
23535WAT     H170847   5.272   0.192   4.512
23535WAT     H270848   5.387   0.273   4.429
23536WAT      O70849   8.051   1.221   4.386
23536WAT     H170850   8.056   1.229   4.486
23536WAT     H270851   8.139   1.246   4.346
23537WAT      O70852   5.470   6.004   5.394
23537WAT     H170853   5.508   5.918   5.429
23537WAT     H270854   5.545   6.063   5.364
23538WAT      O70855   0.418   4.051   5.910
23538WAT     H170856   0.465   4.111   5.845
23538WAT     H270857   0.320   4.062   5.901
23539WAT      O70858   7.484   0.102   2.500
23539WAT     H170859   7.536   0.023   2.533
23539WAT     H270860   7.413   0.071   2.438
23540WAT      O70861   5.267   2.826   5.691
23540WAT     H170862   5.344   2.884   5.663
23540WAT     H270863   5.182   2.879   5.686
23541WAT      O70864   9.444   8.497   9.467
23541WAT     H170865   9.431   8.433   9.542
23541WAT     H270866   9.431   8.450   9.380
23542WAT      O70867   1.979   5.422   8.506
23542WAT     H170868   2.012   5.463   8.420
23542WAT     H270869   1.887   5.386   8.492
23543WAT      O70870   4.721   5.192   6.513
23543WAT     H170871   4.682   5.276   6.551
23543WAT     H270872   4.802   5.166   6.566
23544WAT      O70873   9.501   3.153   5.811
23544WAT     H170874   9.403   3.154   5.790
23544WAT     H270875   9.552   3.193   5.735
23545WAT      O70876   1.196   6.934   0.816
23545WAT     H170877   1.119   6.911   0.876
23545WAT     H270878   1.169   6.920   0.720
23546WAT      O70879   6.166   2.204   4.636
23546WAT     H170880   6.185   2.112   4.604
23546WAT     H270881   6.067   2.219   4.639
23547WAT      O70882   3.770   0.606   3.268
23547WAT     H170883   3.790   0.621   3.172
23547WAT     H270884   3.848   0.637   3.324
23548WAT      O70885   6.265   7.521   1.895
23548WAT     H170886   6.265   7.608   1.847
23548WAT     H270887   6.309   7.532   1.984
23549WAT      O70888   7.620   2.141   3.898
23549WAT     H170889   7.591   2.223   3.949
23549WAT     H270890   7.719   2.141   3.889
23550WAT      O70891   0.804   8.275   3.007
23550WAT     H170892   0.767   8.367   2.999
23550WAT     H270893   0.760   8.227   3.082
23551WAT      O70894   0.890   5.753   2.165
23551WAT     H170895   0.968   5.814   2.178
23551WAT     H270896   0.918   5.659   2.183
23552WAT      O70897   4.323   6.496   3.030
23552WAT     H170898   4.239   6.532   3.070
23552WAT     H270899   4.379   6.456   3.102
23553WAT      O70900   2.955   4.412   1.371
23553WAT     H170901   2.864   4.396   1.409
23553WAT     H270902   2.971   4.349   1.295
23554WAT      O70903   9.789   0.025   9.755
23554WAT     H170904   9.776   0.121   9.779
23554WAT     H270905   9.882  -0.004   9.778
23555WAT      O70906   4.798   7.831   4.607
23555WAT     H170907   4.716   7.776   4.594
23555WAT     H270908   4.782   7.924   4.573
23556WAT      O70909   1.853   5.519   3.744
23556WAT     H170910   1.759   5.549   3.758
23556WAT     H270911   1.916   5.589   3.777
23557WAT      O70912   8.039   1.252   0.308
23557WAT     H170913   8.018   1.183   0.376
23557WAT     H270914   8.096   1.212   0.236
23558WAT      O70915   6.666   9.351   5.539
23558WAT     H170916   6.569   9.376   5.547
23558WAT     H270917   6.722   9.433   5.546
23559WAT      O70918   8.910   8.064   9.588
23559WAT     H170919   8.811   8.079   9.593
23559WAT     H270920   8.953   8.099   9.671
23560WAT      O70921   2.250   0.566   1.300
23560WAT     H170922   2.297   0.540   1.385
23560WAT     H270923   2.177   0.631   1.321
23561WAT      O70924   8.162   4.880   4.504
23561WAT     H170925   8.252   4.910   4.537
23561WAT     H270926   8.174   4.810   4.434
23562WAT      O70927   3.296   0.883   6.014
23562WAT     H170928   3.385   0.855   5.980
23562WAT     H270929   3.236   0.905   5.937
23563WAT      O70930   7.186   1.200   7.253
23563WAT     H170931   7.121   1.198   7.177
23563WAT     H270932   7.159   1.132   7.321
23564WAT      O70933   6.684   5.074   6.602
23564WAT     H170934   6.754   5.023   6.651
23564WAT     H270935   6.723   5.160   6.567
23565WAT      O70936   3.760   9.476   2.752
23565WAT     H170937   3.817   9.417   2.809
23565WAT     H270938   3.819   9.533   2.695
23566WAT      O70939   1.842   2.800   5.218
23566WAT     H170940   1.865   2.843   5.131
23566WAT     H270941   1.845   2.869   5.291
23567WAT      O70942   4.412   9.530   8.797
23567WAT     H170943   4.457   9.566   8.879
23567WAT     H270944   4.480   9.507   8.728
23568WAT      O70945   0.383   1.424   2.997
23568WAT     H170946   0.391   1.360   2.921
23568WAT     H270947   0.286   1.436   3.021
23569WAT      O70948   4.090   5.926   8.045
23569WAT     H170949   4.062   5.941   8.140
23569WAT     H270950   4.082   5.830   8.021
23570WAT      O70951   1.514   1.404   5.284
23570WAT     H170952   1.577   1.373   5.213
23570WAT     H270953   1.449   1.468   5.245
23571WAT      O70954   7.364   4.638   6.073
23571WAT     H170955   7.277   4.672   6.039
23571WAT     H270956   7.416   4.597   5.998
23572WAT      O70957   2.314   6.488   2.667
23572WAT     H170958   2.304   6.463   2.763
23572WAT     H270959   2.248   6.559   2.644
23573WAT      O70960   1.472   2.772   5.962
23573WAT     H170961   1.502   2.683   5.927
23573WAT     H270962   1.462   2.767   6.062
23574WAT      O70963   9.712   0.541   6.329
23574WAT     H170964   9.659   0.466   6.369
23574WAT     H270965   9.774   0.504   6.259
23575WAT      O70966   9.237   2.415   0.803
23575WAT     H170967   9.236   2.508   0.767
23575WAT     H270968   9.145   2.390   0.833
23576WAT      O70969   6.468   2.630   7.365
23576WAT     H170970   6.548   2.582   7.402
23576WAT     H270971   6.454   2.715   7.416
23577WAT      O70972   6.886   8.602   2.264
23577WAT     H170973   6.830   8.560   2.193
23577WAT     H270974   6.861   8.563   2.353
23578WAT      O70975   1.742   8.101   6.545
23578WAT     H170976   1.687   8.076   6.625
23578WAT     H270977   1.712   8.048   6.466
23579WAT      O70978   9.628   0.538   4.274
23579WAT     H170979   9.596   0.617   4.222
23579WAT     H270980   9.585   0.538   4.364
23580WAT      O70981   2.196   1.555   8.119
23580WAT     H170982   2.201   1.608   8.034
23580WAT     H270983   2.104   1.561   8.156
23581WAT      O70984   8.805   3.944   2.083
23581WAT     H170985   8.851   3.953   2.171
23581WAT     H270986   8.873   3.926   2.012
23582WAT      O70987   3.167   3.749   4.967
23582WAT     H170988   3.147   3.818   5.036
23582WAT     H270989   3.170   3.792   4.877
23583WAT      O70990   1.835   3.867   2.335
23583WAT     H170991   1.837   3.767   2.327
23583WAT     H270992   1.901   3.907   2.273
23584WAT      O70993   3.840   3.151   5.150
23584WAT     H170994   3.930   3.188   5.128
23584WAT     H270995   3.774   3.225   5.157
23585WAT      O70996   9.239   1.770   4.556
23585WAT     H170997   9.254   1.868   4.540
23585WAT     H270998   9.186   1.732   4.481
23586WAT      O70999   2.388   4.286   7.226
23586WAT     H171000   2.409   4.361   7.162
23586WAT     H271001   2.453   4.288   7.302
23587WAT      O71002   9.067   7.655   5.496
23587WAT     H171003   9.137   7.670   5.426
23587WAT     H271004   8.977   7.648   5.451
23588WAT      O71005   5.252   2.041   4.166
23588WAT     H171006   5.275   2.012   4.258
23588WAT     H271007   5.214   2.133   4.168
23589WAT      O71008   2.821   0.752   7.298
23589WAT     H171009   2.721   0.742   7.298
23589WAT     H271010   2.846   0.834   7.349
23590WAT      O71011   4.568   3.924   3.522
23590WAT     H171012   4.490   3.986   3.533
23590WAT     H271013   4.599   3.893   3.612
23591WAT      O71014   0.291   5.877   7.842
23591WAT     H171015   0.304   5.929   7.757
23591WAT     H271016   0.377   5.834   7.868
23592WAT      O71017   4.891   2.246   0.766
23592WAT     H171018   4.871   2.338   0.799
23592WAT     H271019   4.962   2.250   0.696
23593WAT      O71020   3.309   5.618   9.280
23593WAT     H171021   3.328   5.712   9.309
23593WAT     H271022   3.358   5.555   9.339
23594WAT      O71023   6.244   2.697   4.841
23594WAT     H171024   6.179   2.772   4.854
23594WAT     H271025   6.194   2.613   4.820
23595WAT      O71026   0.381   9.495   2.468
23595WAT     H171027   0.327   9.575   2.442
23595WAT     H271028   0.459   9.486   2.405
23596WAT      O71029   1.902   6.478   6.415
23596WAT     H171030   1.924   6.539   6.339
23596WAT     H271031   1.898   6.532   6.500
23597WAT      O71032   8.961   7.534   9.785
23597WAT     H171033   9.011   7.482   9.716
23597WAT     H271034   8.941   7.625   9.750
23598WAT      O71035   8.619   6.678   2.016
23598WAT     H171036   8.661   6.768   2.029
23598WAT     H271037   8.524   6.690   1.987
23599WAT      O71038   1.337   6.187   9.183
23599WAT     H171039   1.327   6.099   9.229
23599WAT     H271040   1.255   6.242   9.198
23600WAT      O71041   9.308   1.438   3.955
23600WAT     H171042   9.334   1.499   3.880
23600WAT     H271043   9.247   1.367   3.920
23601WAT      O71044   1.907   4.011   6.121
23601WAT     H171045   1.966   4.075   6.070
23601WAT     H271046   1.857   4.061   6.191
23602WAT      O71047   0.030   3.338   8.497
23602WAT     H171048   0.104   3.272   8.488
23602WAT     H271049  -0.038   3.302   8.561
23603WAT      O71050   2.229   0.394   2.066
23603WAT     H171051   2.149   0.453   2.054
23603WAT     H271052   2.299   0.443   2.118
23604WAT      O71053   6.405   1.504   3.219
23604WAT     H171054   6.390   1.472   3.126
23604WAT     H271055   6.389   1.429   3.283
23605WAT      O71056   4.815   8.198   7.395
23605WAT     H171057   4.765   8.266   7.341
23605WAT     H271058   4.765   8.179   7.479
23606WAT      O71059   1.624   1.206   8.827
23606WAT     H171060   1.549   1.270   8.814
23606WAT     H271061   1.589   1.120   8.863
23607WAT      O71062   8.263   0.264   1.313
23607WAT     H171063   8.254   0.185   1.251
23607WAT     H271064   8.179   0.273   1.367
23608WAT      O71065   3.729   6.825   7.115
23608WAT     H171066   3.653   6.871   7.161
23608WAT     H271067   3.693   6.765   7.044
23609WAT      O71068   6.833   8.214   7.060
23609WAT     H171069   6.862   8.294   7.112
23609WAT     H271070   6.913   8.159   7.036
23610WAT      O71071   9.595   6.070   3.315
23610WAT     H171072   9.649   6.023   3.385
23610WAT     H271073   9.498   6.050   3.328
23611WAT      O71074   5.400   3.715   6.481
23611WAT     H171075   5.302   3.735   6.478
23611WAT     H271076   5.415   3.619   6.504
23612WAT      O71077   5.186   7.414   7.459
23612WAT     H171078   5.154   7.384   7.548
23612WAT     H271079   5.125   7.484   7.423
23613WAT      O71080   5.908   6.428   4.154
23613WAT     H171081   5.967   6.497   4.195
23613WAT     H271082   5.883   6.457   4.061
23614WAT      O71083   1.612   8.022   3.877
23614WAT     H171084   1.515   8.023   3.850
23614WAT     H271085   1.621   7.970   3.962
23615WAT      O71086   4.161   1.672   2.548
23615WAT     H171087   4.156   1.751   2.609
23615WAT     H271088   4.101   1.687   2.469
23616WAT      O71089   6.839   6.889   5.249
23616WAT     H171090   6.801   6.975   5.281
23616WAT     H271091   6.808   6.871   5.155
23617WAT      O71092   7.316   2.502   0.592
23617WAT     H171093   7.363   2.534   0.675
23617WAT     H271094   7.241   2.441   0.618
23618WAT      O71095   9.481   5.810   8.697
23618WAT     H171096   9.469   5.772   8.605
23618WAT     H271097   9.561   5.871   8.698
23619WAT      O71098   7.256   2.388   3.134
23619WAT     H171099   7.329   2.324   3.160
23619WAT     H271100   7.168   2.341   3.138
23620WAT      O71101   0.826   8.281   2.556
23620WAT     H171102   0.731   8.283   2.523
23620WAT     H271103   0.833   8.217   2.632
23621WAT      O71104   9.893   6.165   3.277
23621WAT     H171105   9.886   6.246   3.219
23621WAT     H271106   9.803   6.122   3.285
23622WAT      O71107   1.550   4.706   6.392
23622WAT     H171108   1.559   4.653   6.476
23622WAT     H271109   1.536   4.644   6.315
23623WAT      O71110   9.045   6.630   6.699
23623WAT     H171111   9.098   6.550   6.725
23623WAT     H271112   9.039   6.636   6.599
23624WAT      O71113   0.169   3.698   4.065
23624WAT     H171114   0.259   3.684   4.023
23624WAT     H271115   0.167   3.653   4.154
23625WAT      O71116   7.151   9.612   5.677
23625WAT     H171117   7.238   9.584   5.638
23625WAT     H271118   7.160   9.625   5.776
23626WAT      O71119   6.061   0.346   1.632
23626WAT     H171120   6.148   0.310   1.667
23626WAT     H271121   6.036   0.428   1.684
23627WAT      O71122   5.346   6.509   2.106
23627WAT     H171123   5.331   6.592   2.159
23627WAT     H271124   5.263   6.488   2.053
23628WAT      O71125   7.017   9.773   1.572
23628WAT     H171126   7.079   9.715   1.519
23628WAT     H271127   6.991   9.853   1.517
23629WAT      O71128   0.634   4.512   6.357
23629WAT     H171129   0.582   4.531   6.273
23629WAT     H271130   0.614   4.583   6.425
23630WAT      O71131   7.566   9.109   5.245
23630WAT     H171132   7.649   9.054   5.227
23630WAT     H271133   7.546   9.164   5.164
23631WAT      O71134   2.696   3.027   0.772
23631WAT     H171135   2.621   3.031   0.837
23631WAT     H271136   2.687   3.102   0.706
23632WAT      O71137   0.890   5.228   3.746
23632WAT     H171138   0.845   5.255   3.832
23632WAT     H271139   0.878   5.300   3.678
23633WAT      O71140   3.579   7.779   8.748
23633WAT     H171141   3.655   7.843   8.761
23633WAT     H271142   3.583   7.740   8.656
23634WAT      O71143   6.901   7.180   8.361
23634WAT     H171144   6.900   7.080   8.359
23634WAT     H271145   6.992   7.213   8.337
23635WAT      O71146   2.563   5.355   7.491
23635WAT     H171147   2.492   5.418   7.523
23635WAT     H271148   2.640   5.408   7.455
23636WAT      O71149   2.857   7.683   1.865
23636WAT     H171150   2.847   7.589   1.898
23636WAT     H271151   2.807   7.745   1.926
23637WAT      O71152   8.304   6.521   4.077
23637WAT     H171153   8.238   6.588   4.044
23637WAT     H271154   8.389   6.530   4.026
23638WAT      O71155   6.570   8.943   3.090
23638WAT     H171156   6.567   9.013   3.162
23638WAT     H271157   6.591   8.986   3.003
23639WAT      O71158   1.212   5.556   3.788
23639WAT     H171159   1.254   5.477   3.834
23639WAT     H271160   1.150   5.524   3.716
23640WAT      O71161   6.737   6.063   1.171
23640WAT     H171162   6.648   6.095   1.205
23640WAT     H271163   6.806   6.133   1.190
23641WAT      O71164   9.026   4.842   0.732
23641WAT     H171165   9.017   4.789   0.647
23641WAT     H271166   9.109   4.814   0.780
23642WAT      O71167   2.543   2.001   1.532
23642WAT     H171168   2.636   1.966   1.527
23642WAT     H271169   2.498   1.988   1.444
23643WAT      O71170   0.842   2.040   5.159
23643WAT     H171171   0.926   1.996   5.129
23643WAT     H271172   0.781   2.053   5.081
23644WAT      O71173   8.947   6.955   9.396
23644WAT     H171174   8.952   6.928   9.492
23644WAT     H271175   9.034   6.996   9.367
23645WAT      O71176   7.451   7.266   6.130
23645WAT     H171177   7.412   7.345   6.081
23645WAT     H271178   7.527   7.297   6.188
23646WAT      O71179   1.409   4.201   3.313
23646WAT     H171180   1.344   4.184   3.387
23646WAT     H271181   1.457   4.287   3.329
23647WAT      O71182   6.983   3.426   7.638
23647WAT     H171183   6.968   3.377   7.724
23647WAT     H271184   6.900   3.475   7.612
23648WAT      O71185   2.679   0.809   8.220
23648WAT     H171186   2.674   0.733   8.285
23648WAT     H271187   2.620   0.790   8.141
23649WAT      O71188   3.276   1.425   4.794
23649WAT     H171189   3.364   1.379   4.786
23649WAT     H271190   3.289   1.518   4.826
23650WAT      O71191   8.941   0.501   7.590
23650WAT     H171192   8.876   0.425   7.583
23650WAT     H271193   8.921   0.568   7.519
23651WAT      O71194   6.523   5.246   1.076
23651WAT     H171195   6.470   5.302   1.012
23651WAT     H271196   6.619   5.270   1.069
23652WAT      O71197   5.148   3.722   7.269
23652WAT     H171198   5.101   3.657   7.209
23652WAT     H271199   5.157   3.683   7.360
23653WAT      O71200   4.247   8.380   0.609
23653WAT     H171201   4.208   8.293   0.581
23653WAT     H271202   4.253   8.383   0.709
23654WAT      O71203   3.308   0.529   3.830
23654WAT     H171204   3.294   0.582   3.747
23654WAT     H271205   3.293   0.588   3.910
23655WAT      O71206   3.369   1.679   0.467
23655WAT     H171207   3.295   1.735   0.503
23655WAT     H271208   3.457   1.721   0.489
23656WAT      O71209   7.225   8.373   2.734
23656WAT     H171210   7.220   8.286   2.686
23656WAT     H271211   7.153   8.434   2.701
23657WAT      O71212   8.640   8.752   2.866
23657WAT     H171213   8.641   8.654   2.845
23657WAT     H271214   8.592   8.766   2.953
23658WAT      O71215   3.145   6.237   0.416
23658WAT     H171216   3.047   6.227   0.431
23658WAT     H271217   3.180   6.313   0.472
23659WAT      O71218   5.643   7.989   2.493
23659WAT     H171219   5.737   8.024   2.493
23659WAT     H271220   5.642   7.894   2.523
23660WAT      O71221   3.285   8.589   8.076
23660WAT     H171222   3.362   8.528   8.095
23660WAT     H271223   3.222   8.590   8.154
23661WAT      O71224   7.317   8.087   1.239
23661WAT     H171225   7.345   8.075   1.145
23661WAT     H271226   7.324   8.184   1.264
23662WAT      O71227   0.073   7.883   9.644
23662WAT     H171228   0.075   7.844   9.552
23662WAT     H271229   0.060   7.981   9.638
23663WAT      O71230   1.728   3.542   7.827
23663WAT     H171231   1.645   3.553   7.773
23663WAT     H271232   1.706   3.551   7.924
23664WAT      O71233   5.412   1.321   8.913
23664WAT     H171234   5.501   1.300   8.952
23664WAT     H271235   5.344   1.256   8.947
23665WAT      O71236   6.276   9.651   0.735
23665WAT     H171237   6.285   9.613   0.643
23665WAT     H271238   6.331   9.734   0.742
23666WAT      O71239   8.826   9.493   1.112
23666WAT     H171240   8.791   9.535   1.029
23666WAT     H271241   8.885   9.559   1.160
23667WAT      O71242   4.756   7.784   8.321
23667WAT     H171243   4.808   7.867   8.343
23667WAT     H271244   4.666   7.789   8.364
23668WAT      O71245   4.248   8.147   1.615
23668WAT     H171246   4.333   8.151   1.667
23668WAT     H271247   4.181   8.210   1.654
23669WAT      O71248   8.419   6.964   0.238
23669WAT     H171249   8.386   6.888   0.294
23669WAT     H271250   8.519   6.963   0.237
23670WAT      O71251   9.043   6.621   1.250
23670WAT     H171252   8.994   6.539   1.222
23670WAT     H271253   8.977   6.686   1.289
23671WAT      O71254   8.266   1.913   6.456
23671WAT     H171255   8.177   1.926   6.500
23671WAT     H271256   8.265   1.953   6.365
23672WAT      O71257   2.665   9.036   0.979
23672WAT     H171258   2.691   8.940   0.994
23672WAT     H271259   2.736   9.081   0.925
23673WAT      O71260   8.574   0.135   9.124
23673WAT     H171261   8.622   0.135   9.036
23673WAT     H271262   8.555   0.229   9.152
23674WAT      O71263   9.468   8.105   9.440
23674WAT     H171264   9.448   8.028   9.501
23674WAT     H271265   9.425   8.089   9.351
23675WAT      O71266   9.732   1.492   1.154
23675WAT     H171267   9.819   1.461   1.192
23675WAT     H271268   9.681   1.413   1.120
23676WAT      O71269   2.440   2.824   5.129
23676WAT     H171270   2.496   2.882   5.188
23676WAT     H271271   2.448   2.855   5.034
23677WAT      O71272   4.118   2.596   2.602
23677WAT     H171273   4.199   2.623   2.654
23677WAT     H271274   4.125   2.499   2.577
23678WAT      O71275   8.572   4.031   4.856
23678WAT     H171276   8.514   4.103   4.819
23678WAT     H271277   8.638   4.071   4.919
23679WAT      O71278   4.946   0.696   7.892
23679WAT     H171279   5.039   0.703   7.927
23679WAT     H271280   4.949   0.678   7.793
23680WAT      O71281   7.920   4.974   2.635
23680WAT     H171282   7.987   5.048   2.639
23680WAT     H271283   7.890   4.951   2.728
23681WAT      O71284   1.866   9.644   4.533
23681WAT     H171285   1.944   9.707   4.529
23681WAT     H271286   1.829   9.643   4.626
23682WAT      O71287   2.381   5.025   8.834
23682WAT     H171288   2.436   5.070   8.764
23682WAT     H271289   2.387   4.926   8.824
23683WAT      O71290   4.352   2.653   4.186
23683WAT     H171291   4.295   2.571   4.193
23683WAT     H271292   4.312   2.715   4.118
23684WAT      O71293   2.041   4.361   2.732
23684WAT     H171294   2.120   4.388   2.678
23684WAT     H271295   1.963   4.419   2.710
23685WAT      O71296   4.749   9.703   8.878
23685WAT     H171297   4.677   9.666   8.938
23685WAT     H271298   4.784   9.629   8.820
23686WAT      O71299   3.875   6.906   8.493
23686WAT     H171300   3.795   6.878   8.548
23686WAT     H271301   3.868   7.003   8.471
23687WAT      O71302   5.200   5.666   6.589
23687WAT     H171303   5.172   5.758   6.562
23687WAT     H271304   5.265   5.672   6.666
23688WAT      O71305   3.892   1.957   2.116
23688WAT     H171306   3.959   1.906   2.062
23688WAT     H271307   3.916   2.055   2.115
23689WAT      O71308   7.543   4.603   6.664
23689WAT     H171309   7.533   4.514   6.708
23689WAT     H271310   7.459   4.626   6.615
23690WAT      O71311   3.913   8.359   9.752
23690WAT     H171312   3.883   8.268   9.782
23690WAT     H271313   4.003   8.378   9.790
23691WAT      O71314   8.671   3.642   0.123
23691WAT     H171315   8.576   3.634   0.153
23691WAT     H271316   8.685   3.732   0.082
23692WAT      O71317   2.513   2.515   7.990
23692WAT     H171318   2.420   2.537   7.963
23692WAT     H271319   2.558   2.596   8.026
23693WAT      O71320   6.450   8.473   3.121
23693WAT     H171321   6.445   8.374   3.105
23693WAT     H271322   6.381   8.519   3.065
23694WAT      O71323   3.070   7.598   1.714
23694WAT     H171324   2.996   7.627   1.775
23694WAT     H271325   3.158   7.623   1.755
23695WAT      O71326   4.975   3.392   3.099
23695WAT     H171327   4.982   3.411   3.196
23695WAT     H271328   4.919   3.310   3.085
23696WAT      O71329   0.476   9.343   3.299
23696WAT     H171330   0.519   9.263   3.341
23696WAT     H271331   0.428   9.395   3.369
23697WAT      O71332   3.208   7.617   3.955
23697WAT     H171333   3.296   7.655   3.924
23697WAT     H271334   3.152   7.596   3.876
23698WAT      O71335   5.900   1.419   4.102
23698WAT     H171336   5.971   1.353   4.125
23698WAT     H271337   5.875   1.472   4.183
23699WAT      O71338   4.038   4.378   1.018
23699WAT     H171339   4.033   4.397   1.116
23699WAT     H271340   3.970   4.434   0.970
23700WAT      O71341   2.387   9.284   1.857
23700WAT     H171342   2.436   9.280   1.945
23700WAT     H271343   2.364   9.379   1.836
23701WAT      O71344   1.473   2.453   4.034
23701WAT     H171345   1.453   2.540   4.079
23701WAT     H271346   1.546   2.406   4.084
23702WAT      O71347   7.525   5.043   4.458
23702WAT     H171348   7.561   4.954   4.484
23702WAT     H271349   7.463   5.076   4.529
23703WAT      O71350   8.332   6.961   5.545
23703WAT     H171351   8.418   6.992   5.585
23703WAT     H271352   8.298   6.882   5.596
23704WAT      O71353   3.284   6.624   3.279
23704WAT     H171354   3.352   6.575   3.333
23704WAT     H271355   3.282   6.585   3.186
23705WAT      O71356   5.870   7.270   2.002
23705WAT     H171357   5.909   7.179   2.016
23705WAT     H271358   5.785   7.261   1.949
23706WAT      O71359   9.491   8.610   7.165
23706WAT     H171360   9.477   8.684   7.232
23706WAT     H271361   9.408   8.597   7.112
23707WAT      O71362   1.483   3.208   3.265
23707WAT     H171363   1.530   3.271   3.203
23707WAT     H271364   1.449   3.258   3.345
23708WAT      O71365   1.439   4.665   8.573
23708WAT     H171366   1.356   4.718   8.560
23708WAT     H271367   1.472   4.677   8.667
23709WAT      O71368   5.300   6.924   6.592
23709WAT     H171369   5.243   6.843   6.600
23709WAT     H271370   5.332   6.953   6.682
23710WAT      O71371   9.667   5.008   3.484
23710WAT     H171372   9.641   4.950   3.407
23710WAT     H271373   9.706   4.952   3.556
23711WAT      O71374   4.701   7.036   9.060
23711WAT     H171375   4.685   7.135   9.070
23711WAT     H271376   4.680   6.991   9.146
23712WAT      O71377   3.687   0.975   8.256
23712WAT     H171378   3.654   0.892   8.212
23712WAT     H271379   3.610   1.037   8.272
23713WAT      O71380   8.227   5.287   3.570
23713WAT     H171381   8.176   5.236   3.640
23713WAT     H271382   8.258   5.374   3.609
23714WAT      O71383   1.147   9.142   1.401
23714WAT     H171384   1.145   9.227   1.347
23714WAT     H271385   1.237   9.099   1.391
23715WAT      O71386   8.707   7.883   3.455
23715WAT     H171387   8.622   7.872   3.405
23715WAT     H271388   8.695   7.951   3.528
23716WAT      O71389   1.589   9.692   0.523
23716WAT     H171390   1.662   9.736   0.469
23716WAT     H271391   1.631   9.640   0.598
23717WAT      O71392   9.554   1.363   6.915
23717WAT     H171393   9.547   1.317   7.003
23717WAT     H271394   9.463   1.377   6.877
23718WAT      O71395   1.669   7.269   4.266
23718WAT     H171396   1.629   7.188   4.310
23718WAT     H271397   1.641   7.272   4.170
23719WAT      O71398   0.797   3.342   8.097
23719WAT     H171399   0.781   3.294   8.010
23719WAT     H271400   0.714   3.390   8.125
23720WAT      O71401   7.611   9.518   9.668
23720WAT     H171402   7.554   9.574   9.728
23720WAT     H271403   7.555   9.481   9.594
23721WAT      O71404   2.184   9.248   1.656
23721WAT     H171405   2.241   9.250   1.738
23721WAT     H271406   2.154   9.155   1.637
23722WAT      O71407   9.472   4.193   8.562
23722WAT     H171408   9.384   4.231   8.533
23722WAT     H271409   9.516   4.255   8.627
23723WAT      O71410   9.328   8.168   6.706
23723WAT     H171411   9.426   8.153   6.723
23723WAT     H271412   9.275   8.116   6.772
23724WAT      O71413   7.089   0.356   6.380
23724WAT     H171414   7.097   0.271   6.327
23724WAT     H271415   7.097   0.336   6.478
23725WAT      O71416   1.311   3.391   8.308
23725WAT     H171417   1.289   3.302   8.347
23725WAT     H271418   1.348   3.379   8.216
23726WAT      O71419   1.526   4.749   8.305
23726WAT     H171420   1.529   4.657   8.266
23726WAT     H271421   1.534   4.744   8.405
23727WAT      O71422   4.944   0.349   8.206
23727WAT     H171423   4.860   0.352   8.152
23727WAT     H271424   4.947   0.263   8.257
23728WAT      O71425   9.769   3.588   6.666
23728WAT     H171426   9.722   3.645   6.599
23728WAT     H271427   9.866   3.581   6.642
23729WAT      O71428   3.483   1.602   8.644
23729WAT     H171429   3.462   1.509   8.677
23729WAT     H271430   3.399   1.644   8.609
23730WAT      O71431   0.861   4.317   2.551
23730WAT     H171432   0.817   4.404   2.530
23730WAT     H271433   0.792   4.247   2.568
23731WAT      O71434   4.026   4.591   3.968
23731WAT     H171435   3.977   4.643   4.037
23731WAT     H271436   4.122   4.620   3.966
23732WAT      O71437   2.799   4.250   8.015
23732WAT     H171438   2.897   4.245   8.034
23732WAT     H271439   2.784   4.283   7.922
23733WAT      O71440   2.676   0.661   0.817
23733WAT     H171441   2.694   0.563   0.827
23733WAT     H271442   2.578   0.676   0.806
23734WAT      O71443   2.851   6.667   8.797
23734WAT     H171444   2.813   6.726   8.727
23734WAT     H271445   2.804   6.683   8.884
23735WAT      O71446   0.381   8.837   1.233
23735WAT     H171447   0.332   8.753   1.211
23735WAT     H271448   0.407   8.835   1.330
23736WAT      O71449   5.840   1.820   7.194
23736WAT     H171450   5.761   1.862   7.239
23736WAT     H271451   5.844   1.852   7.099
23737WAT      O71452   5.880   7.557   2.488
23737WAT     H171453   5.807   7.493   2.513
23737WAT     H271454   5.842   7.632   2.434
23738WAT      O71455   7.727   1.697   6.909
23738WAT     H171456   7.760   1.768   6.971
23738WAT     H271457   7.697   1.739   6.823
23739WAT      O71458   6.048   6.926   7.247
23739WAT     H171459   5.992   6.991   7.297
23739WAT     H271460   6.111   6.880   7.310
23740WAT      O71461   5.177   2.431   3.675
23740WAT     H171462   5.254   2.372   3.698
23740WAT     H271463   5.144   2.476   3.758
23741WAT      O71464   1.071   7.466   6.964
23741WAT     H171465   1.056   7.562   6.984
23741WAT     H271466   1.143   7.430   7.023
23742WAT      O71467   7.580   5.574   3.519
23742WAT     H171468   7.600   5.498   3.458
23742WAT     H271469   7.522   5.640   3.473
23743WAT      O71470   3.023   3.102   5.556
23743WAT     H171471   2.944   3.041   5.565
23743WAT     H271472   3.107   3.050   5.572
23744WAT      O71473   9.398  -0.003   9.345
23744WAT     H171474   9.310  -0.012   9.298
23744WAT     H271475   9.427   0.093   9.343
23745WAT      O71476   0.491   5.292   1.861
23745WAT     H171477   0.581   5.270   1.900
23745WAT     H271478   0.438   5.208   1.852
23746WAT      O71479   7.611   3.402   1.654
23746WAT     H171480   7.552   3.417   1.733
23746WAT     H271481   7.701   3.443   1.671
23747WAT      O71482   4.029   1.862   1.878
23747WAT     H171483   4.001   1.774   1.916
23747WAT     H271484   4.110   1.850   1.822
23748WAT      O71485   5.693   4.251   2.562
23748WAT     H171486   5.612   4.193   2.570
23748WAT     H271487   5.750   4.241   2.644
23749WAT      O71488   4.983   7.032   9.200
23749WAT     H171489   4.966   7.059   9.105
23749WAT     H271490   4.948   7.102   9.261
23750WAT      O71491   8.444   2.015   4.863
23750WAT     H171492   8.531   1.984   4.902
23750WAT     H271493   8.452   2.024   4.764
23751WAT      O71494   0.842   0.609   9.121
23751WAT     H171495   0.843   0.664   9.037
23751WAT     H271496   0.851   0.669   9.200
23752WAT      O71497   2.842   5.226   2.005
23752WAT     H171498   2.767   5.283   2.039
23752WAT     H271499   2.877   5.265   1.920
23753WAT      O71500   7.882   9.711   6.774
23753WAT     H171501   7.886   9.684   6.678
23753WAT     H271502   7.952   9.779   6.793
23754WAT      O71503   1.810   8.716   0.707
23754WAT     H171504   1.849   8.791   0.654
23754WAT     H271505   1.844   8.720   0.801
23755WAT      O71506   1.495   3.801   2.115
23755WAT     H171507   1.563   3.731   2.090
23755WAT     H271508   1.538   3.892   2.108
23756WAT      O71509   0.467   1.186   1.146
23756WAT     H171510   0.439   1.090   1.154
23756WAT     H271511   0.467   1.228   1.236
23757WAT      O71512   1.931   1.990   5.780
23757WAT     H171513   1.906   2.087   5.773
23757WAT     H271514   2.005   1.980   5.847
23758WAT      O71515   1.501   4.132   5.366
23758WAT     H171516   1.403   4.154   5.375
23758WAT     H271517   1.555   4.207   5.403
23759WAT      O71518   8.063   8.830   8.593
23759WAT     H171519   8.132   8.760   8.613
23759WAT     H271520   8.016   8.806   8.508
23760WAT      O71521   8.329   4.596   6.657
23760WAT     H171522   8.288   4.673   6.706
23760WAT     H271523   8.360   4.626   6.567
23761WAT      O71524   0.609   0.039   4.296
23761WAT     H171525   0.632   0.005   4.388
23761WAT     H271526   0.603  -0.039   4.233
23762WAT      O71527   9.878   4.129   9.481
23762WAT     H171528   9.903   4.032   9.478
23762WAT     H271529   9.895   4.165   9.572
23763WAT      O71530   0.525   4.053   4.698
23763WAT     H171531   0.429   4.026   4.688
23763WAT     H271532   0.534   4.116   4.775
23764WAT      O71533   2.096   7.085   3.909
23764WAT     H171534   2.110   7.164   3.970
23764WAT     H271535   2.081   7.117   3.816
23765WAT      O71536   2.352   4.604   1.999
23765WAT     H171537   2.421   4.641   1.937
23765WAT     H271538   2.261   4.620   1.961
23766WAT      O71539   4.902   6.198   2.563
23766WAT     H171540   4.941   6.108   2.544
23766WAT     H271541   4.962   6.246   2.628
23767WAT      O71542   9.142   4.430   6.155
23767WAT     H171543   9.126   4.396   6.247
23767WAT     H271544   9.231   4.475   6.151
23768WAT      O71545   1.844   9.225   8.894
23768WAT     H171546   1.776   9.230   8.967
23768WAT     H271547   1.913   9.296   8.906
23769WAT      O71548   8.224   3.079   5.257
23769WAT     H171549   8.189   3.035   5.339
23769WAT     H271550   8.201   3.177   5.259
23770WAT      O71551   7.854   8.408   2.473
23770WAT     H171552   7.881   8.455   2.557
23770WAT     H271553   7.756   8.391   2.475
23771WAT      O71554   5.435   0.984   4.397
23771WAT     H171555   5.409   0.888   4.401
23771WAT     H271556   5.396   1.032   4.475
23772WAT      O71557   8.450   1.415   5.431
23772WAT     H171558   8.547   1.438   5.440
23772WAT     H271559   8.428   1.398   5.335
23773WAT      O71560   9.148   1.527   5.525
23773WAT     H171561   9.241   1.552   5.497
23773WAT     H271562   9.093   1.610   5.538
23774WAT      O71563   7.166   9.634   9.232
23774WAT     H171564   7.111   9.714   9.256
23774WAT     H271565   7.145   9.606   9.139
23775WAT      O71566   4.226   6.273   0.827
23775WAT     H171567   4.309   6.224   0.853
23775WAT     H271568   4.235   6.369   0.853
23776WAT      O71569   9.633   7.866   6.188
23776WAT     H171570   9.625   7.788   6.127
23776WAT     H271571   9.635   7.951   6.134
23777WAT      O71572   0.020   5.962   4.550
23777WAT     H171573   0.069   5.876   4.561
23777WAT     H271574   0.053   6.009   4.468
23778WAT      O71575   3.203   0.967   7.378
23778WAT     H171576   3.270   1.004   7.314
23778WAT     H271577   3.156   0.890   7.335
23779WAT      O71578   0.448   0.293   0.714
23779WAT     H171579   0.433   0.200   0.681
23779WAT     H271580   0.481   0.290   0.808
23780WAT      O71581   9.092   4.891   2.433
23780WAT     H171582   9.153   4.968   2.417
23780WAT     H271583   9.107   4.855   2.525
23781WAT      O71584   9.538   5.534   9.317
23781WAT     H171585   9.586   5.482   9.246
23781WAT     H271586   9.473   5.474   9.364
23782WAT      O71587   9.831   9.015   1.153
23782WAT     H171588   9.908   8.966   1.114
23782WAT     H271589   9.822   8.991   1.250
23783WAT      O71590   3.281   0.914   3.163
23783WAT     H171591   3.226   0.971   3.223
23783WAT     H271592   3.336   0.850   3.217
23784WAT      O71593   2.110   4.822   6.478
23784WAT     H171594   2.080   4.897   6.418
23784WAT     H271595   2.042   4.749   6.475
23785WAT      O71596   9.120   1.054   2.350
23785WAT     H171597   9.046   1.115   2.379
23785WAT     H271598   9.109   1.032   2.253
23786WAT      O71599   0.634   9.677   6.141
23786WAT     H171600   0.568   9.737   6.097
23786WAT     H271601   0.603   9.582   6.135
23787WAT      O71602   6.200   3.176   0.708
23787WAT     H171603   6.120   3.214   0.753
23787WAT     H271604   6.273   3.162   0.776
23788WAT      O71605   8.431   8.434   5.200
23788WAT     H171606   8.456   8.337   5.200
23788WAT     H271607   8.511   8.490   5.221
23789WAT      O71608   0.188   7.887   7.575
23789WAT     H171609   0.213   7.980   7.546
23789WAT     H271610   0.102   7.891   7.626
23790WAT      O71611   3.618   7.232   0.645
23790WAT     H171612   3.649   7.139   0.623
23790WAT     H271613   3.519   7.237   0.634
23791WAT      O71614   3.869   6.047   0.636
23791WAT     H171615   3.967   6.067   0.637
23791WAT     H271616   3.840   6.031   0.542
23792WAT      O71617   8.940   2.431   6.215
23792WAT     H171618   9.004   2.502   6.245
23792WAT     H271619   8.942   2.425   6.115
23793WAT      O71620   9.048   7.785   3.664
23793WAT     H171621   9.018   7.867   3.712
23793WAT     H271622   9.131   7.805   3.612
23794WAT      O71623   5.712   7.657   8.676
23794WAT     H171624   5.736   7.560   8.673
23794WAT     H271625   5.787   7.709   8.716
23795WAT      O71626   7.013   5.117   6.276
23795WAT     H171627   7.008   5.018   6.290
23795WAT     H271628   7.097   5.139   6.225
23796WAT      O71629   4.507   8.232   9.865
23796WAT     H171630   4.476   8.256   9.773
23796WAT     H271631   4.568   8.303   9.899
23797WAT      O71632   1.847   5.206   6.641
23797WAT     H171633   1.829   5.187   6.544
23797WAT     H271634   1.788   5.148   6.698
23798WAT      O71635   4.970   8.636   6.383
23798WAT     H171636   4.898   8.575   6.417
23798WAT     H271637   4.989   8.706   6.452
23799WAT      O71638   8.393   5.447   5.038
23799WAT     H171639   8.403   5.347   5.040
23799WAT     H271640   8.316   5.474   5.095
23800WAT      O71641   2.533   7.777   4.904
23800WAT     H171642   2.601   7.720   4.858
23800WAT     H271643   2.454   7.790   4.844
23801WAT      O71644   5.890   9.071   8.520
23801WAT     H171645   5.864   8.974   8.517
23801WAT     H271646   5.934   9.097   8.434
23802WAT      O71647   0.788   2.230   3.348
23802WAT     H171648   0.795   2.133   3.370
23802WAT     H271649   0.761   2.241   3.252
23803WAT      O71650   6.058   2.742   8.572
23803WAT     H171651   6.157   2.746   8.554
23803WAT     H271652   6.011   2.710   8.490
23804WAT      O71653   9.717   9.759   3.630
23804WAT     H171654   9.634   9.796   3.671
23804WAT     H271655   9.697   9.671   3.588
23805WAT      O71656   0.053   7.619   2.286
23805WAT     H171657  -0.002   7.544   2.248
23805WAT     H271658  -0.005   7.699   2.301
23806WAT      O71659   1.003   7.911   4.443
23806WAT     H171660   0.997   7.997   4.392
23806WAT     H271661   1.016   7.835   4.379
23807WAT      O71662   7.494   6.398   0.497
23807WAT     H171663   7.556   6.465   0.456
23807WAT     H271664   7.494   6.314   0.442
23808WAT      O71665   3.773   2.233   3.144
23808WAT     H171666   3.806   2.321   3.112
23808WAT     H271667   3.705   2.197   3.080
23809WAT      O71668   3.828   2.256   0.745
23809WAT     H171669   3.859   2.267   0.840
23809WAT     H271670   3.840   2.342   0.696
23810WAT      O71671   7.768   5.906   5.229
23810WAT     H171672   7.860   5.901   5.269
23810WAT     H271673   7.722   5.819   5.242
23811WAT      O71674   5.388   3.570   5.473
23811WAT     H171675   5.346   3.658   5.496
23811WAT     H271676   5.444   3.580   5.391
23812WAT      O71677   8.976   6.407   1.643
23812WAT     H171678   8.962   6.340   1.716
23812WAT     H271679   8.910   6.390   1.570
23813WAT      O71680   7.646   7.944   5.885
23813WAT     H171681   7.740   7.977   5.896
23813WAT     H271682   7.599   7.998   5.816
23814WAT      O71683   9.557   8.541   9.836
23814WAT     H171684   9.527   8.555   9.930
23814WAT     H271685   9.656   8.527   9.835
23815WAT      O71686   1.476   1.512   8.182
23815WAT     H171687   1.548   1.507   8.113
23815WAT     H271688   1.388   1.490   8.140
23816WAT      O71689   2.609   1.050   5.503
23816WAT     H171690   2.699   1.045   5.459
23816WAT     H271691   2.538   1.053   5.433
23817WAT      O71692   5.101   9.125   6.554
23817WAT     H171693   5.114   9.142   6.652
23817WAT     H271694   5.047   9.199   6.514
23818WAT      O71695   4.132   5.298   2.578
23818WAT     H171696   4.225   5.295   2.543
23818WAT     H271697   4.080   5.369   2.528
23819WAT      O71698   5.058   0.894   8.642
23819WAT     H171699   5.054   0.795   8.629
23819WAT     H271700   5.153   0.925   8.632
23820WAT      O71701   8.648   7.125   5.065
23820WAT     H171702   8.552   7.156   5.066
23820WAT     H271703   8.658   7.046   5.125
23821WAT      O71704   3.066   3.936   3.154
23821WAT     H171705   3.119   4.015   3.123
23821WAT     H271706   3.076   3.926   3.253
23822WAT      O71707   7.372   4.227   1.042
23822WAT     H171708   7.328   4.297   0.988
23822WAT     H271709   7.316   4.144   1.042
23823WAT      O71710   9.045   8.971   1.493
23823WAT     H171711   9.089   9.044   1.441
23823WAT     H271712   8.947   8.991   1.501
23824WAT      O71713   4.111   4.391   2.618
23824WAT     H171714   4.074   4.321   2.557
23824WAT     H271715   4.141   4.349   2.703
23825WAT      O71716   4.599   5.645   1.916
23825WAT     H171717   4.528   5.576   1.930
23825WAT     H271718   4.671   5.606   1.859
23826WAT      O71719   1.875   2.037   7.057
23826WAT     H171720   1.793   2.061   7.109
23826WAT     H271721   1.956   2.043   7.116
23827WAT      O71722   8.384   2.869   0.258
23827WAT     H171723   8.348   2.960   0.278
23827WAT     H271724   8.320   2.800   0.293
23828WAT      O71725   9.008   3.337   6.697
23828WAT     H171726   8.916   3.322   6.734
23828WAT     H271727   9.068   3.263   6.726
23829WAT      O71728   1.153   8.076   6.416
23829WAT     H171729   1.062   8.090   6.455
23829WAT     H271730   1.202   8.007   6.469
23830WAT      O71731   2.495   4.678   7.608
23830WAT     H171732   2.457   4.605   7.552
23830WAT     H271733   2.428   4.706   7.677
23831WAT      O71734   5.862   4.920   8.939
23831WAT     H171735   5.895   4.933   9.032
23831WAT     H271736   5.920   4.971   8.875
23832WAT      O71737   6.955   4.254   0.934
23832WAT     H171738   6.949   4.288   0.840
23832WAT     H271739   7.025   4.182   0.940
23833WAT      O71740   1.475   9.236   2.634
23833WAT     H171741   1.444   9.190   2.552
23833WAT     H271742   1.467   9.174   2.712
23834WAT      O71743   4.875   1.941   3.840
23834WAT     H171744   4.932   1.937   3.758
23834WAT     H271745   4.911   1.879   3.909
23835WAT      O71746   1.203   1.111   7.620
23835WAT     H171747   1.300   1.128   7.602
23835WAT     H271748   1.156   1.093   7.533
23836WAT      O71749   0.653   0.038   2.886
23836WAT     H171750   0.658   0.109   2.957
23836WAT     H271751   0.736   0.041   2.830
23837WAT      O71752   4.887   8.969   0.289
23837WAT     H171753   4.857   8.880   0.323
23837WAT     H271754   4.987   8.970   0.280
23838WAT      O71755   2.187   5.611   8.331
23838WAT     H171756   2.118   5.685   8.328
23838WAT     H271757   2.203   5.578   8.238
23839WAT      O71758   9.154   2.047   6.017
23839WAT     H171759   9.130   2.063   5.921
23839WAT     H271760   9.073   2.017   6.067
23840WAT      O71761   5.530   1.129   0.655
23840WAT     H171762   5.605   1.161   0.714
23840WAT     H271763   5.567   1.070   0.583
23841WAT      O71764   6.822   2.016   8.646
23841WAT     H171765   6.795   2.110   8.666
23841WAT     H271766   6.852   2.009   8.551
23842WAT      O71767   8.006   2.207   7.821
23842WAT     H171768   8.055   2.231   7.905
23842WAT     H271769   8.071   2.185   7.749
23843WAT      O71770   3.920   1.774   1.585
23843WAT     H171771   3.991   1.719   1.630
23843WAT     H271772   3.837   1.773   1.641
23844WAT      O71773   2.636   8.271   5.980
23844WAT     H171774   2.628   8.300   5.885
23844WAT     H271775   2.731   8.246   5.999
23845WAT      O71776   9.354   7.367   3.938
23845WAT     H171777   9.336   7.329   3.847
23845WAT     H271778   9.267   7.392   3.981
23846WAT      O71779   5.340   9.142   4.103
23846WAT     H171780   5.400   9.075   4.147
23846WAT     H271781   5.349   9.230   4.151
23847WAT      O71782   3.649   2.824   1.187
23847WAT     H171783   3.712   2.791   1.258
23847WAT     H271784   3.563   2.851   1.230
23848WAT      O71785   5.309   8.338   5.291
23848WAT     H171786   5.390   8.281   5.296
23848WAT     H271787   5.267   8.346   5.382
23849WAT      O71788   4.453   7.037   7.079
23849WAT     H171789   4.357   7.064   7.073
23849WAT     H271790   4.459   6.939   7.100
23850WAT      O71791   0.510   6.594   9.272
23850WAT     H171792   0.598   6.559   9.238
23850WAT     H271793   0.459   6.519   9.314
23851WAT      O71794   3.639   9.708   0.287
23851WAT     H171795   3.705   9.664   0.348
23851WAT     H271796   3.654   9.807   0.288
23852WAT      O71797   4.029   5.761   0.145
23852WAT     H171798   3.944   5.713   0.167
23852WAT     H271799   4.009   5.835   0.080
23853WAT      O71800   6.803   9.128   6.369
23853WAT     H171801   6.790   9.200   6.301
23853WAT     H271802   6.847   9.166   6.450
23854WAT      O71803   2.057   9.023   8.123
23854WAT     H171804   2.086   9.089   8.193
23854WAT     H271805   2.109   9.039   8.039
23855WAT      O71806   8.585   9.687   3.054
23855WAT     H171807   8.525   9.726   2.984
23855WAT     H271808   8.658   9.752   3.076
23856WAT      O71809   4.246   9.515   8.104
23856WAT     H171810   4.200   9.533   8.191
23856WAT     H271811   4.182   9.525   8.029
23857WAT      O71812   6.543   6.914   2.482
23857WAT     H171813   6.499   6.917   2.572
23857WAT     H271814   6.488   6.965   2.416
23858WAT      O71815   6.410   7.755   9.448
23858WAT     H171816   6.424   7.663   9.411
23858WAT     H271817   6.352   7.808   9.386
23859WAT      O71818   7.360   7.389   5.606
23859WAT     H171819   7.403   7.478   5.591
23859WAT     H271820   7.403   7.321   5.547
23860WAT      O71821   0.138   9.360   8.107
23860WAT     H171822   0.081   9.284   8.138
23860WAT     H271823   0.232   9.346   8.138
23861WAT      O71824   6.006   7.322   4.670
23861WAT     H171825   5.906   7.315   4.667
23861WAT     H271826   6.034   7.412   4.637
23862WAT      O71827   4.546   8.427   7.497
23862WAT     H171828   4.561   8.396   7.403
23862WAT     H271829   4.467   8.489   7.499
23863WAT      O71830   5.827   3.449   5.510
23863WAT     H171831   5.842   3.449   5.411
23863WAT     H271832   5.839   3.541   5.546
23864WAT      O71833   6.459   5.263   3.805
23864WAT     H171834   6.471   5.234   3.711
23864WAT     H271835   6.532   5.224   3.861
23865WAT      O71836   2.346   2.722   0.845
23865WAT     H171837   2.268   2.708   0.784
23865WAT     H271838   2.314   2.752   0.935
23866WAT      O71839   4.384   6.650   5.072
23866WAT     H171840   4.358   6.556   5.091
23866WAT     H271841   4.309   6.697   5.026
23867WAT      O71842   0.112   1.415   3.637
23867WAT     H171843   0.027   1.461   3.663
23867WAT     H271844   0.090   1.335   3.580
23868WAT      O71845   3.989   1.251   3.918
23868WAT     H171846   4.059   1.248   3.847
23868WAT     H271847   4.019   1.311   3.992
23869WAT      O71848   2.037   6.543   0.470
23869WAT     H171849   2.125   6.497   0.471
23869WAT     H271850   1.970   6.488   0.520
23870WAT      O71851   8.681   6.224   5.914
23870WAT     H171852   8.746   6.290   5.878
23870WAT     H271853   8.730   6.148   5.957
23871WAT      O71854   9.573   8.493   2.821
23871WAT     H171855   9.622   8.540   2.748
23871WAT     H271856   9.548   8.559   2.892
23872WAT      O71857   7.685   2.125   5.679
23872WAT     H171858   7.635   2.038   5.682
23872WAT     H271859   7.669   2.170   5.591
23873WAT      O71860   7.057   8.977   3.343
23873WAT     H171861   7.134   8.990   3.281
23873WAT     H271862   7.091   8.966   3.436
23874WAT      O71863   2.899   0.711   4.949
23874WAT     H171864   2.940   0.797   4.919
23874WAT     H271865   2.951   0.674   5.026
23875WAT      O71866   7.292   5.212   0.601
23875WAT     H171867   7.312   5.290   0.541
23875WAT     H271868   7.266   5.133   0.546
23876WAT      O71869   2.451   6.265   9.574
23876WAT     H171870   2.534   6.210   9.563
23876WAT     H271871   2.391   6.252   9.495
23877WAT      O71872   3.273   1.679   9.348
23877WAT     H171873   3.364   1.637   9.341
23877WAT     H271874   3.210   1.632   9.286
23878WAT      O71875   0.035   2.785   0.535
23878WAT     H171876   0.049   2.874   0.491
23878WAT     H271877  -0.046   2.790   0.593
23879WAT      O71878   4.204   2.067   5.945
23879WAT     H171879   4.234   2.076   6.040
23879WAT     H271880   4.161   2.152   5.915
23880WAT      O71881   2.502   6.592   3.032
23880WAT     H171882   2.554   6.528   3.088
23880WAT     H271883   2.540   6.684   3.043
23881WAT      O71884   1.785   9.411   5.557
23881WAT     H171885   1.688   9.426   5.538
23881WAT     H271886   1.838   9.486   5.518
23882WAT      O71887   4.792   8.182   8.226
23882WAT     H171888   4.860   8.109   8.231
23882WAT     H271889   4.793   8.235   8.311
23883WAT      O71890   8.474   7.200   6.320
23883WAT     H171891   8.443   7.294   6.336
23883WAT     H271892   8.394   7.143   6.299
23884WAT      O71893   9.183   0.402   2.845
23884WAT     H171894   9.217   0.428   2.755
23884WAT     H271895   9.238   0.327   2.882
23885WAT      O71896   7.543   6.279   2.364
23885WAT     H171897   7.463   6.260   2.421
23885WAT     H271898   7.565   6.376   2.368
23886WAT      O71899   7.588   3.237   2.369
23886WAT     H171900   7.596   3.335   2.385
23886WAT     H271901   7.580   3.190   2.457
23887WAT      O71902   1.518   1.122   3.602
23887WAT     H171903   1.488   1.077   3.518
23887WAT     H271904   1.441   1.172   3.642
23888WAT      O71905   9.056   4.446   1.142
23888WAT     H171906   9.093   4.367   1.190
23888WAT     H271907   8.968   4.472   1.184
23889WAT      O71908   7.627   8.364   0.869
23889WAT     H171909   7.584   8.453   0.852
23889WAT     H271910   7.623   8.309   0.785
23890WAT      O71911   3.983   6.643   9.514
23890WAT     H171912   3.922   6.702   9.568
23890WAT     H271913   3.987   6.552   9.556
23891WAT      O71914   8.673   5.097   5.421
23891WAT     H171915   8.663   5.031   5.496
23891WAT     H271916   8.744   5.066   5.358
23892WAT      O71917   0.743   7.270   5.218
23892WAT     H171918   0.782   7.189   5.260
23892WAT     H271919   0.703   7.246   5.130
23893WAT      O71920   2.090   2.544   8.168
23893WAT     H171921   2.119   2.639   8.153
23893WAT     H271922   1.991   2.536   8.153
23894WAT      O71923   9.023   5.062   9.583
23894WAT     H171924   9.092   5.132   9.599
23894WAT     H271925   9.068   4.975   9.563
23895WAT      O71926   1.405   5.875   9.145
23895WAT     H171927   1.482   5.914   9.095
23895WAT     H271928   1.319   5.910   9.107
23896WAT      O71929   3.485   9.590   3.677
23896WAT     H171930   3.421   9.642   3.734
23896WAT     H271931   3.436   9.514   3.634
23897WAT      O71932   7.113   6.036   3.142
23897WAT     H171933   7.171   6.095   3.197
23897WAT     H271934   7.130   6.054   3.045
23898WAT      O71935   0.645   4.080   6.951
23898WAT     H171936   0.547   4.097   6.949
23898WAT     H271937   0.662   3.982   6.957
23899WAT      O71938   2.035   7.283   0.572
23899WAT     H171939   2.058   7.358   0.510
23899WAT     H271940   2.039   7.197   0.522
23900WAT      O71941   6.662   9.798   7.422
23900WAT     H171942   6.687   9.731   7.352
23900WAT     H271943   6.684   9.890   7.389
23901WAT      O71944   1.054   2.970   1.853
23901WAT     H171945   1.012   3.005   1.769
23901WAT     H271946   0.999   2.999   1.932
23902WAT      O71947   7.072   7.481   5.949
23902WAT     H171948   7.040   7.387   5.951
23902WAT     H271949   7.167   7.483   5.916
23903WAT      O71950   4.461   1.701   9.140
23903WAT     H171951   4.473   1.757   9.222
23903WAT     H271952   4.417   1.614   9.165
23904WAT      O71953   0.684   9.222   1.882
23904WAT     H171954   0.623   9.158   1.928
23904WAT     H271955   0.747   9.172   1.822
23905WAT      O71956   6.643   2.331   5.004
23905WAT     H171957   6.543   2.325   5.006
23905WAT     H271958   6.682   2.239   5.000
23906WAT      O71959   2.446   3.261   4.626
23906WAT     H171960   2.385   3.292   4.553
23906WAT     H271961   2.467   3.164   4.612
23907WAT      O71962   5.910   4.129   1.981
23907WAT     H171963   6.000   4.124   1.937
23907WAT     H271964   5.884   4.224   1.996
23908WAT      O71965   5.254   8.798   3.130
23908WAT     H171966   5.240   8.745   3.213
23908WAT     H271967   5.206   8.754   3.054
23909WAT      O71968   0.217   6.150   4.860
23909WAT     H171969   0.300   6.112   4.900
23909WAT     H271970   0.146   6.080   4.856
23910WAT      O71971   1.571   8.418   3.476
23910WAT     H171972   1.519   8.333   3.464
23910WAT     H271973   1.593   8.457   3.387
23911WAT      O71974   7.680   4.528   3.939
23911WAT     H171975   7.661   4.557   4.033
23911WAT     H271976   7.635   4.591   3.876
23912WAT      O71977   8.058   3.442   2.615
23912WAT     H171978   8.047   3.421   2.713
23912WAT     H271979   8.150   3.477   2.599
23913WAT      O71980   5.277   8.829   9.454
23913WAT     H171981   5.351   8.791   9.399
23913WAT     H271982   5.310   8.908   9.506
23914WAT      O71983   2.296   8.566   5.910
23914WAT     H171984   2.285   8.499   5.982
23914WAT     H271985   2.384   8.613   5.922
23915WAT      O71986   7.088   0.451   2.370
23915WAT     H171987   7.151   0.493   2.305
23915WAT     H271988   7.100   0.492   2.460
23916WAT      O71989   2.630   1.188   4.448
23916WAT     H171990   2.538   1.210   4.415
23916WAT     H271991   2.698   1.224   4.384
23917WAT      O71992   1.753   5.675   3.315
23917WAT     H171993   1.805   5.705   3.395
23917WAT     H271994   1.662   5.646   3.343
23918WAT      O71995   3.439   7.156   9.178
23918WAT     H171996   3.375   7.094   9.134
23918WAT     H271997   3.417   7.164   9.275
23919WAT      O71998   6.387   3.683   1.506
23919WAT     H171999   6.463   3.672   1.442
23919WAT     H272000   6.409   3.756   1.571
23920WAT      O72001   4.650   6.272   8.774
23920WAT     H172002   4.588   6.204   8.735
23920WAT     H272003   4.636   6.360   8.728
23921WAT      O72004   3.711   1.843   2.585
23921WAT     H172005   3.741   1.749   2.574
23921WAT     H272006   3.710   1.889   2.495
23922WAT      O72007   2.287   9.511   5.259
23922WAT     H172008   2.322   9.529   5.351
23922WAT     H272009   2.277   9.598   5.210
23923WAT      O72010   6.104   0.063   4.644
23923WAT     H172011   6.136  -0.005   4.709
23923WAT     H272012   6.024   0.110   4.681
23924WAT      O72013   2.745   3.797   6.215
23924WAT     H172014   2.668   3.842   6.172
23924WAT     H272015   2.722   3.773   6.309
23925WAT      O72016   4.774   2.129   5.147
23925WAT     H172017   4.828   2.212   5.131
23925WAT     H272018   4.690   2.133   5.094
23926WAT      O72019   7.788   9.011   4.450
23926WAT     H172020   7.701   9.059   4.437
23926WAT     H272021   7.820   9.025   4.543
23927WAT      O72022   9.842   6.283   6.508
23927WAT     H172023   9.932   6.326   6.519
23927WAT     H272024   9.778   6.350   6.469
23928WAT      O72025   5.053   0.009   7.734
23928WAT     H172026   5.011   0.027   7.823
23928WAT     H272027   5.139  -0.040   7.748
23929WAT      O72028   0.873   3.956   5.950
23929WAT     H172029   0.897   3.918   5.861
23929WAT     H272030   0.775   3.949   5.964
23930WAT      O72031   6.563   2.992   3.995
23930WAT     H172032   6.517   3.078   3.974
23930WAT     H272033   6.650   2.987   3.947
23931WAT      O72034   6.551   0.668   1.757
23931WAT     H172035   6.569   0.583   1.707
23931WAT     H272036   6.637   0.713   1.779
23932WAT      O72037   0.823   7.318   4.114
23932WAT     H172038   0.897   7.369   4.071
23932WAT     H272039   0.765   7.381   4.166
23933WAT      O72040   1.387   1.239   1.102
23933WAT     H172041   1.346   1.325   1.132
23933WAT     H272042   1.454   1.209   1.170
23934WAT      O72043   1.213   4.137   3.504
23934WAT     H172044   1.283   4.096   3.563
23934WAT     H272045   1.123   4.107   3.534
23935WAT      O72046   0.444   1.199   9.741
23935WAT     H172047   0.410   1.161   9.828
23935WAT     H272048   0.538   1.231   9.754
23936WAT      O72049   0.283   9.792   2.088
23936WAT     H172050   0.370   9.842   2.086
23936WAT     H272051   0.209   9.856   2.107
23937WAT      O72052   4.454   3.594   0.436
23937WAT     H172053   4.387   3.552   0.375
23937WAT     H272054   4.413   3.606   0.526
23938WAT      O72055   0.920   7.388   8.557
23938WAT     H172056   0.874   7.325   8.494
23938WAT     H272057   0.943   7.472   8.509
23939WAT      O72058   0.828   6.487   4.860
23939WAT     H172059   0.774   6.405   4.838
23939WAT     H272060   0.769   6.553   4.907
23940WAT      O72061   7.785   5.417   7.289
23940WAT     H172062   7.869   5.471   7.289
23940WAT     H272063   7.795   5.339   7.350
23941WAT      O72064   7.749   6.356   1.998
23941WAT     H172065   7.798   6.293   2.058
23941WAT     H272066   7.806   6.437   1.980
23942WAT      O72067   2.897   4.885   8.069
23942WAT     H172068   2.862   4.817   8.133
23942WAT     H272069   2.901   4.845   7.977
23943WAT      O72070   2.311   5.551   4.948
23943WAT     H172071   2.370   5.477   4.914
23943WAT     H272072   2.334   5.571   5.043
23944WAT      O72073   5.766   6.292   2.889
23944WAT     H172074   5.811   6.381   2.885
23944WAT     H272075   5.714   6.277   2.805
23945WAT      O72076   2.230   1.152   2.452
23945WAT     H172077   2.322   1.125   2.423
23945WAT     H272078   2.163   1.115   2.388
23946WAT      O72079   1.898   3.225   6.372
23946WAT     H172080   1.988   3.184   6.357
23946WAT     H272081   1.853   3.240   6.283
23947WAT      O72082   5.558   3.919   9.072
23947WAT     H172083   5.492   3.993   9.086
23947WAT     H272084   5.550   3.852   9.145
23948WAT      O72085   1.014   4.413   5.553
23948WAT     H172086   0.988   4.415   5.457
23948WAT     H272087   1.062   4.497   5.577
23949WAT      O72088   5.327   1.712   1.863
23949WAT     H172089   5.335   1.750   1.771
23949WAT     H272090   5.309   1.786   1.928
23950WAT      O72091   1.180   5.106   1.706
23950WAT     H172092   1.214   5.049   1.632
23950WAT     H272093   1.233   5.191   1.711
23951WAT      O72094   3.353   5.579   2.717
23951WAT     H172095   3.436   5.544   2.674
23951WAT     H272096   3.373   5.607   2.811
23952WAT      O72097   2.228   9.368   8.450
23952WAT     H172098   2.268   9.450   8.410
23952WAT     H272099   2.298   9.319   8.503
23953WAT      O72100   1.125   0.283   1.352
23953WAT     H172101   1.065   0.283   1.271
23953WAT     H272102   1.205   0.226   1.334
23954WAT      O72103   7.122   2.203   3.486
23954WAT     H172104   7.073   2.163   3.564
23954WAT     H272105   7.103   2.149   3.404
23955WAT      O72106   2.377   8.522   3.217
23955WAT     H172107   2.452   8.480   3.268
23955WAT     H272108   2.311   8.452   3.191
23956WAT      O72109   6.842   8.080   9.364
23956WAT     H172110   6.775   8.010   9.338
23956WAT     H272111   6.829   8.105   9.460
23957WAT      O72112   4.507   5.431   9.638
23957WAT     H172113   4.538   5.392   9.724
23957WAT     H272114   4.572   5.408   9.565
23958WAT      O72115   3.132   5.221   3.061
23958WAT     H172116   3.083   5.267   2.988
23958WAT     H272117   3.068   5.196   3.134
23959WAT      O72118   5.685   7.196   8.305
23959WAT     H172119   5.773   7.183   8.352
23959WAT     H272120   5.700   7.250   8.222
23960WAT      O72121   8.991   0.755   9.023
23960WAT     H172122   8.926   0.706   9.081
23960WAT     H272123   8.943   0.828   8.973
23961WAT      O72124   8.439   8.865   6.324
23961WAT     H172125   8.525   8.814   6.316
23961WAT     H272126   8.454   8.947   6.379
23962WAT      O72127   9.456   6.701   3.681
23962WAT     H172128   9.536   6.656   3.640
23962WAT     H272129   9.381   6.700   3.615
23963WAT      O72130   9.186   6.202   5.116
23963WAT     H172131   9.201   6.258   5.034
23963WAT     H272132   9.251   6.230   5.187
23964WAT      O72133   6.860   4.698   0.208
23964WAT     H172134   6.835   4.607   0.240
23964WAT     H272135   6.933   4.690   0.140
23965WAT      O72136   8.304   0.217   7.715
23965WAT     H172137   8.263   0.208   7.805
23965WAT     H272138   8.250   0.166   7.648
23966WAT      O72139   4.294   3.217   5.375
23966WAT     H172140   4.297   3.299   5.433
23966WAT     H272141   4.385   3.200   5.337
23967WAT      O72142   2.320   4.046   2.474
23967WAT     H172143   2.238   3.999   2.506
23967WAT     H272144   2.372   4.080   2.552
23968WAT      O72145   2.767   2.467   5.101
23968WAT     H172146   2.679   2.498   5.136
23968WAT     H272147   2.756   2.435   5.006
23969WAT      O72148   7.774   2.247   8.971
23969WAT     H172149   7.705   2.175   8.969
23969WAT     H272150   7.732   2.334   8.997
23970WAT      O72151   5.548   0.790   8.980
23970WAT     H172152   5.578   0.722   9.048
23970WAT     H272153   5.450   0.807   8.992
23971WAT      O72154   1.442   4.352   0.174
23971WAT     H172155   1.475   4.301   0.094
23971WAT     H272156   1.344   4.372   0.162
23972WAT      O72157   5.767   8.242   0.205
23972WAT     H172158   5.773   8.156   0.257
23972WAT     H272159   5.815   8.314   0.254
23973WAT      O72160   9.268   8.673   9.695
23973WAT     H172161   9.259   8.582   9.654
23973WAT     H272162   9.195   8.686   9.762
23974WAT      O72163   8.796   8.605   5.455
23974WAT     H172164   8.754   8.578   5.542
23974WAT     H272165   8.840   8.694   5.466
23975WAT      O72166   4.444   1.344   8.328
23975WAT     H172167   4.432   1.391   8.416
23975WAT     H272168   4.459   1.247   8.345
23976WAT      O72169   2.111   7.580   4.825
23976WAT     H172170   2.078   7.674   4.827
23976WAT     H272171   2.101   7.543   4.732
23977WAT      O72172   3.456   3.075   0.201
23977WAT     H172173   3.556   3.070   0.207
23977WAT     H272174   3.430   3.152   0.143
23978WAT      O72175   6.925   9.428   5.701
23978WAT     H172176   7.008   9.484   5.705
23978WAT     H272177   6.845   9.488   5.695
23979WAT      O72178   2.260   1.567   2.969
23979WAT     H172179   2.195   1.636   2.938
23979WAT     H272180   2.343   1.573   2.914
23980WAT      O72181   2.934   7.322   9.837
23980WAT     H172182   2.902   7.372   9.918
23980WAT     H272183   3.032   7.304   9.847
23981WAT      O72184   1.425   7.141   7.441
23981WAT     H172185   1.366   7.128   7.362
23981WAT     H272186   1.511   7.183   7.413
23982WAT      O72187   7.172   0.413   5.674
23982WAT     H172188   7.100   0.384   5.611
23982WAT     H272189   7.256   0.362   5.654
23983WAT      O72190   7.009   3.326   7.344
23983WAT     H172191   7.033   3.326   7.441
23983WAT     H272192   6.985   3.418   7.315
23984WAT      O72193   0.958   1.900   3.037
23984WAT     H172194   0.985   1.966   3.107
23984WAT     H272195   0.859   1.908   3.021
23985WAT      O72196   1.474   8.246   1.616
23985WAT     H172197   1.448   8.150   1.601
23985WAT     H272198   1.412   8.305   1.566
23986WAT      O72199   4.216   8.836   5.703
23986WAT     H172200   4.267   8.922   5.708
23986WAT     H272201   4.140   8.839   5.768
23987WAT      O72202   3.439   1.582   1.504
23987WAT     H172203   3.419   1.635   1.586
23987WAT     H272204   3.456   1.644   1.428
23988WAT      O72205   0.578   9.832   8.125
23988WAT     H172206   0.531   9.745   8.113
23988WAT     H272207   0.517   9.897   8.170
23989WAT      O72208   9.709   7.662   6.558
23989WAT     H172209   9.762   7.690   6.477
23989WAT     H272210   9.726   7.566   6.577
23990WAT      O72211   4.564   6.772   0.139
23990WAT     H172212   4.505   6.740   0.066
23990WAT     H272213   4.648   6.811   0.101
23991WAT      O72214   6.752   6.165   5.045
23991WAT     H172215   6.736   6.259   5.076
23991WAT     H272216   6.694   6.102   5.097
23992WAT      O72217   6.959   8.746   3.261
23992WAT     H172218   7.000   8.829   3.298
23992WAT     H272219   6.947   8.756   3.162
23993WAT      O72220   7.382   6.611   8.505
23993WAT     H172221   7.324   6.541   8.464
23993WAT     H272222   7.347   6.702   8.479
23994WAT      O72223   8.047   3.123   4.187
23994WAT     H172224   8.005   3.110   4.277
23994WAT     H272225   7.998   3.068   4.120
23995WAT      O72226   0.429   4.229   0.402
23995WAT     H172227   0.486   4.237   0.484
23995WAT     H272228   0.408   4.132   0.386
23996WAT      O72229   6.671   3.799   7.012
23996WAT     H172230   6.628   3.889   7.020
23996WAT     H272231   6.602   3.728   7.024
23997WAT      O72232   8.756   0.822   4.227
23997WAT     H172233   8.757   0.723   4.215
23997WAT     H272234   8.668   0.859   4.195
23998WAT      O72235   3.749   1.442   6.729
23998WAT     H172236   3.740   1.420   6.632
23998WAT     H272237   3.832   1.400   6.765
23999WAT      O72238   9.469   4.851   3.944
23999WAT     H172239   9.548   4.793   3.966
23999WAT     H272240   9.403   4.847   4.018
24000WAT      O72241   5.768   6.027   7.562
24000WAT     H172242   5.845   6.036   7.624
24000WAT     H272243   5.797   6.049   7.469
24001WAT      O72244   0.375   1.198   4.436
24001WAT     H172245   0.433   1.255   4.379
24001WAT     H272246   0.281   1.231   4.433
24002WAT      O72247   0.412   2.774   3.852
24002WAT     H172248   0.350   2.849   3.828
24002WAT     H272249   0.384   2.733   3.938
24003WAT      O72250   0.603   1.929   0.456
24003WAT     H172251   0.531   1.863   0.438
24003WAT     H272252   0.631   1.923   0.552
24004WAT      O72253   2.826   5.649   4.139
24004WAT     H172254   2.784   5.728   4.185
24004WAT     H272255   2.925   5.659   4.141
24005WAT      O72256   4.935   9.590   3.594
24005WAT     H172257   4.856   9.547   3.638
24005WAT     H272258   5.005   9.611   3.663
24006WAT      O72259   4.632   9.475   7.914
24006WAT     H172260   4.719   9.440   7.877
24006WAT     H272261   4.568   9.490   7.839
24007WAT      O72262   0.241   2.656   5.450
24007WAT     H172263   0.249   2.604   5.365
24007WAT     H272264   0.252   2.594   5.528
24008WAT      O72265   9.014   7.157   5.236
24008WAT     H172266   9.032   7.158   5.138
24008WAT     H272267   9.100   7.144   5.285
24009WAT      O72268   6.898   3.805   9.429
24009WAT     H172269   6.823   3.791   9.365
24009WAT     H272270   6.865   3.790   9.523
24010WAT      O72271   1.202   2.797   0.695
24010WAT     H172272   1.251   2.729   0.749
24010WAT     H272273   1.127   2.752   0.645
24011WAT      O72274   3.723   2.460   2.711
24011WAT     H172275   3.766   2.370   2.711
24011WAT     H272276   3.792   2.530   2.731
24012WAT      O72277   4.263   5.661   6.731
24012WAT     H172278   4.320   5.741   6.751
24012WAT     H272279   4.294   5.583   6.785
24013WAT      O72280   5.395   9.649   5.704
24013WAT     H172281   5.418   9.665   5.800
24013WAT     H272282   5.475   9.615   5.656
24014WAT      O72283   1.399   5.681   6.927
24014WAT     H172284   1.483   5.641   6.892
24014WAT     H272285   1.407   5.694   7.026
24015WAT      O72286   9.627   4.136   4.613
24015WAT     H172287   9.573   4.212   4.651
24015WAT     H272288   9.717   4.169   4.586
24016WAT      O72289   2.284   3.231   6.838
24016WAT     H172290   2.228   3.296   6.890
24016WAT     H272291   2.265   3.241   6.741
24017WAT      O72292   3.665   3.140   6.359
24017WAT     H172293   3.710   3.154   6.447
24017WAT     H272294   3.569   3.170   6.366
24018WAT      O72295   6.060   8.137   2.021
24018WAT     H172296   6.112   8.215   1.987
24018WAT     H272297   5.997   8.168   2.093
24019WAT      O72298   2.081   4.068   4.289
24019WAT     H172299   2.154   4.002   4.305
24019WAT     H272300   2.120   4.157   4.266
24020WAT      O72301   6.612   3.199   7.266
24020WAT     H172302   6.582   3.140   7.191
24020WAT     H272303   6.676   3.267   7.231
24021WAT      O72304   2.366   1.043   5.383
24021WAT     H172305   2.348   1.132   5.341
24021WAT     H272306   2.289   1.017   5.442
24022WAT      O72307   6.170   9.482   5.781
24022WAT     H172308   6.252   9.510   5.731
24022WAT     H272309   6.127   9.562   5.822
24023WAT      O72310   8.361   3.984   0.263
24023WAT     H172311   8.271   3.996   0.306
24023WAT     H272312   8.426   3.948   0.330
24024WAT      O72313   6.585   3.817   7.944
24024WAT     H172314   6.557   3.725   7.967
24024WAT     H272315   6.683   3.818   7.923
24025WAT      O72316   8.323   6.222   5.537
24025WAT     H172317   8.402   6.180   5.581
24025WAT     H272318   8.351   6.265   5.451
24026WAT      O72319   3.818   5.591   1.676
24026WAT     H172320   3.731   5.602   1.724
24026WAT     H272321   3.830   5.495   1.650
24027WAT      O72322   6.115   9.379   2.245
24027WAT     H172323   6.167   9.350   2.164
24027WAT     H272324   6.165   9.451   2.292
24028WAT      O72325   1.464   2.239   5.108
24028WAT     H172326   1.398   2.261   5.180
24028WAT     H272327   1.415   2.213   5.025
24029WAT      O72328   3.661   0.916   2.291
24029WAT     H172329   3.638   0.923   2.388
24029WAT     H272330   3.580   0.889   2.239
24030WAT      O72331   9.541   0.630   2.655
24030WAT     H172332   9.583   0.641   2.745
24030WAT     H272333   9.494   0.543   2.650
24031WAT      O72334   7.144   2.529   8.437
24031WAT     H172335   7.166   2.461   8.366
24031WAT     H272336   7.062   2.500   8.486
24032WAT      O72337   5.518   9.424   0.796
24032WAT     H172338   5.513   9.428   0.696
24032WAT     H272339   5.560   9.507   0.830
24033WAT      O72340   2.669   0.201   8.772
24033WAT     H172341   2.688   0.294   8.742
24033WAT     H272342   2.590   0.164   8.723
24034WAT      O72343   9.467   6.544   0.985
24034WAT     H172344   9.481   6.553   0.886
24034WAT     H272345   9.431   6.453   1.005
24035WAT      O72346   4.243   9.447   1.203
24035WAT     H172347   4.219   9.494   1.288
24035WAT     H272348   4.342   9.452   1.188
24036WAT      O72349   5.483   7.348   3.426
24036WAT     H172350   5.483   7.444   3.399
24036WAT     H272351   5.435   7.338   3.513
24037WAT      O72352   7.011   7.953   7.269
24037WAT     H172353   7.038   7.921   7.360
24037WAT     H272354   7.091   7.954   7.209
24038WAT      O72355   4.971   4.654   7.334
24038WAT     H172356   4.970   4.561   7.372
24038WAT     H272357   5.057   4.669   7.285
24039WAT      O72358   6.744   2.724   4.150
24039WAT     H172359   6.814   2.674   4.202
24039WAT     H272360   6.668   2.663   4.130
24040WAT      O72361   8.161   3.720   9.357
24040WAT     H172362   8.242   3.677   9.316
24040WAT     H272363   8.186   3.765   9.443
24041WAT      O72364   0.179   4.680   4.429
24041WAT     H172365   0.185   4.778   4.447
24041WAT     H272366   0.151   4.665   4.334
24042WAT      O72367   3.626   6.878   3.399
24042WAT     H172368   3.561   6.807   3.426
24042WAT     H272369   3.661   6.858   3.308
24043WAT      O72370   4.509   0.098   7.761
24043WAT     H172371   4.588   0.048   7.725
24043WAT     H272372   4.476   0.054   7.844
24044WAT      O72373   7.218   0.694   8.951
24044WAT     H172374   7.210   0.750   8.869
24044WAT     H272375   7.178   0.743   9.029
24045WAT      O72376   4.671   0.726   6.386
24045WAT     H172377   4.757   0.772   6.364
24045WAT     H272378   4.662   0.719   6.486
24046WAT      O72379   3.627   3.323   5.157
24046WAT     H172380   3.538   3.347   5.119
24046WAT     H272381   3.690   3.400   5.145
24047WAT      O72382   9.142   7.736   2.797
24047WAT     H172383   9.140   7.748   2.698
24047WAT     H272384   9.122   7.823   2.841
24048WAT      O72385   4.423   5.534   1.513
24048WAT     H172386   4.391   5.467   1.580
24048WAT     H272387   4.521   5.549   1.525
24049WAT      O72388   2.882   8.571   1.569
24049WAT     H172389   2.830   8.601   1.489
24049WAT     H272390   2.875   8.472   1.579
24050WAT      O72391   8.774   0.218   0.737
24050WAT     H172392   8.801   0.274   0.815
24050WAT     H272393   8.819   0.253   0.654
24051WAT      O72394   6.989   6.708   8.006
24051WAT     H172395   6.960   6.797   8.041
24051WAT     H272396   7.074   6.681   8.051
24052WAT      O72397   8.027   5.844   1.550
24052WAT     H172398   8.083   5.769   1.587
24052WAT     H272399   7.947   5.805   1.504
24053WAT      O72400   2.541   9.223   2.461
24053WAT     H172401   2.495   9.135   2.448
24053WAT     H272402   2.595   9.244   2.379
24054WAT      O72403   6.973   3.065   9.772
24054WAT     H172404   6.937   3.158   9.770
24054WAT     H272405   6.911   3.005   9.823
24055WAT      O72406   6.973   9.801   4.646
24055WAT     H172407   7.055   9.745   4.657
24055WAT     H272408   6.919   9.797   4.730
24056WAT      O72409   6.878   1.109   2.912
24056WAT     H172410   6.843   1.143   2.999
24056WAT     H272411   6.933   1.027   2.928
24057WAT      O72412   6.600   4.730   9.670
24057WAT     H172413   6.529   4.665   9.642
24057WAT     H272414   6.677   4.723   9.607
24058WAT      O72415   3.805   5.680   7.833
24058WAT     H172416   3.821   5.667   7.735
24058WAT     H272417   3.778   5.775   7.850
24059WAT      O72418   1.328   7.747   4.629
24059WAT     H172419   1.238   7.785   4.650
24059WAT     H272420   1.355   7.772   4.537
24060WAT      O72421   6.491   2.866   9.865
24060WAT     H172422   6.524   2.777   9.895
24060WAT     H272423   6.493   2.871   9.766
24061WAT      O72424   2.213   0.399   0.564
24061WAT     H172425   2.262   0.324   0.519
24061WAT     H272426   2.210   0.383   0.663
24062WAT      O72427   5.350   5.928   9.249
24062WAT     H172428   5.339   5.936   9.348
24062WAT     H272429   5.383   6.015   9.212
24063WAT      O72430   2.740   3.973   4.441
24063WAT     H172431   2.703   3.881   4.423
24063WAT     H272432   2.799   3.970   4.522
24064WAT      O72433   5.000   7.971   9.612
24064WAT     H172434   4.971   7.875   9.612
24064WAT     H272435   5.076   7.983   9.548
24065WAT      O72436   9.153   8.921   1.755
24065WAT     H172437   9.114   8.927   1.663
24065WAT     H272438   9.084   8.883   1.817
24066WAT      O72439   4.655   0.086   3.289
24066WAT     H172440   4.741   0.116   3.331
24066WAT     H272441   4.646   0.127   3.199
24067WAT      O72442   8.608   7.080   0.569
24067WAT     H172443   8.614   6.981   0.564
24067WAT     H272444   8.592   7.108   0.664
24068WAT      O72445   6.159   1.188   4.852
24068WAT     H172446   6.143   1.213   4.947
24068WAT     H272447   6.213   1.259   4.807
24069WAT      O72448   0.408   9.058   6.053
24069WAT     H172449   0.410   9.006   6.138
24069WAT     H272450   0.329   9.120   6.054
24070WAT      O72451   8.714   4.401   3.139
24070WAT     H172452   8.769   4.324   3.169
24070WAT     H272453   8.663   4.438   3.217
24071WAT      O72454   1.188   1.444   8.927
24071WAT     H172455   1.149   1.352   8.923
24071WAT     H272456   1.170   1.491   8.841
24072WAT      O72457   5.474   4.015   7.353
24072WAT     H172458   5.400   3.994   7.288
24072WAT     H272459   5.562   4.002   7.308
24073WAT      O72460   8.950   7.860   3.307
24073WAT     H172461   8.983   7.766   3.299
24073WAT     H272462   8.863   7.860   3.357
24074WAT      O72463   5.006   6.038   7.253
24074WAT     H172464   4.908   6.058   7.260
24074WAT     H272465   5.035   5.985   7.333
24075WAT      O72466   2.628   7.712   3.205
24075WAT     H172467   2.530   7.719   3.226
24075WAT     H272468   2.679   7.697   3.289
24076WAT      O72469   9.284   9.201   5.638
24076WAT     H172470   9.268   9.194   5.540
24076WAT     H272471   9.244   9.122   5.684
24077WAT      O72472   3.381   6.932   0.518
24077WAT     H172473   3.427   6.888   0.440
24077WAT     H272474   3.433   6.913   0.602
24078WAT      O72475   7.566   8.858   2.811
24078WAT     H172476   7.633   8.919   2.853
24078WAT     H272477   7.488   8.847   2.873
24079WAT      O72478   7.733   8.515   3.926
24079WAT     H172479   7.655   8.477   3.877
24079WAT     H272480   7.767   8.448   3.992
24080WAT      O72481   7.668   0.477   9.662
24080WAT     H172482   7.723   0.394   9.674
24080WAT     H272483   7.596   0.479   9.732
24081WAT      O72484   1.939   4.106   7.704
24081WAT     H172485   1.939   4.021   7.756
24081WAT     H272486   1.894   4.092   7.616
24082WAT      O72487   6.288   1.917   6.084
24082WAT     H172488   6.222   1.895   6.156
24082WAT     H272489   6.281   2.014   6.062
24083WAT      O72490   0.794   4.637   2.256
24083WAT     H172491   0.733   4.583   2.314
24083WAT     H272492   0.865   4.577   2.219
24084WAT      O72493   7.842   3.536   0.934
24084WAT     H172494   7.780   3.612   0.917
24084WAT     H272495   7.844   3.476   0.854
24085WAT      O72496   9.482   7.687   3.227
24085WAT     H172497   9.409   7.679   3.294
24085WAT     H272498   9.459   7.758   3.160
24086WAT      O72499   0.734   5.295   8.120
24086WAT     H172500   0.720   5.336   8.030
24086WAT     H272501   0.648   5.297   8.171
24087WAT      O72502   3.985   4.740   0.827
24087WAT     H172503   4.043   4.706   0.753
24087WAT     H272504   4.038   4.743   0.912
24088WAT      O72505   9.158   9.308   3.600
24088WAT     H172506   9.074   9.254   3.601
24088WAT     H272507   9.193   9.318   3.694
24089WAT      O72508   1.122   8.070   2.772
24089WAT     H172509   1.023   8.084   2.779
24089WAT     H272510   1.169   8.146   2.815
24090WAT      O72511   0.776   9.269   6.353
24090WAT     H172512   0.816   9.182   6.326
24090WAT     H272513   0.729   9.310   6.274
24091WAT      O72514   2.509   6.914   9.779
24091WAT     H172515   2.493   6.827   9.732
24091WAT     H272516   2.426   6.941   9.827
24092WAT      O72517   0.716   4.272   1.935
24092WAT     H172518   0.632   4.223   1.958
24092WAT     H272519   0.783   4.259   2.008
24093WAT      O72520   6.173   2.964   0.541
24093WAT     H172521   6.091   2.937   0.591
24093WAT     H272522   6.212   3.047   0.583
24094WAT      O72523   7.228   4.381   3.483
24094WAT     H172524   7.185   4.407   3.396
24094WAT     H272525   7.181   4.302   3.522
24095WAT      O72526   3.336   2.494   2.087
24095WAT     H172527   3.373   2.543   2.008
24095WAT     H272528   3.262   2.434   2.057
24096WAT      O72529   5.512   1.188   8.310
24096WAT     H172530   5.572   1.163   8.386
24096WAT     H272531   5.529   1.283   8.284
24097WAT      O72532   6.701   0.961   2.241
24097WAT     H172533   6.608   0.968   2.278
24097WAT     H272534   6.707   1.015   2.157
24098WAT      O72535   6.681   2.159   1.273
24098WAT     H172536   6.752   2.166   1.203
24098WAT     H272537   6.657   2.251   1.305
24099WAT      O72538   9.243   1.966   1.390
24099WAT     H172539   9.274   2.060   1.378
24099WAT     H272540   9.317   1.910   1.427
24100WAT      O72541   4.575   5.910   1.946
24100WAT     H172542   4.588   5.811   1.953
24100WAT     H272543   4.522   5.932   1.865
24101WAT      O72544   6.874   5.141   9.254
24101WAT     H172545   6.824   5.058   9.278
24101WAT     H272546   6.888   5.144   9.155
24102WAT      O72547   4.713   3.065   4.561
24102WAT     H172548   4.802   3.047   4.519
24102WAT     H272549   4.693   3.163   4.556
24103WAT      O72550   8.204   1.749   1.691
24103WAT     H172551   8.280   1.804   1.726
24103WAT     H272552   8.230   1.652   1.690
24104WAT      O72553   4.160   1.263   2.697
24104WAT     H172554   4.150   1.191   2.766
24104WAT     H272555   4.228   1.235   2.629
24105WAT      O72556   4.760   1.017   4.022
24105WAT     H172557   4.828   0.963   3.974
24105WAT     H272558   4.727   1.091   3.964
24106WAT      O72559   7.089   5.168   7.053
24106WAT     H172560   7.086   5.240   6.984
24106WAT     H272561   7.041   5.199   7.136
24107WAT      O72562   9.512   2.799   9.585
24107WAT     H172563   9.526   2.886   9.539
24107WAT     H272564   9.499   2.727   9.517
24108WAT      O72565   2.790   9.607   0.627
24108WAT     H172566   2.765   9.702   0.609
24108WAT     H272567   2.863   9.580   0.564
24109WAT      O72568   9.440   1.904   8.719
24109WAT     H172569   9.398   1.994   8.720
24109WAT     H272570   9.477   1.883   8.809
24110WAT      O72571   3.779   7.530   2.329
24110WAT     H172572   3.774   7.597   2.256
24110WAT     H272573   3.772   7.438   2.290
24111WAT      O72574   0.688   4.749   7.517
24111WAT     H172575   0.714   4.665   7.469
24111WAT     H272576   0.603   4.785   7.477
24112WAT      O72577   9.298   4.212   2.182
24112WAT     H172578   9.277   4.285   2.248
24112WAT     H272579   9.387   4.229   2.140
24113WAT      O72580   8.494   1.277   2.086
24113WAT     H172581   8.423   1.343   2.060
24113WAT     H272582   8.517   1.289   2.183
24114WAT      O72583   6.571   8.925   7.405
24114WAT     H172584   6.598   9.009   7.357
24114WAT     H272585   6.474   8.908   7.389
24115WAT      O72586   2.989   3.765   1.170
24115WAT     H172587   2.893   3.736   1.169
24115WAT     H272588   3.045   3.689   1.203
24116WAT      O72589   8.737   4.684   5.371
24116WAT     H172590   8.803   4.667   5.298
24116WAT     H272591   8.783   4.678   5.460
24117WAT      O72592   2.006   8.431   0.822
24117WAT     H172593   2.036   8.433   0.726
24117WAT     H272594   2.065   8.489   0.877
24118WAT      O72595   3.008   9.625   5.522
24118WAT     H172596   2.957   9.614   5.437
24118WAT     H272597   2.946   9.615   5.600
24119WAT      O72598   4.424   1.804   2.965
24119WAT     H172599   4.424   1.742   2.886
24119WAT     H272600   4.356   1.876   2.951
24120WAT      O72601   3.232   6.987   2.592
24120WAT     H172602   3.257   7.084   2.596
24120WAT     H272603   3.161   6.974   2.523
24121WAT      O72604   6.590   1.987   8.292
24121WAT     H172605   6.583   1.984   8.192
24121WAT     H272606   6.511   1.941   8.332
24122WAT      O72607   1.675   1.945   8.254
24122WAT     H172608   1.651   1.961   8.350
24122WAT     H272609   1.604   1.985   8.195
24123WAT      O72610   2.254   8.754   2.799
24123WAT     H172611   2.301   8.839   2.773
24123WAT     H272612   2.157   8.772   2.810
24124WAT      O72613   7.306   7.637   2.690
24124WAT     H172614   7.281   7.720   2.739
24124WAT     H272615   7.402   7.641   2.663
24125WAT      O72616   4.456   4.546   2.082
24125WAT     H172617   4.420   4.597   2.159
24125WAT     H272618   4.381   4.515   2.023
24126WAT      O72619   6.922   3.819   2.545
24126WAT     H172620   6.995   3.753   2.564
24126WAT     H272621   6.938   3.902   2.599
24127WAT      O72622   4.755   1.786   4.410
24127WAT     H172623   4.735   1.688   4.405
24127WAT     H272624   4.702   1.835   4.341
24128WAT      O72625   5.628   2.790   1.968
24128WAT     H172626   5.664   2.874   2.009
24128WAT     H272627   5.533   2.776   1.999
24129WAT      O72628   7.073   5.458   4.046
24129WAT     H172629   7.053   5.486   3.952
24129WAT     H272630   7.079   5.358   4.050
24130WAT      O72631   2.021   1.011   9.265
24130WAT     H172632   1.939   0.972   9.223
24130WAT     H272633   2.075   0.938   9.307
24131WAT      O72634   0.197   2.428   1.199
24131WAT     H172635   0.107   2.462   1.226
24131WAT     H272636   0.250   2.503   1.159
24132WAT      O72637   7.259   5.278   0.860
24132WAT     H172638   7.251   5.253   0.764
24132WAT     H272639   7.193   5.227   0.914
24133WAT      O72640   4.732   4.755   7.186
24133WAT     H172641   4.825   4.741   7.220
24133WAT     H272642   4.728   4.732   7.089
24134WAT      O72643   3.897   5.181   4.269
24134WAT     H172644   3.890   5.274   4.233
24134WAT     H272645   3.988   5.144   4.249
24135WAT      O72646   2.201   9.518   7.081
24135WAT     H172647   2.273   9.529   7.150
24135WAT     H272648   2.221   9.438   7.025
24136WAT      O72649   3.870   6.555   5.264
24136WAT     H172650   3.917   6.544   5.177
24136WAT     H272651   3.884   6.474   5.320
24137WAT      O72652   5.969   7.412   4.090
24137WAT     H172653   5.963   7.511   4.083
24137WAT     H272654   5.949   7.383   4.184
24138WAT      O72655   3.272   0.339   0.652
24138WAT     H172656   3.226   0.251   0.636
24138WAT     H272657   3.270   0.393   0.568
24139WAT      O72658   4.380   9.634   7.563
24139WAT     H172659   4.283   9.659   7.561
24139WAT     H272660   4.390   9.537   7.585
24140WAT      O72661   2.206   7.721   7.761
24140WAT     H172662   2.281   7.769   7.715
24140WAT     H272663   2.151   7.786   7.812
24141WAT      O72664   0.756   0.390   9.540
24141WAT     H172665   0.760   0.490   9.540
24141WAT     H272666   0.797   0.355   9.455
24142WAT      O72667   8.907   7.493   6.958
24142WAT     H172668   8.946   7.519   6.870
24142WAT     H272669   8.807   7.502   6.955
24143WAT      O72670   2.160   0.750   1.760
24143WAT     H172671   2.117   0.669   1.719
24143WAT     H272672   2.182   0.816   1.689
24144WAT      O72673   2.528   0.794   9.780
24144WAT     H172674   2.541   0.712   9.724
24144WAT     H272675   2.490   0.768   9.869
24145WAT      O72676   3.222   1.383   7.289
24145WAT     H172677   3.274   1.299   7.307
24145WAT     H272678   3.281   1.462   7.303
24146WAT      O72679   9.143   4.139   5.427
24146WAT     H172680   9.054   4.108   5.460
24146WAT     H272681   9.209   4.136   5.502
24147WAT      O72682   7.798   1.057   0.373
24147WAT     H172683   7.785   1.154   0.352
24147WAT     H272684   7.724   1.004   0.330
24148WAT      O72685   2.193   5.293   9.768
24148WAT     H172686   2.145   5.247   9.843
24148WAT     H272687   2.245   5.371   9.804
24149WAT      O72688   3.242   0.603   6.722
24149WAT     H172689   3.239   0.531   6.791
24149WAT     H272690   3.277   0.687   6.762
24150WAT      O72691   0.368   6.170   4.480
24150WAT     H172692   0.324   6.240   4.537
24150WAT     H272693   0.458   6.203   4.451
24151WAT      O72694   3.891   1.845   2.991
24151WAT     H172695   3.984   1.809   2.989
24151WAT     H272696   3.827   1.773   2.966
24152WAT      O72697   2.250   3.828   8.474
24152WAT     H172698   2.225   3.784   8.388
24152WAT     H272699   2.264   3.926   8.459
24153WAT      O72700   4.159   4.773   1.948
24153WAT     H172701   4.113   4.844   1.896
24153WAT     H272702   4.122   4.770   2.041
24154WAT      O72703   3.681   1.378   5.470
24154WAT     H172704   3.762   1.324   5.446
24154WAT     H272705   3.629   1.330   5.541
24155WAT      O72706   3.843   7.930   8.786
24155WAT     H172707   3.865   7.946   8.690
24155WAT     H272708   3.918   7.882   8.830
24156WAT      O72709   3.269   8.416   0.584
24156WAT     H172710   3.250   8.326   0.624
24156WAT     H272711   3.352   8.454   0.625
24157WAT      O72712   1.928   5.813   0.307
24157WAT     H172713   1.833   5.781   0.298
24157WAT     H272714   1.990   5.735   0.297
24158WAT      O72715   2.453   9.551   1.814
24158WAT     H172716   2.432   9.647   1.799
24158WAT     H272717   2.528   9.544   1.880
24159WAT      O72718   2.090   2.795   2.836
24159WAT     H172719   2.076   2.844   2.749
24159WAT     H272720   2.100   2.697   2.817
24160WAT      O72721   9.726   7.337   3.044
24160WAT     H172722   9.812   7.336   2.993
24160WAT     H272723   9.741   7.303   3.136
24161WAT      O72724   3.573   7.683   8.473
24161WAT     H172725   3.522   7.716   8.394
24161WAT     H272726   3.670   7.674   8.449
24162WAT      O72727   2.969   2.810   3.037
24162WAT     H172728   2.939   2.752   2.962
24162WAT     H272729   3.022   2.756   3.102
24163WAT      O72730   2.582   7.316   0.257
24163WAT     H172731   2.493   7.298   0.216
24163WAT     H272732   2.578   7.301   0.356
24164WAT      O72733   7.672   2.752   7.569
24164WAT     H172734   7.741   2.727   7.502
24164WAT     H272735   7.593   2.691   7.561
24165WAT      O72736   8.856   7.987   2.665
24165WAT     H172737   8.760   8.005   2.687
24165WAT     H272738   8.862   7.934   2.580
24166WAT      O72739   4.769   1.221   0.502
24166WAT     H172740   4.710   1.141   0.496
24166WAT     H272741   4.810   1.239   0.413
24167WAT      O72742   4.575   8.152   1.180
24167WAT     H172743   4.563   8.250   1.169
24167WAT     H272744   4.608   8.112   1.094
24168WAT      O72745   8.078   4.798   2.199
24168WAT     H172746   8.025   4.826   2.279
24168WAT     H272747   8.121   4.878   2.157
24169WAT      O72748   7.185   7.369   3.414
24169WAT     H172749   7.250   7.309   3.460
24169WAT     H272750   7.135   7.423   3.483
24170WAT      O72751   2.587   3.424   1.194
24170WAT     H172752   2.524   3.398   1.121
24170WAT     H272753   2.602   3.346   1.254
24171WAT      O72754   6.469   3.137   4.640
24171WAT     H172755   6.377   3.124   4.678
24171WAT     H272756   6.537   3.106   4.706
24172WAT      O72757   8.749   4.332   0.377
24172WAT     H172758   8.843   4.359   0.354
24172WAT     H272759   8.686   4.402   0.344
24173WAT      O72760   1.597   6.035   5.354
24173WAT     H172761   1.619   6.016   5.259
24173WAT     H272762   1.602   5.951   5.408
24174WAT      O72763   4.332   3.406   4.653
24174WAT     H172764   4.255   3.442   4.600
24174WAT     H272765   4.397   3.480   4.672
24175WAT      O72766   5.490   3.860   6.966
24175WAT     H172767   5.432   3.855   7.047
24175WAT     H272768   5.511   3.767   6.935
24176WAT      O72769   3.360   8.652   3.257
24176WAT     H172770   3.360   8.587   3.333
24176WAT     H272771   3.451   8.694   3.249
24177WAT      O72772   7.727   5.255   3.131
24177WAT     H172773   7.822   5.229   3.111
24177WAT     H272774   7.673   5.249   3.047
24178WAT      O72775   0.480   2.709   2.789
24178WAT     H172776   0.418   2.636   2.818
24178WAT     H272777   0.573   2.687   2.816
24179WAT      O72778   1.591   8.748   2.026
24179WAT     H172779   1.611   8.783   2.118
24179WAT     H272780   1.616   8.651   2.021
24180WAT      O72781   8.720   0.229   3.895
24180WAT     H172782   8.622   0.208   3.898
24180WAT     H272783   8.732   0.324   3.867
24181WAT      O72784   7.192   9.126   9.455
24181WAT     H172785   7.193   9.218   9.416
24181WAT     H272786   7.283   9.085   9.445
24182WAT      O72787   5.234   6.023   2.457
24182WAT     H172788   5.227   6.114   2.416
24182WAT     H272789   5.262   6.031   2.552
24183WAT      O72790   5.445   4.913   0.685
24183WAT     H172791   5.363   4.940   0.735
24183WAT     H272792   5.503   4.993   0.671
24184WAT      O72793   6.172   9.238   7.289
24184WAT     H172794   6.242   9.275   7.350
24184WAT     H272795   6.204   9.152   7.250
24185WAT      O72796   7.502   8.072   6.645
24185WAT     H172797   7.489   7.974   6.662
24185WAT     H272798   7.488   8.092   6.548
24186WAT      O72799   6.361   0.354   5.166
24186WAT     H172800   6.323   0.310   5.247
24186WAT     H272801   6.441   0.303   5.134
24187WAT      O72802   1.572   0.755   1.271
24187WAT     H172803   1.613   0.728   1.183
24187WAT     H272804   1.604   0.693   1.343
24188WAT      O72805   1.316   5.701   4.190
24188WAT     H172806   1.342   5.657   4.104
24188WAT     H272807   1.346   5.797   4.189
24189WAT      O72808   8.244   0.163   4.757
24189WAT     H172809   8.289   0.203   4.836
24189WAT     H272810   8.231   0.065   4.772
24190WAT      O72811   1.635   0.071   9.840
24190WAT     H172812   1.687  -0.009   9.871
24190WAT     H272813   1.618   0.131   9.918
24191WAT      O72814   3.797   2.556   7.196
24191WAT     H172815   3.789   2.489   7.122
24191WAT     H272816   3.705   2.578   7.230
24192WAT      O72817   9.637   9.752   5.982
24192WAT     H172818   9.588   9.690   6.043
24192WAT     H272819   9.575   9.784   5.910
24193WAT      O72820   1.160   5.865   8.666
24193WAT     H172821   1.092   5.879   8.737
24193WAT     H272822   1.246   5.910   8.693
24194WAT      O72823   3.400   2.641   6.836
24194WAT     H172824   3.326   2.588   6.878
24194WAT     H272825   3.469   2.579   6.799
24195WAT      O72826   2.727   2.769   0.847
24195WAT     H172827   2.699   2.758   0.942
24195WAT     H272828   2.734   2.866   0.825
24196WAT      O72829   3.452   1.927   2.723
24196WAT     H172830   3.541   1.966   2.699
24196WAT     H272831   3.406   1.986   2.788
24197WAT      O72832   8.657   0.870   4.849
24197WAT     H172833   8.713   0.877   4.931
24197WAT     H272834   8.614   0.780   4.846
24198WAT      O72835   8.505   6.770   1.177
24198WAT     H172836   8.414   6.738   1.204
24198WAT     H272837   8.514   6.867   1.199
24199WAT      O72838   1.820   0.134   8.904
24199WAT     H172839   1.902   0.097   8.862
24199WAT     H272840   1.820   0.234   8.897
24200WAT      O72841   7.916   7.268   7.838
24200WAT     H172842   7.956   7.357   7.815
24200WAT     H272843   7.966   7.228   7.914
24201WAT      O72844   9.377   2.850   0.472
24201WAT     H172845   9.464   2.801   0.463
24201WAT     H272846   9.312   2.814   0.405
24202WAT      O72847   7.015   8.241   2.986
24202WAT     H172848   7.112   8.217   2.991
24202WAT     H272849   6.990   8.260   2.891
24203WAT      O72850   8.054   5.596   4.450
24203WAT     H172851   8.049   5.505   4.408
24203WAT     H272852   7.963   5.638   4.450
24204WAT      O72853   1.607   1.697   3.610
24204WAT     H172854   1.545   1.768   3.645
24204WAT     H272855   1.557   1.612   3.596
24205WAT      O72856   2.471   8.569   4.004
24205WAT     H172857   2.530   8.604   4.077
24205WAT     H272858   2.458   8.471   4.015
24206WAT      O72859   9.084   4.618   8.190
24206WAT     H172860   9.044   4.707   8.166
24206WAT     H272861   9.131   4.580   8.110
24207WAT      O72862   8.416   8.157   3.276
24207WAT     H172863   8.515   8.155   3.289
24207WAT     H272864   8.379   8.238   3.322
24208WAT      O72865   7.511   3.034   2.038
24208WAT     H172866   7.573   3.106   2.005
24208WAT     H272867   7.519   2.954   1.977
24209WAT      O72868   2.689   3.121   4.364
24209WAT     H172869   2.675   3.095   4.459
24209WAT     H272870   2.661   3.045   4.304
24210WAT      O72871   4.734   0.234   9.265
24210WAT     H172872   4.730   0.134   9.258
24210WAT     H272873   4.760   0.259   9.358
24211WAT      O72874   3.954   8.091   3.640
24211WAT     H172875   3.857   8.090   3.616
24211WAT     H272876   4.005   8.144   3.571
24212WAT      O72877   9.224   9.583   0.603
24212WAT     H172878   9.262   9.521   0.673
24212WAT     H272879   9.128   9.601   0.623
24213WAT      O72880   0.567   7.892   1.104
24213WAT     H172881   0.486   7.883   1.161
24213WAT     H272882   0.593   7.989   1.098
24214WAT      O72883   3.867   9.007   1.045
24214WAT     H172884   3.787   8.996   0.987
24214WAT     H272885   3.950   8.989   0.991
24215WAT      O72886   2.698   2.594   0.631
24215WAT     H172887   2.657   2.639   0.552
24215WAT     H272888   2.710   2.662   0.705
24216WAT      O72889   0.292   8.332   6.920
24216WAT     H172890   0.309   8.257   6.856
24216WAT     H272891   0.378   8.379   6.940
24217WAT      O72892   3.598   7.714   6.813
24217WAT     H172893   3.569   7.665   6.895
24217WAT     H272894   3.529   7.705   6.742
24218WAT      O72895   0.055   2.297   9.292
24218WAT     H172896   0.039   2.372   9.228
24218WAT     H272897   0.153   2.281   9.301
24219WAT      O72898   7.146   4.880   4.491
24219WAT     H172899   7.051   4.906   4.507
24219WAT     H272900   7.164   4.792   4.535
24220WAT      O72901   7.925   3.620   4.072
24220WAT     H172902   7.995   3.652   4.008
24220WAT     H272903   7.907   3.691   4.140
24221WAT      O72904   9.812   5.101   3.175
24221WAT     H172905   9.779   5.094   3.081
24221WAT     H272906   9.734   5.119   3.236
24222WAT      O72907   4.105   2.131   9.670
24222WAT     H172908   4.189   2.179   9.696
24222WAT     H272909   4.041   2.196   9.628
24223WAT      O72910   3.938   1.416   5.927
24223WAT     H172911   3.900   1.401   6.019
24223WAT     H272912   4.032   1.384   5.924
24224WAT      O72913   1.723   7.601   4.669
24224WAT     H172914   1.705   7.633   4.576
24224WAT     H272915   1.739   7.502   4.668
24225WAT      O72916   9.274   0.428   4.612
24225WAT     H172917   9.285   0.436   4.711
24225WAT     H272918   9.210   0.354   4.591
24226WAT      O72919   2.380   8.853   9.086
24226WAT     H172920   2.351   8.847   8.991
24226WAT     H272921   2.366   8.765   9.131
24227WAT      O72922   2.173   7.466   1.643
24227WAT     H172923   2.195   7.391   1.581
24227WAT     H272924   2.130   7.540   1.592
24228WAT      O72925   4.592   3.771   8.395
24228WAT     H172926   4.569   3.692   8.452
24228WAT     H272927   4.619   3.847   8.453
24229WAT      O72928   5.518   2.642   5.925
24229WAT     H172929   5.559   2.561   5.884
24229WAT     H272930   5.523   2.634   6.025
24230WAT      O72931   3.045   2.097   4.067
24230WAT     H172932   3.138   2.119   4.037
24230WAT     H272933   3.031   2.133   4.160
24231WAT      O72934   9.851   0.959   3.232
24231WAT     H172935   9.943   0.996   3.221
24231WAT     H272936   9.856   0.864   3.262
24232WAT      O72937   5.008   0.393   7.220
24232WAT     H172938   4.919   0.352   7.199
24232WAT     H272939   5.079   0.321   7.219
24233WAT      O72940   2.729   3.525   9.847
24233WAT     H172941   2.804   3.468   9.813
24233WAT     H272942   2.761   3.619   9.859
24234WAT      O72943   6.384   6.333   4.769
24234WAT     H172944   6.284   6.344   4.772
24234WAT     H272945   6.412   6.269   4.840
24235WAT      O72946   6.574   1.679   1.367
24235WAT     H172947   6.549   1.712   1.276
24235WAT     H272948   6.562   1.753   1.434
24236WAT      O72949   7.219   5.291   6.242
24236WAT     H172950   7.268   5.350   6.177
24236WAT     H272951   7.270   5.206   6.254
24237WAT      O72952   0.194   7.759   0.553
24237WAT     H172953   0.219   7.669   0.516
24237WAT     H272954   0.167   7.749   0.649
24238WAT      O72955   1.678   1.160   1.530
24238WAT     H172956   1.699   1.086   1.594
24238WAT     H272957   1.650   1.241   1.581
24239WAT      O72958   8.420   6.188   6.231
24239WAT     H172959   8.344   6.218   6.289
24239WAT     H272960   8.431   6.089   6.239
24240WAT      O72961   3.663   1.210   4.469
24240WAT     H172962   3.666   1.288   4.406
24240WAT     H272963   3.612   1.135   4.426
24241WAT      O72964   8.996   2.441   4.408
24241WAT     H172965   8.897   2.426   4.404
24241WAT     H272966   9.018   2.530   4.368
24242WAT      O72967   4.090   3.561   3.422
24242WAT     H172968   4.076   3.601   3.332
24242WAT     H272969   4.178   3.589   3.459
24243WAT      O72970   7.535   3.869   1.635
24243WAT     H172971   7.459   3.805   1.629
24243WAT     H272972   7.617   3.827   1.595
24244WAT      O72973   1.116   0.328   0.412
24244WAT     H172974   1.041   0.371   0.463
24244WAT     H272975   1.078   0.269   0.340
24245WAT      O72976   3.074   7.841   6.399
24245WAT     H172977   3.075   7.931   6.444
24245WAT     H272978   2.984   7.799   6.410
24246WAT      O72979   1.961   2.290   1.494
24246WAT     H172980   1.972   2.243   1.581
24246WAT     H272981   2.047   2.290   1.444
24247WAT      O72982   4.321   5.914   3.807
24247WAT     H172983   4.240   5.972   3.807
24247WAT     H272984   4.385   5.945   3.878
24248WAT      O72985   7.661   1.366   5.838
24248WAT     H172986   7.598   1.372   5.916
24248WAT     H272987   7.611   1.333   5.758
24249WAT      O72988   8.036   2.827   2.351
24249WAT     H172989   8.100   2.807   2.277
24249WAT     H272990   7.947   2.850   2.312
24250WAT      O72991   8.852   8.002   7.645
24250WAT     H172992   8.875   8.055   7.726
24250WAT     H272993   8.868   7.905   7.662
24251WAT      O72994   7.741   7.477   3.985
24251WAT     H172995   7.723   7.569   4.020
24251WAT     H272996   7.702   7.469   3.892
24252WAT      O72997   4.684   7.707   8.061
24252WAT     H172998   4.728   7.716   8.150
24252WAT     H272999   4.721   7.776   7.998
24253WAT      O73000   8.716   9.826   2.409
24253WAT     H173001   8.636   9.808   2.351
24253WAT     H273002   8.735   9.746   2.465
24254WAT      O73003   6.703   2.427   8.185
24254WAT     H173004   6.679   2.345   8.237
24254WAT     H273005   6.667   2.419   8.092
24255WAT      O73006   8.196   5.935   0.569
24255WAT     H173007   8.203   5.993   0.487
24255WAT     H273008   8.277   5.876   0.575
24256WAT      O73009   9.248   4.821   5.960
24256WAT     H173010   9.307   4.743   5.939
24256WAT     H273011   9.182   4.795   6.030
24257WAT      O73012   0.459   6.685   7.985
24257WAT     H173013   0.433   6.782   7.986
24257WAT     H273014   0.517   6.666   8.065
24258WAT      O73015   5.858   1.219   0.463
24258WAT     H173016   5.813   1.298   0.503
24258WAT     H273017   5.950   1.210   0.501
24259WAT      O73018   9.656   9.565   1.094
24259WAT     H173019   9.603   9.495   1.047
24259WAT     H273020   9.690   9.528   1.180
24260WAT      O73021   7.298   1.810   4.244
24260WAT     H173022   7.327   1.794   4.339
24260WAT     H273023   7.379   1.818   4.186
24261WAT      O73024   2.866   7.467   6.590
24261WAT     H173025   2.857   7.378   6.545
24261WAT     H273026   2.783   7.487   6.642
24262WAT      O73027   6.541   7.029   7.850
24262WAT     H173028   6.486   6.950   7.878
24262WAT     H273029   6.482   7.096   7.805
24263WAT      O73030   6.325   8.609   5.984
24263WAT     H173031   6.407   8.623   5.928
24263WAT     H273032   6.345   8.542   6.055
24264WAT      O73033   6.886   3.637   1.604
24264WAT     H173034   6.848   3.724   1.572
24264WAT     H273035   6.975   3.654   1.647
24265WAT      O73036   2.750   2.514   6.371
24265WAT     H173037   2.828   2.487   6.427
24265WAT     H273038   2.665   2.494   6.420
24266WAT      O73039   1.624   6.554   2.362
24266WAT     H173040   1.705   6.540   2.306
24266WAT     H273041   1.551   6.594   2.307
24267WAT      O73042   0.594   4.538   6.005
24267WAT     H173043   0.517   4.493   6.051
24267WAT     H273044   0.560   4.593   5.929
24268WAT      O73045   1.964   0.237   3.786
24268WAT     H173046   1.898   0.232   3.860
24268WAT     H273047   1.995   0.331   3.774
24269WAT      O73048   6.509   7.496   4.701
24269WAT     H173049   6.487   7.400   4.684
24269WAT     H273050   6.456   7.554   4.640
24270WAT      O73051   3.141   4.830   5.140
24270WAT     H173052   3.190   4.764   5.197
24270WAT     H273053   3.205   4.897   5.103
24271WAT      O73054   6.379   3.922   7.483
24271WAT     H173055   6.399   3.964   7.572
24271WAT     H273056   6.384   3.822   7.492
24272WAT      O73057   1.300   4.921   2.250
24272WAT     H173058   1.296   4.990   2.178
24272WAT     H273059   1.313   4.830   2.210
24273WAT      O73060   1.997   4.368   3.793
24273WAT     H173061   2.010   4.337   3.699
24273WAT     H273062   2.065   4.325   3.852
24274WAT      O73063   0.703   8.578   9.380
24274WAT     H173064   0.758   8.594   9.462
24274WAT     H273065   0.727   8.646   9.310
24275WAT      O73066   2.221   2.183   3.238
24275WAT     H173067   2.191   2.102   3.188
24275WAT     H273068   2.177   2.185   3.327
24276WAT      O73069   7.065   2.084   8.271
24276WAT     H173070   7.047   2.051   8.178
24276WAT     H273071   7.011   2.031   8.336
24277WAT      O73072   3.527   1.670   1.949
24277WAT     H173073   3.455   1.714   2.003
24277WAT     H273074   3.588   1.619   2.010
24278WAT      O73075   2.157   5.708   7.881
24278WAT     H173076   2.229   5.736   7.818
24278WAT     H273077   2.097   5.642   7.836
24279WAT      O73078   5.047   2.948   4.962
24279WAT     H173079   5.037   2.988   5.053
24279WAT     H273080   4.959   2.912   4.932
24280WAT      O73081   7.995   6.048   3.041
24280WAT     H173082   8.017   5.951   3.031
24280WAT     H273083   7.994   6.092   2.951
24281WAT      O73084   8.365   1.522   3.749
24281WAT     H173085   8.461   1.526   3.723
24281WAT     H273086   8.308   1.550   3.672
24282WAT      O73087   1.061   8.248   1.334
24282WAT     H173088   1.046   8.347   1.334
24282WAT     H273089   1.065   8.215   1.240
24283WAT      O73090   7.123   7.662   6.770
24283WAT     H173091   7.169   7.651   6.858
24283WAT     H273092   7.125   7.575   6.720
24284WAT      O73093   1.214   8.211   7.617
24284WAT     H173094   1.117   8.232   7.624
24284WAT     H273095   1.226   8.111   7.616
24285WAT      O73096   2.442   8.916   5.156
24285WAT     H173097   2.462   8.976   5.078
24285WAT     H273098   2.385   8.840   5.126
24286WAT      O73099   0.493   8.165   4.644
24286WAT     H173100   0.427   8.239   4.661
24286WAT     H273101   0.505   8.153   4.546
24287WAT      O73102   7.877   0.364   0.236
24287WAT     H173103   7.843   0.272   0.215
24287WAT     H273104   7.966   0.377   0.194
24288WAT      O73105   8.352   1.334   4.025
24288WAT     H173106   8.330   1.284   4.109
24288WAT     H273107   8.288   1.410   4.014
24289WAT      O73108   6.879   3.961   1.242
24289WAT     H173109   6.884   3.879   1.184
24289WAT     H273110   6.941   4.031   1.205
24290WAT      O73111   3.782   3.316   7.890
24290WAT     H173112   3.690   3.276   7.896
24290WAT     H273113   3.811   3.345   7.980
24291WAT      O73114   3.793   0.177   6.378
24291WAT     H173115   3.814   0.263   6.331
24291WAT     H273116   3.774   0.196   6.474
24292WAT      O73117   1.779   0.902   9.141
24292WAT     H173118   1.727   0.923   9.223
24292WAT     H273119   1.737   0.826   9.093
24293WAT      O73120   4.676   6.160   3.729
24293WAT     H173121   4.774   6.157   3.710
24293WAT     H273122   4.624   6.157   3.644
24294WAT      O73123   1.049   4.755   4.668
24294WAT     H173124   1.072   4.839   4.718
24294WAT     H273125   1.038   4.680   4.733
24295WAT      O73126   0.383   5.399   4.973
24295WAT     H173127   0.334   5.485   4.990
24295WAT     H273128   0.329   5.341   4.913
24296WAT      O73129   8.582   7.384   9.587
24296WAT     H173130   8.672   7.379   9.630
24296WAT     H273131   8.579   7.322   9.508
24297WAT      O73132   4.355   5.489   6.939
24297WAT     H173133   4.280   5.427   6.962
24297WAT     H273134   4.427   5.481   7.009
24298WAT      O73135   9.132   0.676   5.409
24298WAT     H173136   9.196   0.739   5.453
24298WAT     H273137   9.064   0.647   5.475
24299WAT      O73138   7.612   6.864   8.754
24299WAT     H173139   7.604   6.797   8.680
24299WAT     H273140   7.527   6.916   8.760
24300WAT      O73141   6.091   1.382   5.905
24300WAT     H173142   6.111   1.337   5.818
24300WAT     H273143   6.080   1.480   5.889
24301WAT      O73144   3.176   8.351   5.941
24301WAT     H173145   3.183   8.402   6.026
24301WAT     H273146   3.133   8.409   5.871
24302WAT      O73147   0.327   4.570   4.827
24302WAT     H173148   0.268   4.559   4.747
24302WAT     H273149   0.280   4.626   4.895
24303WAT      O73150   6.232   4.525   5.570
24303WAT     H173151   6.141   4.489   5.589
24303WAT     H273152   6.228   4.587   5.492
24304WAT      O73153   6.788   8.778   3.604
24304WAT     H173154   6.878   8.734   3.610
24304WAT     H273155   6.728   8.724   3.546
24305WAT      O73156   7.220   2.491   3.859
24305WAT     H173157   7.145   2.424   3.860
24305WAT     H273158   7.233   2.524   3.765
24306WAT      O73159   8.849   2.975   3.200
24306WAT     H173160   8.756   2.944   3.223
24306WAT     H273161   8.881   3.039   3.271
24307WAT      O73162   1.581   5.577   5.684
24307WAT     H173163   1.581   5.482   5.717
24307WAT     H273164   1.599   5.639   5.760
24308WAT      O73165   4.048   6.483   4.725
24308WAT     H173166   4.033   6.513   4.631
24308WAT     H273167   4.112   6.407   4.726
24309WAT      O73168   3.386   6.729   6.754
24309WAT     H173169   3.395   6.689   6.663
24309WAT     H273170   3.425   6.821   6.754
24310WAT      O73171   9.575   5.753   3.642
24310WAT     H173172   9.607   5.753   3.737
24310WAT     H273173   9.589   5.662   3.603
24311WAT      O73174   8.269   5.361   0.774
24311WAT     H173175   8.253   5.351   0.676
24311WAT     H273176   8.331   5.289   0.806
24312WAT      O73177   9.518   6.024   9.165
24312WAT     H173178   9.493   5.928   9.158
24312WAT     H273179   9.450   6.080   9.118
24313WAT      O73180   0.915   8.312   5.438
24313WAT     H173181   0.860   8.247   5.489
24313WAT     H273182   0.971   8.264   5.371
24314WAT      O73183   5.215   3.890   1.807
24314WAT     H173184   5.116   3.880   1.799
24314WAT     H273185   5.258   3.856   1.724
24315WAT      O73186   6.974   4.602   2.520
24315WAT     H173187   6.882   4.631   2.493
24315WAT     H273188   7.032   4.683   2.529
24316WAT      O73189   9.126   0.303   7.535
24316WAT     H173190   9.223   0.323   7.548
24316WAT     H273191   9.071   0.382   7.561
24317WAT      O73192   3.595   5.159   2.172
24317WAT     H173193   3.516   5.118   2.218
24317WAT     H273194   3.669   5.092   2.166
24318WAT      O73195   3.407   2.893   2.935
24318WAT     H173196   3.312   2.920   2.927
24318WAT     H273197   3.463   2.950   2.874
24319WAT      O73198   4.514   0.803   6.160
24319WAT     H173199   4.434   0.855   6.190
24319WAT     H273200   4.550   0.751   6.237
24320WAT      O73201   4.661   2.929   7.958
24320WAT     H173202   4.611   2.849   7.924
24320WAT     H273203   4.609   2.972   8.031
24321WAT      O73204   0.853   0.409   4.514
24321WAT     H173205   0.914   0.436   4.588
24321WAT     H273206   0.877   0.317   4.483
24322WAT      O73207   7.451   8.813   1.822
24322WAT     H173208   7.410   8.778   1.738
24322WAT     H273209   7.418   8.906   1.838
24323WAT      O73210   9.535   2.528   1.812
24323WAT     H173211   9.616   2.513   1.755
24323WAT     H273212   9.467   2.579   1.761
24324WAT      O73213   7.872   5.476   5.074
24324WAT     H173214   7.906   5.488   5.167
24324WAT     H273215   7.889   5.559   5.021
24325WAT      O73216   4.969   5.950   8.052
24325WAT     H173217   4.909   5.879   8.089
24325WAT     H273218   5.045   5.907   8.004
24326WAT      O73219   0.080   5.604   9.187
24326WAT     H173220   0.045   5.559   9.268
24326WAT     H273221   0.166   5.562   9.159
24327WAT      O73222   9.425   2.025   8.390
24327WAT     H173223   9.437   2.097   8.459
24327WAT     H273224   9.514   1.993   8.359
24328WAT      O73225   8.666   7.559   7.212
24328WAT     H173226   8.619   7.587   7.296
24328WAT     H273227   8.686   7.639   7.156
24329WAT      O73228   4.483   9.586   2.751
24329WAT     H173229   4.424   9.509   2.727
24329WAT     H273230   4.430   9.671   2.744
24330WAT      O73231   0.844   1.942   4.842
24330WAT     H173232   0.927   1.994   4.821
24330WAT     H273233   0.772   2.005   4.872
24331WAT      O73234   5.740   1.081   8.105
24331WAT     H173235   5.776   1.147   8.171
24331WAT     H273236   5.661   1.034   8.143
24332WAT      O73237   2.135   9.511   9.712
24332WAT     H173238   2.185   9.591   9.745
24332WAT     H273239   2.185   9.470   9.635
24333WAT      O73240   6.630   5.675   0.579
24333WAT     H173241   6.550   5.689   0.637
24333WAT     H273242   6.669   5.764   0.555
24334WAT      O73243   9.323   8.515   3.866
24334WAT     H173244   9.270   8.554   3.790
24334WAT     H273245   9.420   8.513   3.842
24335WAT      O73246   7.215   1.471   7.592
24335WAT     H173247   7.202   1.390   7.649
24335WAT     H273248   7.312   1.477   7.565
24336WAT      O73249   3.729   8.585   1.933
24336WAT     H173250   3.787   8.608   1.855
24336WAT     H273251   3.718   8.485   1.939
24337WAT      O73252   2.376   1.294   9.371
24337WAT     H173253   2.340   1.234   9.442
24337WAT     H273254   2.311   1.368   9.354
24338WAT      O73255   9.529   4.246   7.042
24338WAT     H173256   9.479   4.321   6.999
24338WAT     H273257   9.486   4.159   7.017
24339WAT      O73258   8.748   4.699   3.399
24339WAT     H173259   8.656   4.740   3.396
24339WAT     H273260   8.802   4.733   3.322
24340WAT      O73261   4.509   1.398   7.885
24340WAT     H173262   4.412   1.400   7.911
24340WAT     H273263   4.564   1.380   7.966
24341WAT      O73264   9.087   2.115   4.737
24341WAT     H173265   9.022   2.039   4.725
24341WAT     H273266   9.150   2.117   4.660
24342WAT      O73267   2.432   6.023   7.153
24342WAT     H173268   2.514   5.995   7.202
24342WAT     H273269   2.359   5.957   7.171
24343WAT      O73270   0.400   1.235   2.802
24343WAT     H173271   0.410   1.145   2.845
24343WAT     H273272   0.320   1.233   2.741
24344WAT      O73273   7.124   9.003   0.745
24344WAT     H173274   7.149   9.025   0.840
24344WAT     H273275   7.141   8.906   0.728
24345WAT      O73276   5.466   4.140   8.519
24345WAT     H173277   5.474   4.141   8.619
24345WAT     H273278   5.556   4.148   8.478
24346WAT      O73279   1.079   8.498   4.519
24346WAT     H173280   1.155   8.491   4.455
24346WAT     H273281   1.078   8.418   4.579
24347WAT      O73282   5.088   2.351   6.237
24347WAT     H173283   4.998   2.361   6.195
24347WAT     H273284   5.123   2.259   6.219
24348WAT      O73285   5.920   2.001   4.904
24348WAT     H173286   5.834   2.022   4.857
24348WAT     H273287   5.978   2.083   4.905
24349WAT      O73288   5.079   6.568   2.636
24349WAT     H173289   5.047   6.511   2.711
24349WAT     H273290   5.002   6.592   2.577
24350WAT      O73291   7.501   9.473   3.738
24350WAT     H173292   7.462   9.539   3.801
24350WAT     H273293   7.449   9.474   3.652
24351WAT      O73294   1.860   5.814   7.552
24351WAT     H173295   1.952   5.795   7.517
24351WAT     H273296   1.792   5.789   7.483
24352WAT      O73297   0.560   0.390   1.022
24352WAT     H173298   0.602   0.472   1.059
24352WAT     H273299   0.631   0.328   0.988
24353WAT      O73300   2.684   7.799   8.051
24353WAT     H173301   2.733   7.760   7.973
24353WAT     H273302   2.682   7.733   8.126
24354WAT      O73303   0.353   7.264   1.814
24354WAT     H173304   0.446   7.230   1.807
24354WAT     H273305   0.344   7.319   1.897
24355WAT      O73306   0.923   5.561   6.693
24355WAT     H173307   0.999   5.617   6.725
24355WAT     H273308   0.856   5.551   6.767
24356WAT      O73309   3.082   2.785   2.148
24356WAT     H173310   3.012   2.854   2.126
24356WAT     H273311   3.052   2.696   2.115
24357WAT      O73312   6.080   9.130   3.537
24357WAT     H173313   6.001   9.088   3.493
24357WAT     H273314   6.142   9.059   3.570
24358WAT      O73315   8.385   2.154   5.162
24358WAT     H173316   8.357   2.218   5.090
24358WAT     H273317   8.423   2.072   5.120
24359WAT      O73318   5.953   0.811   2.392
24359WAT     H173319   5.953   0.790   2.294
24359WAT     H273320   5.952   0.725   2.443
24360WAT      O73321   3.794   6.796   3.951
24360WAT     H173322   3.696   6.813   3.940
24360WAT     H273323   3.844   6.883   3.947
24361WAT      O73324   5.285   0.767   3.494
24361WAT     H173325   5.330   0.852   3.465
24361WAT     H273326   5.302   0.696   3.426
24362WAT      O73327   1.550   2.800   2.532
24362WAT     H173328   1.598   2.874   2.580
24362WAT     H273329   1.497   2.839   2.457
24363WAT      O73330   8.541   6.191   4.694
24363WAT     H173331   8.625   6.140   4.713
24363WAT     H273332   8.554   6.286   4.721
24364WAT      O73333   6.136   3.867   4.940
24364WAT     H173334   6.194   3.876   5.021
24364WAT     H273335   6.159   3.938   4.874
24365WAT      O73336   2.150   1.608   5.848
24365WAT     H173337   2.116   1.609   5.942
24365WAT     H273338   2.250   1.617   5.849
24366WAT      O73339   9.560   8.220   5.792
24366WAT     H173340   9.526   8.276   5.867
24366WAT     H273341   9.659   8.208   5.801
24367WAT      O73342   2.335   3.020   2.684
24367WAT     H173343   2.264   2.971   2.634
24367WAT     H273344   2.294   3.092   2.740
24368WAT      O73345   7.169   6.058   2.885
24368WAT     H173346   7.145   6.003   2.805
24368WAT     H273347   7.266   6.081   2.882
24369WAT      O73348   5.055   3.643   0.822
24369WAT     H173349   4.977   3.627   0.762
24369WAT     H273350   5.133   3.676   0.767
24370WAT      O73351   2.604   4.343   5.894
24370WAT     H173352   2.698   4.339   5.926
24370WAT     H273353   2.543   4.306   5.964
24371WAT      O73354   6.915   4.217   0.431
24371WAT     H173355   7.002   4.266   0.424
24371WAT     H273356   6.923   4.131   0.381
24372WAT      O73357   5.194   8.434   9.079
24372WAT     H173358   5.265   8.434   9.009
24372WAT     H273359   5.234   8.458   9.167
24373WAT      O73360   8.708   0.174   8.873
24373WAT     H173361   8.705   0.272   8.892
24373WAT     H273362   8.664   0.155   8.785
24374WAT      O73363   1.765   7.801   3.768
24374WAT     H173364   1.697   7.860   3.811
24374WAT     H273365   1.766   7.712   3.814
24375WAT      O73366   1.909   3.915   8.110
24375WAT     H173367   1.840   3.864   8.162
24375WAT     H273368   1.873   4.005   8.087
24376WAT      O73369   7.382   3.473   1.819
24376WAT     H173370   7.331   3.486   1.904
24376WAT     H273371   7.337   3.402   1.764
24377WAT      O73372   0.081   6.280   8.989
24377WAT     H173373   0.074   6.378   8.970
24377WAT     H273374   0.175   6.257   9.015
24378WAT      O73375   1.363   3.788   3.212
24378WAT     H173376   1.290   3.725   3.237
24378WAT     H273377   1.400   3.763   3.122
24379WAT      O73378   1.693   4.743   3.828
24379WAT     H173379   1.742   4.820   3.867
24379WAT     H273380   1.758   4.672   3.801
24380WAT      O73381   8.729   7.220   9.362
24380WAT     H173382   8.675   7.250   9.283
24380WAT     H273383   8.717   7.121   9.375
24381WAT      O73384   7.466   9.122   6.156
24381WAT     H173385   7.500   9.028   6.157
24381WAT     H273386   7.371   9.123   6.125
24382WAT      O73387   2.570   3.241   1.759
24382WAT     H173388   2.495   3.248   1.824
24382WAT     H273389   2.584   3.145   1.734
24383WAT      O73390   9.012   3.129   1.581
24383WAT     H173391   9.093   3.089   1.625
24383WAT     H273392   9.040   3.200   1.517
24384WAT      O73393   0.284   0.943   5.164
24384WAT     H173394   0.364   0.884   5.171
24384WAT     H273395   0.306   1.022   5.106
24385WAT      O73396   6.575   9.703   8.329
24385WAT     H173397   6.528   9.790   8.347
24385WAT     H273398   6.660   9.700   8.382
24386WAT      O73399   5.331   8.297   2.507
24386WAT     H173400   5.388   8.359   2.454
24386WAT     H273401   5.334   8.323   2.604
24387WAT      O73402   6.869   0.916   5.082
24387WAT     H173403   6.880   0.964   5.169
24387WAT     H273404   6.827   0.827   5.098
24388WAT      O73405   1.971   6.092   0.671
24388WAT     H173406   2.056   6.123   0.713
24388WAT     H273407   1.979   6.095   0.572
24389WAT      O73408   6.531   2.445   9.357
24389WAT     H173409   6.596   2.464   9.284
24389WAT     H273410   6.548   2.354   9.395
24390WAT      O73411   9.399   8.978   2.185
24390WAT     H173412   9.492   8.955   2.158
24390WAT     H273413   9.355   9.032   2.114
24391WAT      O73414   8.362   9.452   3.345
24391WAT     H173415   8.448   9.502   3.337
24391WAT     H273416   8.289   9.515   3.374
24392WAT      O73417   4.912   7.605   9.066
24392WAT     H173418   4.943   7.510   9.055
24392WAT     H273419   4.938   7.658   8.986
24393WAT      O73420   9.106   9.205   7.637
24393WAT     H173421   9.193   9.246   7.660
24393WAT     H273422   9.032   9.257   7.679
24394WAT      O73423   0.694   0.605   1.147
24394WAT     H173424   0.725   0.685   1.095
24394WAT     H273425   0.754   0.592   1.226
24395WAT      O73426   8.395   4.431   1.027
24395WAT     H173427   8.475   4.485   1.050
24395WAT     H273428   8.379   4.362   1.098
24396WAT      O73429   1.771   2.201   2.632
24396WAT     H173430   1.774   2.269   2.558
24396WAT     H273431   1.694   2.222   2.693
24397WAT      O73432   3.348   5.106   1.082
24397WAT     H173433   3.305   5.039   1.021
24397WAT     H273434   3.313   5.197   1.063
24398WAT      O73435   0.184   7.318   5.273
24398WAT     H173436   0.091   7.300   5.242
24398WAT     H273437   0.206   7.257   5.350
24399WAT      O73438   5.088   6.091   1.074
24399WAT     H173439   5.173   6.122   1.116
24399WAT     H273440   5.013   6.101   1.140
24400WAT      O73441   1.582   7.572   7.359
24400WAT     H173442   1.585   7.478   7.325
24400WAT     H273443   1.669   7.617   7.341
24401WAT      O73444   9.745   4.840   4.460
24401WAT     H173445   9.755   4.863   4.557
24401WAT     H273446   9.823   4.877   4.409
24402WAT      O73447   2.197   0.339   5.197
24402WAT     H173448   2.213   0.381   5.108
24402WAT     H273449   2.263   0.266   5.213
24403WAT      O73450   6.731   2.141   1.826
24403WAT     H173451   6.776   2.082   1.893
24403WAT     H273452   6.750   2.107   1.734
24404WAT      O73453   2.915   9.361   3.439
24404WAT     H173454   2.988   9.297   3.462
24404WAT     H273455   2.955   9.446   3.405
24405WAT      O73456   8.271   1.686   9.508
24405WAT     H173457   8.256   1.725   9.599
24405WAT     H273458   8.303   1.592   9.517
24406WAT      O73459   4.151   0.545   8.108
24406WAT     H173460   4.059   0.566   8.074
24406WAT     H273461   4.162   0.583   8.200
24407WAT      O73462   1.548   2.968   8.754
24407WAT     H173463   1.448   2.965   8.759
24407WAT     H273464   1.581   3.049   8.802
24408WAT      O73465   5.892   3.876   1.730
24408WAT     H173466   5.897   3.779   1.706
24408WAT     H273467   5.935   3.890   1.819
24409WAT      O73468   6.206   0.275   2.016
24409WAT     H173469   6.276   0.244   2.080
24409WAT     H273470   6.245   0.282   1.925
24410WAT      O73471   2.092   1.735   2.838
24410WAT     H173472   2.052   1.820   2.803
24410WAT     H273473   2.087   1.665   2.767
24411WAT      O73474   1.768   2.489   1.407
24411WAT     H173475   1.766   2.585   1.381
24411WAT     H273476   1.848   2.472   1.464
24412WAT      O73477   4.479   2.932   6.979
24412WAT     H173478   4.395   2.986   6.989
24412WAT     H273479   4.455   2.834   6.976
24413WAT      O73480   2.082   8.579   1.922
24413WAT     H173481   2.181   8.583   1.937
24413WAT     H273482   2.064   8.553   1.828
24414WAT      O73483   2.513   9.444   0.983
24414WAT     H173484   2.547   9.537   0.977
24414WAT     H273485   2.507   9.417   1.080
24415WAT      O73486   0.974   7.308   7.517
24415WAT     H173487   1.034   7.386   7.535
24415WAT     H273488   0.891   7.339   7.471
24416WAT      O73489   1.005   3.907   1.500
24416WAT     H173490   1.018   3.973   1.574
24416WAT     H273491   0.910   3.910   1.468
24417WAT      O73492   3.676   6.591   5.847
24417WAT     H173493   3.680   6.661   5.918
24417WAT     H273494   3.604   6.614   5.782
24418WAT      O73495   1.797   8.319   2.516
24418WAT     H173496   1.718   8.258   2.523
24418WAT     H273497   1.777   8.406   2.561
24419WAT      O73498   4.184   3.266   6.922
24419WAT     H173499   4.255   3.315   6.974
24419WAT     H273500   4.096   3.311   6.936
24420WAT      O73501   6.140   8.567   5.604
24420WAT     H173502   6.234   8.598   5.616
24420WAT     H273503   6.078   8.625   5.657
24421WAT      O73504   3.410   0.830   2.194
24421WAT     H173505   3.335   0.886   2.227
24421WAT     H273506   3.433   0.856   2.100
24422WAT      O73507   2.561   0.970   4.834
24422WAT     H173508   2.645   1.020   4.812
24422WAT     H273509   2.553   0.890   4.775
24423WAT      O73510   5.169   4.734   2.700
24423WAT     H173511   5.122   4.646   2.689
24423WAT     H273512   5.263   4.727   2.667
24424WAT      O73513   5.848   9.316   1.074
24424WAT     H173514   5.865   9.222   1.043
24424WAT     H273515   5.913   9.378   1.029
24425WAT      O73516   0.534   1.983   7.930
24425WAT     H173517   0.569   2.076   7.945
24425WAT     H273518   0.507   1.972   7.834
24426WAT      O73519   0.526   0.466   5.893
24426WAT     H173520   0.429   0.490   5.894
24426WAT     H273521   0.543   0.391   5.957
24427WAT      O73522   7.388   7.134   2.854
24427WAT     H173523   7.289   7.122   2.858
24427WAT     H273524   7.431   7.050   2.820
24428WAT      O73525   0.677   7.589   7.154
24428WAT     H173526   0.684   7.673   7.100
24428WAT     H273527   0.751   7.527   7.127
24429WAT      O73528   8.356   2.234   8.160
24429WAT     H173529   8.393   2.141   8.169
24429WAT     H273530   8.393   2.292   8.233
24430WAT      O73531   6.465   1.404   1.477
24430WAT     H173532   6.387   1.433   1.533
24430WAT     H273533   6.501   1.483   1.427
24431WAT      O73534   7.157   9.172   4.061
24431WAT     H173535   7.247   9.129   4.063
24431WAT     H273536   7.086   9.101   4.062
24432WAT      O73537   8.350   6.884   7.990
24432WAT     H173538   8.277   6.874   7.922
24432WAT     H273539   8.411   6.959   7.962
24433WAT      O73540   3.105   8.578   6.579
24433WAT     H173541   3.129   8.663   6.626
24433WAT     H273542   3.007   8.578   6.557
24434WAT      O73543   2.492   5.827   6.682
24434WAT     H173544   2.576   5.803   6.731
24434WAT     H273545   2.427   5.868   6.746
24435WAT      O73546   7.873   2.617   1.567
24435WAT     H173547   7.819   2.654   1.492
24435WAT     H273548   7.939   2.551   1.531
24436WAT      O73549   1.989   3.184   2.011
24436WAT     H173550   2.014   3.214   2.104
24436WAT     H273551   2.001   3.260   1.948
24437WAT      O73552   5.466   6.608   8.906
24437WAT     H173553   5.368   6.588   8.892
24437WAT     H273554   5.517   6.522   8.904
24438WAT      O73555   8.698   6.081   3.694
24438WAT     H173556   8.600   6.062   3.704
24438WAT     H273557   8.714   6.179   3.702
24439WAT      O73558   9.771   1.601   4.089
24439WAT     H173559   9.688   1.649   4.117
24439WAT     H273560   9.749   1.508   4.062
24440WAT      O73561   6.753   7.947   7.305
24440WAT     H173562   6.851   7.945   7.289
24440WAT     H273563   6.710   7.871   7.256
24441WAT      O73564   9.681   4.441   3.373
24441WAT     H173565   9.709   4.522   3.322
24441WAT     H273566   9.662   4.366   3.309
24442WAT      O73567   3.149   3.561   6.591
24442WAT     H173568   3.204   3.526   6.515
24442WAT     H273569   3.072   3.615   6.555
24443WAT      O73570   7.213   3.007   9.853
24443WAT     H173571   7.119   3.030   9.829
24443WAT     H273572   7.275   3.043   9.783
24444WAT      O73573   1.024   1.696   4.425
24444WAT     H173574   0.969   1.716   4.506
24444WAT     H273575   1.044   1.782   4.377
24445WAT      O73576   4.483   3.300   6.712
24445WAT     H173577   4.422   3.373   6.742
24445WAT     H273578   4.507   3.243   6.790
24446WAT      O73579   4.454   9.178   4.949
24446WAT     H173580   4.467   9.262   4.896
24446WAT     H273581   4.502   9.103   4.904
24447WAT      O73582   7.311   0.224   6.146
24447WAT     H173583   7.237   0.275   6.103
24447WAT     H273584   7.275   0.170   6.222
24448WAT      O73585   6.651   8.603   1.867
24448WAT     H173586   6.689   8.584   1.957
24448WAT     H273587   6.652   8.701   1.850
24449WAT      O73588   2.104   7.135   4.389
24449WAT     H173589   2.045   7.083   4.328
24449WAT     H273590   2.200   7.112   4.371
24450WAT      O73591   6.933   1.541   6.466
24450WAT     H173592   6.996   1.539   6.389
24450WAT     H273593   6.839   1.555   6.433
24451WAT      O73594   5.081   2.557   0.545
24451WAT     H173595   5.046   2.622   0.477
24451WAT     H273596   5.133   2.606   0.614
24452WAT      O73597   3.095   1.724   2.626
24452WAT     H173598   3.104   1.658   2.701
24452WAT     H273599   3.182   1.731   2.577
24453WAT      O73600   6.896   1.583   9.187
24453WAT     H173601   6.914   1.552   9.280
24453WAT     H273602   6.937   1.674   9.174
24454WAT      O73603   0.425   2.674   7.538
24454WAT     H173604   0.450   2.702   7.446
24454WAT     H273605   0.487   2.717   7.604
24455WAT      O73606   0.265   2.266   6.329
24455WAT     H173607   0.361   2.286   6.309
24455WAT     H273608   0.211   2.349   6.321
24456WAT      O73609   2.770   8.380   7.778
24456WAT     H173610   2.825   8.460   7.754
24456WAT     H273611   2.675   8.397   7.754
24457WAT      O73612   4.349   6.449   2.116
24457WAT     H173613   4.405   6.485   2.042
24457WAT     H273614   4.333   6.352   2.102
24458WAT      O73615   6.694   6.962   4.613
24458WAT     H173616   6.643   6.921   4.538
24458WAT     H273617   6.716   7.057   4.590
24459WAT      O73618   4.942   4.839   9.554
24459WAT     H173619   4.880   4.760   9.559
24459WAT     H273620   5.034   4.807   9.533
24460WAT      O73621   9.706   6.366   9.047
24460WAT     H173622   9.637   6.360   8.975
24460WAT     H273623   9.779   6.300   9.029
24461WAT      O73624   1.835   8.733   5.901
24461WAT     H173625   1.802   8.639   5.898
24461WAT     H273626   1.935   8.734   5.898
24462WAT      O73627   9.412   3.416   2.117
24462WAT     H173628   9.468   3.341   2.152
24462WAT     H273629   9.460   3.503   2.131
24463WAT      O73630   4.691   4.841   1.145
24463WAT     H173631   4.614   4.893   1.180
24463WAT     H273632   4.674   4.743   1.158
24464WAT      O73633   9.008   7.488   7.215
24464WAT     H173634   8.946   7.495   7.136
24464WAT     H273635   9.101   7.513   7.187
24465WAT      O73636   7.639   4.092   5.206
24465WAT     H173637   7.679   4.160   5.144
24465WAT     H273638   7.710   4.028   5.236
24466WAT      O73639   1.472   8.001   9.231
24466WAT     H173640   1.548   8.047   9.276
24466WAT     H273641   1.467   8.029   9.135
24467WAT      O73642   4.481   9.644   3.545
24467WAT     H173643   4.562   9.666   3.489
24467WAT     H273644   4.438   9.729   3.575
24468WAT      O73645   0.446   3.489   5.704
24468WAT     H173646   0.404   3.579   5.720
24468WAT     H273647   0.410   3.424   5.771
24469WAT      O73648   3.068   7.006   8.603
24469WAT     H173649   2.975   7.033   8.626
24469WAT     H273650   3.078   7.000   8.504
24470WAT      O73651   8.351   1.570   9.000
24470WAT     H173652   8.374   1.667   8.996
24470WAT     H273653   8.365   1.537   9.094
24471WAT      O73654   0.484   4.803   3.781
24471WAT     H173655   0.395   4.844   3.800
24471WAT     H273656   0.503   4.732   3.848
24472WAT      O73657   7.720   3.066   3.960
24472WAT     H173658   7.639   3.075   4.017
24472WAT     H273659   7.697   3.091   3.866
24473WAT      O73660   0.400   8.949   2.235
24473WAT     H173661   0.357   8.900   2.160
24473WAT     H273662   0.495   8.920   2.245
24474WAT      O73663   0.451   8.547   6.664
24474WAT     H173664   0.359   8.564   6.699
24474WAT     H273665   0.445   8.489   6.583
24475WAT      O73666   4.705   5.556   3.368
24475WAT     H173667   4.656   5.495   3.431
24475WAT     H273668   4.643   5.585   3.295
24476WAT      O73669   6.157   0.232   7.380
24476WAT     H173670   6.097   0.303   7.343
24476WAT     H273671   6.249   0.243   7.344
24477WAT      O73672   4.379   0.303   4.334
24477WAT     H173673   4.361   0.399   4.309
24477WAT     H273674   4.478   0.290   4.341
24478WAT      O73675   0.609   2.631   3.277
24478WAT     H173676   0.511   2.616   3.262
24478WAT     H273677   0.646   2.682   3.199
24479WAT      O73678   9.830   7.949   1.777
24479WAT     H173679   9.765   7.873   1.782
24479WAT     H273680   9.817   8.009   1.856
24480WAT      O73681   8.431   9.232   5.013
24480WAT     H173682   8.353   9.273   4.964
24480WAT     H273683   8.516   9.253   4.965
24481WAT      O73684   3.767   6.561   1.502
24481WAT     H173685   3.747   6.558   1.600
24481WAT     H273686   3.865   6.546   1.488
24482WAT      O73687   6.956   0.108   6.466
24482WAT     H173688   6.876   0.161   6.492
24482WAT     H273689   6.948   0.015   6.501
24483WAT      O73690   1.572   6.318   9.220
24483WAT     H173691   1.582   6.313   9.320
24483WAT     H273692   1.508   6.246   9.191
24484WAT      O73693   3.983   0.547   7.620
24484WAT     H173694   4.031   0.628   7.588
24484WAT     H273695   3.886   0.554   7.595
24485WAT      O73696   1.255   1.485   0.157
24485WAT     H173697   1.295   1.429   0.230
24485WAT     H273698   1.326   1.540   0.114
24486WAT      O73699   2.720   3.631   0.314
24486WAT     H173700   2.684   3.722   0.293
24486WAT     H273701   2.817   3.628   0.292
24487WAT      O73702   2.153   7.543   8.191
24487WAT     H173703   2.129   7.551   8.094
24487WAT     H273704   2.128   7.452   8.224
24488WAT      O73705   0.470   8.174   3.043
24488WAT     H173706   0.398   8.132   2.988
24488WAT     H273707   0.438   8.263   3.078
24489WAT      O73708   7.683   0.769   4.037
24489WAT     H173709   7.605   0.718   4.073
24489WAT     H273710   7.732   0.812   4.113
24490WAT      O73711   9.678   3.334   3.428
24490WAT     H173712   9.612   3.312   3.499
24490WAT     H273713   9.680   3.433   3.415
24491WAT      O73714   6.162   4.629   5.861
24491WAT     H173715   6.253   4.657   5.890
24491WAT     H273716   6.116   4.582   5.936
24492WAT      O73717   1.208   7.027   7.617
24492WAT     H173718   1.217   6.933   7.586
24492WAT     H273719   1.274   7.085   7.570
24493WAT      O73720   5.784   6.080   3.875
24493WAT     H173721   5.709   6.143   3.854
24493WAT     H273722   5.841   6.067   3.794
24494WAT      O73723   5.309   5.351   1.664
24494WAT     H173724   5.367   5.395   1.733
24494WAT     H273725   5.323   5.252   1.668
24495WAT      O73726   1.254   4.011   3.922
24495WAT     H173727   1.326   3.961   3.971
24495WAT     H273728   1.165   3.978   3.951
24496WAT      O73729   6.203   8.377   8.272
24496WAT     H173730   6.273   8.415   8.333
24496WAT     H273731   6.219   8.411   8.179
24497WAT      O73732   9.319   6.352   7.572
24497WAT     H173733   9.286   6.290   7.643
24497WAT     H273734   9.405   6.316   7.534
24498WAT      O73735   3.605   1.154   8.593
24498WAT     H173736   3.587   1.060   8.624
24498WAT     H273737   3.575   1.164   8.498
24499WAT      O73738   9.337   8.638   8.630
24499WAT     H173739   9.247   8.595   8.632
24499WAT     H273740   9.402   8.577   8.584
24500WAT      O73741   5.050   4.420   2.681
24500WAT     H173742   5.029   4.325   2.657
24500WAT     H273743   5.002   4.444   2.766
24501WAT      O73744   9.404   0.008   1.281
24501WAT     H173745   9.382  -0.027   1.372
24501WAT     H273746   9.376   0.104   1.274
24502WAT      O73747   8.696   3.292   3.324
24502WAT     H173748   8.766   3.360   3.305
24502WAT     H273749   8.661   3.306   3.417
24503WAT      O73750   5.474   6.515   6.036
24503WAT     H173751   5.414   6.571   5.978
24503WAT     H273752   5.566   6.554   6.035
24504WAT      O73753   8.954   3.787   9.659
24504WAT     H173754   8.995   3.863   9.710
24504WAT     H273755   8.880   3.822   9.602
24505WAT      O73756   7.092   3.393   8.966
24505WAT     H173757   7.023   3.412   9.036
24505WAT     H273758   7.048   3.352   8.886
24506WAT      O73759   5.020   5.768   3.353
24506WAT     H173760   4.940   5.809   3.396
24506WAT     H273761   5.099   5.828   3.364
24507WAT      O73762   1.154   2.596   7.274
24507WAT     H173763   1.224   2.633   7.212
24507WAT     H273764   1.111   2.517   7.232
24508WAT      O73765   3.712   8.080   7.769
24508WAT     H173766   3.740   7.998   7.820
24508WAT     H273767   3.687   8.152   7.834
24509WAT      O73768   2.287   6.545   9.314
24509WAT     H173769   2.336   6.515   9.231
24509WAT     H273770   2.353   6.561   9.387
24510WAT      O73771   8.192   3.992   8.872
24510WAT     H173772   8.129   3.953   8.805
24510WAT     H273773   8.149   4.071   8.916
24511WAT      O73774   7.114   2.015   2.363
24511WAT     H173775   7.117   2.077   2.284
24511WAT     H273776   7.024   1.972   2.368
24512WAT      O73777   6.237   3.019   4.742
24512WAT     H173778   6.188   2.962   4.808
24512WAT     H273779   6.281   2.961   4.674
24513WAT      O73780   0.894   2.771   3.985
24513WAT     H173781   0.821   2.781   3.918
24513WAT     H273782   0.954   2.696   3.957
24514WAT      O73783   1.054   5.441   2.242
24514WAT     H173784   1.079   5.359   2.292
24514WAT     H273785   1.076   5.522   2.296
24515WAT      O73786   3.354   3.611   8.377
24515WAT     H173787   3.436   3.555   8.361
24515WAT     H273788   3.279   3.576   8.321
24516WAT      O73789   1.463   0.121   9.040
24516WAT     H173790   1.488   0.044   8.982
24516WAT     H273791   1.451   0.202   8.984
24517WAT      O73792   1.193   0.514   6.308
24517WAT     H173793   1.269   0.570   6.342
24517WAT     H273794   1.124   0.573   6.267
24518WAT      O73795   6.901   1.509   3.494
24518WAT     H173796   6.915   1.410   3.502
24518WAT     H273797   6.832   1.527   3.425
24519WAT      O73798   3.895   1.431   1.571
24519WAT     H173799   3.960   1.502   1.543
24519WAT     H273800   3.821   1.473   1.624
24520WAT      O73801   1.742   8.542   2.682
24520WAT     H173802   1.689   8.486   2.746
24520WAT     H273803   1.758   8.632   2.721
24521WAT      O73804   1.259   8.695   2.215
24521WAT     H173805   1.310   8.703   2.129
24521WAT     H273806   1.313   8.641   2.280
24522WAT      O73807   6.324   3.996   6.072
24522WAT     H173808   6.242   3.945   6.102
24522WAT     H273809   6.335   3.987   5.974
24523WAT      O73810   7.974   8.812   5.806
24523WAT     H173811   8.067   8.839   5.782
24523WAT     H273812   7.977   8.724   5.854
24524WAT      O73813   9.639   0.446   0.595
24524WAT     H173814   9.593   0.494   0.670
24524WAT     H273815   9.736   0.433   0.618
24525WAT      O73816   3.941   5.401   9.823
24525WAT     H173817   3.851   5.439   9.800
24525WAT     H273818   4.010   5.443   9.765
24526WAT      O73819   6.415   7.161   6.497
24526WAT     H173820   6.443   7.117   6.583
24526WAT     H273821   6.316   7.153   6.486
24527WAT      O73822   9.419   8.433   2.607
24527WAT     H173823   9.459   8.448   2.698
24527WAT     H273824   9.323   8.459   2.609
24528WAT      O73825   0.348   7.076   9.106
24528WAT     H173826   0.287   7.027   9.168
24528WAT     H273827   0.345   7.033   9.016
24529WAT      O73828   6.999   0.877   9.054
24529WAT     H173829   6.987   0.814   9.130
24529WAT     H273830   7.065   0.947   9.079
24530WAT      O73831   2.892   4.205   4.321
24530WAT     H173832   2.959   4.182   4.250
24530WAT     H273833   2.836   4.125   4.340
24531WAT      O73834   4.793   6.782   9.873
24531WAT     H173835   4.765   6.701   9.821
24531WAT     H273836   4.892   6.793   9.866
24532WAT      O73837   8.722   0.492   9.502
24532WAT     H173838   8.801   0.465   9.446
24532WAT     H273839   8.722   0.591   9.515
24533WAT      O73840   9.218   6.280   3.513
24533WAT     H173841   9.185   6.318   3.427
24533WAT     H273842   9.151   6.299   3.585
24534WAT      O73843   4.711   2.021   0.059
24534WAT     H173844   4.700   1.988   0.153
24534WAT     H273845   4.724   2.121   0.061
24535WAT      O73846   8.890   6.680   1.608
24535WAT     H173847   8.943   6.609   1.653
24535WAT     H273848   8.800   6.644   1.584
24536WAT      O73849   5.687   2.841   0.259
24536WAT     H173850   5.706   2.755   0.306
24536WAT     H273851   5.744   2.849   0.177
24537WAT      O73852   5.674   3.838   5.250
24537WAT     H173853   5.766   3.822   5.215
24537WAT     H273854   5.680   3.875   5.343
24538WAT      O73855   3.712   6.162   2.517
24538WAT     H173856   3.786   6.161   2.450
24538WAT     H273857   3.751   6.166   2.609
24539WAT      O73858   0.293   8.110   2.870
24539WAT     H173859   0.312   8.020   2.831
24539WAT     H273860   0.237   8.163   2.806
24540WAT      O73861   1.547   3.463   2.642
24540WAT     H173862   1.511   3.550   2.609
24540WAT     H273863   1.472   3.409   2.682
24541WAT      O73864   6.842   3.440   0.430
24541WAT     H173865   6.748   3.428   0.462
24541WAT     H273866   6.845   3.427   0.331
24542WAT      O73867   3.615   5.586   8.379
24542WAT     H173868   3.608   5.638   8.294
24542WAT     H273869   3.565   5.500   8.370
24543WAT      O73870   9.335   8.797   6.286
24543WAT     H173871   9.375   8.707   6.265
24543WAT     H273872   9.240   8.799   6.256
24544WAT      O73873   1.200   0.721   8.169
24544WAT     H173874   1.100   0.724   8.168
24544WAT     H273875   1.231   0.639   8.217
24545WAT      O73876   2.121   6.015   7.517
24545WAT     H173877   2.200   5.959   7.539
24545WAT     H273878   2.058   6.017   7.594
24546WAT      O73879   2.888   1.363   1.107
24546WAT     H173880   2.958   1.396   1.170
24546WAT     H273881   2.928   1.295   1.046
24547WAT      O73882   2.065   6.132   4.767
24547WAT     H173883   2.101   6.161   4.678
24547WAT     H273884   2.039   6.213   4.820
24548WAT      O73885   9.775   0.091   0.246
24548WAT     H173886   9.774   0.137   0.335
24548WAT     H273887   9.803  -0.004   0.257
24549WAT      O73888   4.180   5.176   0.648
24549WAT     H173889   4.191   5.089   0.601
24549WAT     H273890   4.245   5.182   0.724
24550WAT      O73891   5.931   1.670   1.778
24550WAT     H173892   5.860   1.599   1.787
24550WAT     H273893   6.004   1.653   1.843
24551WAT      O73894   6.000   0.398   3.766
24551WAT     H173895   6.062   0.320   3.756
24551WAT     H273896   6.002   0.431   3.860
24552WAT      O73897   3.671   2.728   9.479
24552WAT     H173898   3.728   2.777   9.413
24552WAT     H273899   3.592   2.688   9.432
24553WAT      O73900   7.820   2.801   6.078
24553WAT     H173901   7.775   2.720   6.040
24553WAT     H273902   7.917   2.781   6.092
24554WAT      O73903   0.381   7.321   8.860
24554WAT     H173904   0.479   7.306   8.871
24554WAT     H273905   0.363   7.419   8.846
24555WAT      O73906   5.656   4.575   6.551
24555WAT     H173907   5.645   4.623   6.465
24555WAT     H273908   5.567   4.566   6.596
24556WAT      O73909   5.489   4.132   1.256
24556WAT     H173910   5.523   4.102   1.345
24556WAT     H273911   5.420   4.204   1.268
24557WAT      O73912   2.170   1.496   1.119
24557WAT     H173913   2.242   1.486   1.051
24557WAT     H273914   2.119   1.580   1.101
24558WAT      O73915   7.086   4.704   8.552
24558WAT     H173916   7.125   4.668   8.637
24558WAT     H273917   6.990   4.729   8.567
24559WAT      O73918   8.495   5.827   0.574
24559WAT     H173919   8.465   5.742   0.530
24559WAT     H273920   8.498   5.814   0.673
24560WAT      O73921   3.905   9.668   2.591
24560WAT     H173922   3.840   9.641   2.520
24560WAT     H273923   3.901   9.767   2.604
24561WAT      O73924   6.950   8.499   8.511
24561WAT     H173925   6.874   8.539   8.561
24561WAT     H273926   6.916   8.456   8.427
24562WAT      O73927   6.968   1.261   1.379
24562WAT     H173928   6.990   1.350   1.420
24562WAT     H273929   6.872   1.240   1.396
24563WAT      O73930   8.987   3.611   2.554
24563WAT     H173931   8.910   3.550   2.536
24563WAT     H273932   8.951   3.703   2.575
24564WAT      O73933   2.635   1.076   6.574
24564WAT     H173934   2.562   1.108   6.514
24564WAT     H273935   2.607   1.085   6.669
24565WAT      O73936   2.164   1.007   8.169
24565WAT     H173937   2.188   0.974   8.260
24565WAT     H273938   2.234   1.070   8.136
24566WAT      O73939   8.653   9.629   4.824
24566WAT     H173940   8.614   9.634   4.916
24566WAT     H273941   8.678   9.720   4.792
24567WAT      O73942   8.708   9.161   8.419
24567WAT     H173943   8.681   9.258   8.419
24567WAT     H273944   8.680   9.119   8.332
24568WAT      O73945   8.634   9.445   2.888
24568WAT     H173946   8.589   9.518   2.939
24568WAT     H273947   8.733   9.455   2.895
24569WAT      O73948   2.941   7.008   3.327
24569WAT     H173949   3.023   6.954   3.311
24569WAT     H273950   2.862   6.960   3.289
24570WAT      O73951   6.925   0.782   7.908
24570WAT     H173952   6.930   0.697   7.855
24570WAT     H273953   6.842   0.831   7.884
24571WAT      O73954   0.167   2.500   5.698
24571WAT     H173955   0.206   2.550   5.775
24571WAT     H273956   0.071   2.527   5.685
24572WAT      O73957   8.400   6.438   1.005
24572WAT     H173958   8.339   6.391   0.941
24572WAT     H273959   8.494   6.410   0.988
24573WAT      O73960   4.267   8.391   1.274
24573WAT     H173961   4.238   8.299   1.299
24573WAT     H273962   4.361   8.388   1.239
24574WAT      O73963   8.770   3.336   5.521
24574WAT     H173964   8.785   3.417   5.578
24574WAT     H273965   8.852   3.320   5.465
24575WAT      O73966   0.050   4.061   6.495
24575WAT     H173967  -0.021   4.050   6.425
24575WAT     H273968   0.123   3.994   6.479
24576WAT      O73969   7.513   5.580   1.128
24576WAT     H173970   7.610   5.602   1.116
24576WAT     H273971   7.495   5.557   1.223
24577WAT      O73972   1.134   0.596   0.834
24577WAT     H173973   1.096   0.682   0.868
24577WAT     H273974   1.228   0.611   0.803
24578WAT      O73975   9.498   0.905   7.328
24578WAT     H173976   9.566   0.969   7.292
24578WAT     H273977   9.541   0.846   7.397
24579WAT      O73978   7.788   0.187   8.081
24579WAT     H173979   7.719   0.165   8.150
24579WAT     H273980   7.812   0.104   8.031
24580WAT      O73981   6.620   0.280   4.625
24580WAT     H173982   6.541   0.335   4.601
24580WAT     H273983   6.606   0.186   4.594
24581WAT      O73984   3.309   7.245   2.571
24581WAT     H173985   3.281   7.300   2.650
24581WAT     H273986   3.404   7.265   2.549
24582WAT      O73987   3.578   7.813   5.696
24582WAT     H173988   3.515   7.816   5.619
24582WAT     H273989   3.660   7.867   5.674
24583WAT      O73990   8.650   1.456   1.263
24583WAT     H173991   8.724   1.411   1.313
24583WAT     H273992   8.563   1.415   1.290
24584WAT      O73993   3.243   8.337   4.339
24584WAT     H173994   3.237   8.392   4.256
24584WAT     H273995   3.151   8.313   4.370
24585WAT      O73996   0.329   2.133   2.399
24585WAT     H173997   0.390   2.057   2.422
24585WAT     H273998   0.293   2.174   2.483
24586WAT      O73999   5.380   0.550   6.353
24586WAT     H174000   5.480   0.544   6.352
24586WAT     H274001   5.346   0.564   6.260
24587WAT      O74002   6.859   3.412   0.122
24587WAT     H174003   6.949   3.422   0.080
24587WAT     H274004   6.791   3.395   0.051
24588WAT      O74005   0.435   1.834   3.019
24588WAT     H174006   0.480   1.746   3.007
24588WAT     H274007   0.341   1.820   3.050
24589WAT      O74008   7.957   1.121   8.025
24589WAT     H174009   7.952   1.096   7.928
24589WAT     H274010   7.903   1.056   8.079
24590WAT      O74011   4.316   8.537   2.829
24590WAT     H174012   4.364   8.450   2.843
24590WAT     H274013   4.220   8.518   2.808
24591WAT      O74014   2.563   2.063   9.681
24591WAT     H174015   2.579   2.121   9.760
24591WAT     H274016   2.521   1.977   9.710
24592WAT      O74017   0.384   5.922   3.454
24592WAT     H174018   0.339   5.843   3.495
24592WAT     H274019   0.481   5.904   3.442
24593WAT      O74020   7.732   8.861   1.869
24593WAT     H174021   7.639   8.834   1.842
24593WAT     H274022   7.798   8.825   1.804
24594WAT      O74023   1.392   9.667   3.297
24594WAT     H174024   1.327   9.721   3.243
24594WAT     H274025   1.435   9.726   3.366
24595WAT      O74026   3.285   5.951   2.713
24595WAT     H174027   3.313   5.914   2.624
24595WAT     H274028   3.250   5.876   2.770
24596WAT      O74029   3.571   7.828   4.402
24596WAT     H174030   3.518   7.875   4.472
24596WAT     H274031   3.550   7.731   4.403
24597WAT      O74032   7.360   7.163   9.657
24597WAT     H174033   7.278   7.128   9.703
24597WAT     H274034   7.416   7.212   9.723
24598WAT      O74035   4.289   8.947   7.335
24598WAT     H174036   4.213   8.938   7.271
24598WAT     H274037   4.375   8.946   7.285
24599WAT      O74038   2.979   3.745   7.413
24599WAT     H174039   2.919   3.723   7.336
24599WAT     H274040   3.051   3.807   7.383
24600WAT      O74041   7.199   3.531   5.984
24600WAT     H174042   7.262   3.584   5.928
24600WAT     H274043   7.227   3.536   6.080
24601WAT      O74044   0.768   7.432   1.881
24601WAT     H174045   0.839   7.463   1.946
24601WAT     H274046   0.793   7.461   1.789
24602WAT      O74047   2.207   3.198   8.254
24602WAT     H174048   2.133   3.209   8.189
24602WAT     H274049   2.262   3.282   8.257
24603WAT      O74050   2.474   2.789   8.306
24603WAT     H174051   2.406   2.856   8.336
24603WAT     H274052   2.452   2.699   8.343
24604WAT      O74053   2.632   3.194   7.085
24604WAT     H174054   2.556   3.222   7.144
24604WAT     H274055   2.615   3.103   7.049
24605WAT      O74056   6.967   3.358   3.276
24605WAT     H174057   6.935   3.437   3.223
24605WAT     H274058   6.913   3.277   3.252
24606WAT      O74059   1.861   6.980   9.132
24606WAT     H174060   1.877   6.912   9.060
24606WAT     H274061   1.776   7.029   9.112
24607WAT      O74062   4.012   1.689   9.108
24607WAT     H174063   4.028   1.606   9.162
24607WAT     H274064   4.082   1.697   9.037
24608WAT      O74065   8.427   9.112   6.452
24608WAT     H174066   8.375   9.141   6.532
24608WAT     H274067   8.391   9.159   6.371
24609WAT      O74068   7.040   9.753   9.737
24609WAT     H174069   6.954   9.738   9.687
24609WAT     H274070   7.066   9.669   9.784
24610WAT      O74071   0.513   4.157   7.842
24610WAT     H174072   0.493   4.098   7.919
24610WAT     H274073   0.572   4.232   7.871
24611WAT      O74074   5.112   5.420   6.707
24611WAT     H174075   5.180   5.392   6.775
24611WAT     H274076   5.148   5.496   6.652
24612WAT      O74077   8.412   1.317   1.628
24612WAT     H174078   8.402   1.221   1.654
24612WAT     H274079   8.356   1.373   1.688
24613WAT      O74080   2.269   3.739   7.131
24613WAT     H174081   2.216   3.824   7.131
24613WAT     H274082   2.350   3.751   7.074
24614WAT      O74083   4.178   0.515   3.164
24614WAT     H174084   4.090   0.468   3.154
24614WAT     H274085   4.225   0.479   3.245
24615WAT      O74086   1.879   1.391   2.545
24615WAT     H174087   1.837   1.409   2.456
24615WAT     H274088   1.862   1.296   2.572
24616WAT      O74089   5.234   4.984   0.827
24616WAT     H174090   5.145   4.945   0.801
24616WAT     H274091   5.237   5.081   0.802
24617WAT      O74092   3.544   1.632   4.508
24617WAT     H174093   3.554   1.610   4.605
24617WAT     H274094   3.597   1.714   4.486
24618WAT      O74095   8.333   9.243   6.248
24618WAT     H174096   8.350   9.339   6.225
24618WAT     H274097   8.238   9.231   6.276
24619WAT      O74098   6.544   8.056   5.393
24619WAT     H174099   6.464   8.101   5.433
24619WAT     H274100   6.557   7.967   5.437
24620WAT      O74101   0.685   4.623   8.381
24620WAT     H174102   0.736   4.593   8.462
24620WAT     H274103   0.713   4.717   8.358
24621WAT      O74104   5.756   6.032   3.046
24621WAT     H174105   5.809   6.116   3.039
24621WAT     H274106   5.667   6.045   3.003
24622WAT      O74107   1.695   0.312   1.590
24622WAT     H174108   1.716   0.297   1.686
24622WAT     H274109   1.605   0.273   1.569
24623WAT      O74110   7.294   2.798   5.858
24623WAT     H174111   7.364   2.774   5.925
24623WAT     H274112   7.337   2.823   5.772
24624WAT      O74113   1.544   0.416   3.846
24624WAT     H174114   1.471   0.429   3.778
24624WAT     H274115   1.622   0.475   3.823
24625WAT      O74116   8.957   3.320   4.692
24625WAT     H174117   9.013   3.367   4.760
24625WAT     H274118   8.938   3.383   4.616
24626WAT      O74119   5.352   5.829   3.742
24626WAT     H174120   5.387   5.817   3.649
24626WAT     H274121   5.399   5.907   3.785
24627WAT      O74122   2.951   3.076   4.856
24627WAT     H174123   2.979   2.985   4.886
24627WAT     H274124   2.865   3.102   4.900
24628WAT      O74125   3.194   1.938   8.898
24628WAT     H174126   3.182   1.969   8.993
24628WAT     H274127   3.287   1.903   8.887
24629WAT      O74128   7.451   2.202   4.205
24629WAT     H174129   7.399   2.172   4.125
24629WAT     H274130   7.519   2.132   4.228
24630WAT      O74131   8.702   5.640   8.552
24630WAT     H174132   8.603   5.634   8.543
24630WAT     H274133   8.728   5.733   8.575
24631WAT      O74134   7.786   9.512   8.166
24631WAT     H174135   7.757   9.520   8.071
24631WAT     H274136   7.770   9.598   8.213
24632WAT      O74137   3.183   0.405   8.140
24632WAT     H174138   3.154   0.437   8.230
24632WAT     H274139   3.113   0.345   8.102
24633WAT      O74140   5.262   9.141   0.733
24633WAT     H174141   5.272   9.231   0.777
24633WAT     H274142   5.296   9.145   0.639
24634WAT      O74143   2.849   8.493   3.422
24634WAT     H174144   2.764   8.442   3.407
24634WAT     H274145   2.927   8.434   3.399
24635WAT      O74146   7.958   5.965   9.364
24635WAT     H174147   8.015   6.044   9.388
24635WAT     H274148   7.949   5.959   9.265
24636WAT      O74149   2.611   7.974   3.088
24636WAT     H174150   2.607   7.885   3.134
24636WAT     H274151   2.545   8.037   3.130
24637WAT      O74152   5.450   5.357   3.785
24637WAT     H174153   5.394   5.365   3.867
24637WAT     H274154   5.391   5.363   3.704
24638WAT      O74155   9.670   0.740   5.378
24638WAT     H174156   9.750   0.798   5.364
24638WAT     H274157   9.588   0.797   5.386
24639WAT      O74158   0.076   6.824   6.503
24639WAT     H174159  -0.012   6.853   6.466
24639WAT     H274160   0.065   6.737   6.551
24640WAT      O74161   6.684   2.868   3.710
24640WAT     H174162   6.681   2.855   3.611
24640WAT     H274163   6.642   2.790   3.755
24641WAT      O74164   8.119   1.812   8.753
24641WAT     H174165   8.179   1.892   8.750
24641WAT     H274166   8.029   1.839   8.785
24642WAT      O74167   8.903   3.888   2.642
24642WAT     H174168   8.859   3.841   2.718
24642WAT     H274169   8.852   3.971   2.620
24643WAT      O74170   1.550   9.576   4.247
24643WAT     H174171   1.631   9.526   4.216
24643WAT     H274172   1.574   9.636   4.323
24644WAT      O74173   3.001   2.041   0.483
24644WAT     H174174   3.071   2.089   0.429
24644WAT     H274175   3.015   2.061   0.580
24645WAT      O74176   4.398   7.933   4.571
24645WAT     H174177   4.311   7.887   4.588
24645WAT     H274178   4.393   8.027   4.606
24646WAT      O74179   3.023   6.330   1.233
24646WAT     H174180   3.123   6.327   1.237
24646WAT     H274181   2.990   6.250   1.183
24647WAT      O74182   5.145   9.818   3.497
24647WAT     H174183   5.155   9.774   3.586
24647WAT     H274184   5.215   9.890   3.488
24648WAT      O74185   2.861   9.640   4.739
24648WAT     H174186   2.904   9.550   4.730
24648WAT     H274187   2.809   9.644   4.824
24649WAT      O74188   3.475   9.602   7.364
24649WAT     H174189   3.516   9.514   7.338
24649WAT     H274190   3.435   9.645   7.284
24650WAT      O74191   1.369   4.943   3.686
24650WAT     H174192   1.443   4.940   3.619
24650WAT     H274193   1.384   5.020   3.748
24651WAT      O74194   5.503   1.725   0.030
24651WAT     H174195   5.580   1.662   0.017
24651WAT     H274196   5.419   1.682  -0.003
24652WAT      O74197   4.185   0.825   4.557
24652WAT     H174198   4.199   0.863   4.466
24652WAT     H274199   4.189   0.898   4.626
24653WAT      O74200   6.917   9.211   2.020
24653WAT     H174201   6.845   9.232   1.955
24653WAT     H274202   6.991   9.162   1.973
24654WAT      O74203   0.818   1.422   3.701
24654WAT     H174204   0.782   1.394   3.790
24654WAT     H274205   0.854   1.342   3.653
24655WAT      O74206   9.832   6.630   4.604
24655WAT     H174207   9.910   6.675   4.648
24655WAT     H274208   9.773   6.699   4.561
24656WAT      O74209   0.786   3.750   7.652
24656WAT     H174210   0.872   3.726   7.607
24656WAT     H274211   0.723   3.788   7.585
24657WAT      O74212   7.797   5.434   4.502
24657WAT     H174213   7.763   5.358   4.557
24657WAT     H274214   7.727   5.505   4.496
24658WAT      O74215   4.648   1.559   2.548
24658WAT     H174216   4.686   1.484   2.494
24658WAT     H274217   4.556   1.581   2.515
24659WAT      O74218   1.957   1.412   0.079
24659WAT     H174219   1.980   1.333   0.023
24659WAT     H274220   2.012   1.411   0.162
24660WAT      O74221   9.234   7.744   2.528
24660WAT     H174222   9.296   7.823   2.522
24660WAT     H274223   9.202   7.719   2.436
24661WAT      O74224   8.211   5.680   8.525
24661WAT     H174225   8.218   5.704   8.622
24661WAT     H274226   8.115   5.659   8.504
24662WAT      O74227   0.213   3.222   0.620
24662WAT     H174228   0.211   3.321   0.636
24662WAT     H274229   0.192   3.174   0.705
24663WAT      O74230   9.816   1.931   2.104
24663WAT     H174231   9.889   1.903   2.042
24663WAT     H274232   9.771   2.012   2.068
24664WAT      O74233   0.158   6.234   4.074
24664WAT     H174234   0.137   6.331   4.064
24664WAT     H274235   0.085   6.180   4.033
24665WAT      O74236   6.362   7.297   5.005
24665WAT     H174237   6.352   7.231   4.930
24665WAT     H274238   6.434   7.265   5.067
24666WAT      O74239   7.627   7.349   6.402
24666WAT     H174240   7.648   7.418   6.332
24666WAT     H274241   7.710   7.327   6.453
24667WAT      O74242   2.206   5.851   6.757
24667WAT     H174243   2.235   5.925   6.818
24667WAT     H274244   2.173   5.889   6.671
24668WAT      O74245   5.480   6.164   0.818
24668WAT     H174246   5.487   6.081   0.873
24668WAT     H274247   5.558   6.224   0.838
24669WAT      O74248   4.732   6.595   6.247
24669WAT     H174249   4.822   6.555   6.268
24669WAT     H274250   4.663   6.556   6.308
24670WAT      O74251   5.191   0.199   2.791
24670WAT     H174252   5.219   0.290   2.820
24670WAT     H274253   5.091   0.193   2.789
24671WAT      O74254   1.439   0.718   3.101
24671WAT     H174255   1.469   0.721   3.197
24671WAT     H274256   1.504   0.664   3.047
24672WAT      O74257   2.177   8.700   8.377
24672WAT     H174258   2.146   8.642   8.452
24672WAT     H274259   2.098   8.744   8.335
24673WAT      O74260   1.273   2.149   2.761
24673WAT     H174261   1.305   2.125   2.670
24673WAT     H274262   1.246   2.067   2.810
24674WAT      O74263   7.724   1.586   8.567
24674WAT     H174264   7.637   1.557   8.529
24674WAT     H274265   7.798   1.531   8.527
24675WAT      O74266   7.451   2.581   7.609
24675WAT     H174267   7.366   2.551   7.566
24675WAT     H274268   7.430   2.626   7.696
24676WAT      O74269   0.480   7.177   4.802
24676WAT     H174270   0.465   7.095   4.746
24676WAT     H274271   0.468   7.259   4.745
24677WAT      O74272   4.013   8.207   6.600
24677WAT     H174273   4.026   8.174   6.506
24677WAT     H274274   3.947   8.149   6.647
24678WAT      O74275   0.304   0.896   7.799
24678WAT     H174276   0.288   0.984   7.842
24678WAT     H274277   0.366   0.842   7.856
24679WAT      O74278   9.490   9.406   3.258
24679WAT     H174279   9.565   9.470   3.276
24679WAT     H274280   9.489   9.383   3.160
24680WAT      O74281   5.011   9.171   7.668
24680WAT     H174282   4.965   9.151   7.581
24680WAT     H274283   5.058   9.088   7.700
24681WAT      O74284   6.938   1.586   2.992
24681WAT     H174285   6.977   1.661   2.940
24681WAT     H274286   6.948   1.604   3.090
24682WAT      O74287   2.700   5.705   5.885
24682WAT     H174288   2.709   5.798   5.920
24682WAT     H274289   2.698   5.641   5.962
24683WAT      O74290   1.517   8.390   7.121
24683WAT     H174291   1.532   8.294   7.147
24683WAT     H274292   1.508   8.446   7.203
24684WAT      O74293   1.033   9.289   4.956
24684WAT     H174294   1.065   9.296   4.861
24684WAT     H274295   1.110   9.301   5.018
24685WAT      O74296   6.551   0.711   0.631
24685WAT     H174297   6.489   0.782   0.668
24685WAT     H274298   6.499   0.628   0.614
24686WAT      O74299   3.773   1.181   0.818
24686WAT     H174300   3.783   1.215   0.724
24686WAT     H274301   3.759   1.259   0.879
24687WAT      O74302   6.494   8.816   6.710
24687WAT     H174303   6.475   8.813   6.808
24687WAT     H274304   6.577   8.764   6.691
24688WAT      O74305   5.156   4.150   8.983
24688WAT     H174306   5.073   4.102   9.011
24688WAT     H274307   5.136   4.247   8.969
24689WAT      O74308   0.100   0.361   7.811
24689WAT     H174309   0.066   0.449   7.843
24689WAT     H274310   0.062   0.288   7.868
24690WAT      O74311   9.185   0.876   2.771
24690WAT     H174312   9.182   0.938   2.850
24690WAT     H274313   9.147   0.787   2.798
24691WAT      O74314   9.355   1.346   3.582
24691WAT     H174315   9.270   1.395   3.561
24691WAT     H274316   9.335   1.250   3.601
24692WAT      O74317   2.270   9.266   6.642
24692WAT     H174318   2.360   9.233   6.614
24692WAT     H274319   2.270   9.366   6.643
24693WAT      O74320   8.871   5.757   6.132
24693WAT     H174321   8.913   5.709   6.055
24693WAT     H274322   8.850   5.691   6.205
24694WAT      O74323   7.651   0.538   7.729
24694WAT     H174324   7.569   0.592   7.708
24694WAT     H274325   7.687   0.497   7.646
24695WAT      O74326   9.380   9.430   9.236
24695WAT     H174327   9.464   9.377   9.225
24695WAT     H274328   9.368   9.490   9.157
24696WAT      O74329   4.672   9.783   4.673
24696WAT     H174330   4.700   9.877   4.653
24696WAT     H274331   4.573   9.775   4.661
24697WAT      O74332   1.401   2.431   6.228
24697WAT     H174333   1.432   2.403   6.137
24697WAT     H274334   1.408   2.354   6.291
24698WAT      O74335   3.249   6.796   7.418
24698WAT     H174336   3.321   6.741   7.377
24698WAT     H274337   3.234   6.878   7.362
24699WAT      O74338   9.621   9.018   4.209
24699WAT     H174339   9.701   9.024   4.269
24699WAT     H274340   9.571   8.933   4.227
24700WAT      O74341   4.410   1.795   8.718
24700WAT     H174342   4.412   1.696   8.705
24700WAT     H274343   4.335   1.834   8.664
24701WAT      O74344   0.775   5.962   9.141
24701WAT     H174345   0.802   5.907   9.062
24701WAT     H274346   0.765   5.903   9.221
24702WAT      O74347   5.359   9.816   5.464
24702WAT     H174348   5.338   9.768   5.549
24702WAT     H274349   5.332   9.759   5.386
24703WAT      O74350   0.933   8.735   2.652
24703WAT     H174351   0.869   8.810   2.668
24703WAT     H274352   0.957   8.732   2.555
24704WAT      O74353   0.688   2.758   7.708
24704WAT     H174354   0.664   2.739   7.803
24704WAT     H274355   0.776   2.805   7.704
24705WAT      O74356   3.492   5.211   7.580
24705WAT     H174357   3.466   5.173   7.668
24705WAT     H274358   3.519   5.137   7.518
24706WAT      O74359   8.675   5.993   3.338
24706WAT     H174360   8.625   6.074   3.369
24706WAT     H274361   8.642   5.913   3.387
24707WAT      O74362   9.849   6.836   3.565
24707WAT     H174363   9.924   6.876   3.618
24707WAT     H274364   9.839   6.886   3.479
24708WAT      O74365   3.033   6.922   1.039
24708WAT     H174366   3.014   7.017   1.016
24708WAT     H274367   3.095   6.883   0.971
24709WAT      O74368   7.748   8.894   8.498
24709WAT     H174369   7.715   8.867   8.589
24709WAT     H274370   7.770   8.991   8.498
24710WAT      O74371   1.517   7.702   4.078
24710WAT     H174372   1.580   7.637   4.036
24710WAT     H274373   1.568   7.767   4.133
24711WAT      O74374   8.133   7.714   9.236
24711WAT     H174375   8.164   7.622   9.212
24711WAT     H274376   8.034   7.714   9.246
24712WAT      O74377   8.440   2.427   4.857
24712WAT     H174378   8.386   2.510   4.838
24712WAT     H274379   8.523   2.452   4.907
24713WAT      O74380   8.395   3.596   9.238
24713WAT     H174381   8.470   3.549   9.284
24713WAT     H274382   8.409   3.591   9.139
24714WAT      O74383   0.808   2.338   6.993
24714WAT     H174384   0.832   2.263   6.931
24714WAT     H274385   0.708   2.343   7.001
24715WAT      O74386   3.336   3.650   0.396
24715WAT     H174387   3.431   3.674   0.378
24715WAT     H274388   3.290   3.626   0.310
24716WAT      O74389   8.295   6.559   0.210
24716WAT     H174390   8.242   6.616   0.147
24716WAT     H274391   8.326   6.615   0.287
24717WAT      O74392   5.553   6.083   4.133
24717WAT     H174393   5.650   6.102   4.116
24717WAT     H274394   5.516   6.151   4.196
24718WAT      O74395   3.228   2.165   0.030
24718WAT     H174396   3.269   2.142   0.118
24718WAT     H274397   3.225   2.264   0.019
24719WAT      O74398   6.673   5.727   6.780
24719WAT     H174399   6.675   5.771   6.690
24719WAT     H274400   6.579   5.699   6.801
24720WAT      O74401   3.195   3.538   2.332
24720WAT     H174402   3.099   3.564   2.325
24720WAT     H274403   3.225   3.542   2.427
24721WAT      O74404   8.044   2.594   5.091
24721WAT     H174405   8.079   2.521   5.032
24721WAT     H274406   7.971   2.643   5.043
24722WAT      O74407   2.305   3.827   9.086
24722WAT     H174408   2.338   3.820   8.992
24722WAT     H274409   2.330   3.915   9.124
24723WAT      O74410   5.744   8.115   7.451
24723WAT     H174411   5.668   8.175   7.425
24723WAT     H274412   5.766   8.055   7.374
24724WAT      O74413   5.568   2.199   7.318
24724WAT     H174414   5.483   2.215   7.368
24724WAT     H274415   5.631   2.275   7.334
24725WAT      O74416   3.113   9.252   1.882
24725WAT     H174417   3.142   9.156   1.880
24725WAT     H274418   3.194   9.311   1.878
24726WAT      O74419   4.198   2.238   3.168
24726WAT     H174420   4.192   2.315   3.105
24726WAT     H274421   4.117   2.181   3.159
24727WAT      O74422   4.442   8.818   5.016
24727WAT     H174423   4.479   8.859   4.933
24727WAT     H274424   4.361   8.764   4.993
24728WAT      O74425   2.036   8.071   7.701
24728WAT     H174426   2.099   8.147   7.714
24728WAT     H274427   2.045   8.006   7.777
24729WAT      O74428   4.682   3.909   1.980
24729WAT     H174429   4.686   3.923   2.079
24729WAT     H274430   4.724   3.987   1.934
24730WAT      O74431   4.282   1.701   2.135
24730WAT     H174432   4.206   1.638   2.151
24730WAT     H274433   4.368   1.651   2.144
24731WAT      O74434   2.067   3.120   5.036
24731WAT     H174435   2.153   3.101   4.989
24731WAT     H274436   2.086   3.151   5.129
24732WAT      O74437   3.220   2.087   5.756
24732WAT     H174438   3.143   2.122   5.811
24732WAT     H274439   3.306   2.108   5.802
24733WAT      O74440   3.859   0.924   8.461
24733WAT     H174441   3.792   0.958   8.395
24733WAT     H274442   3.856   0.979   8.544
24734WAT      O74443   3.869   5.768   9.414
24734WAT     H174444   3.795   5.746   9.350
24734WAT     H274445   3.911   5.684   9.447
24735WAT      O74446   7.652   0.602   5.574
24735WAT     H174447   7.745   0.628   5.602
24735WAT     H274448   7.587   0.627   5.646
24736WAT      O74449   3.401   1.520   9.674
24736WAT     H174450   3.447   1.608   9.671
24736WAT     H274451   3.319   1.528   9.732
24737WAT      O74452   4.858   0.563   9.026
24737WAT     H174453   4.798   0.518   8.959
24737WAT     H274454   4.807   0.577   9.111
24738WAT      O74455   7.149   7.174   7.112
24738WAT     H174456   7.142   7.236   7.033
24738WAT     H274457   7.075   7.193   7.176
24739WAT      O74458   2.561   2.250   2.572
24739WAT     H174459   2.484   2.186   2.574
24739WAT     H274460   2.642   2.203   2.538
24740WAT      O74461   2.373   1.260   0.889
24740WAT     H174462   2.288   1.240   0.841
24740WAT     H274463   2.446   1.277   0.823
24741WAT      O74464   9.670   4.543   8.354
24741WAT     H174465   9.633   4.558   8.445
24741WAT     H274466   9.765   4.512   8.360
24742WAT      O74467   4.503   8.318   2.500
24742WAT     H174468   4.405   8.317   2.521
24742WAT     H274469   4.516   8.290   2.405
24743WAT      O74470   7.189   1.629   8.589
24743WAT     H174471   7.209   1.667   8.679
24743WAT     H274472   7.098   1.586   8.591
24744WAT      O74473   9.832   4.973   7.690
24744WAT     H174474   9.737   4.991   7.713
24744WAT     H274475   9.844   4.979   7.591
24745WAT      O74476   5.217   1.240   3.379
24745WAT     H174477   5.166   1.301   3.320
24745WAT     H274478   5.275   1.293   3.441
24746WAT      O74479   4.121   9.680   7.517
24746WAT     H174480   4.047   9.746   7.529
24746WAT     H274481   4.082   9.589   7.505
24747WAT      O74482   5.539   9.825   1.162
24747WAT     H174483   5.499   9.909   1.198
24747WAT     H274484   5.603   9.787   1.228
24748WAT      O74485   7.251   0.523   8.042
24748WAT     H174486   7.268   0.526   7.944
24748WAT     H274487   7.158   0.554   8.061
24749WAT      O74488   4.544   3.120   2.168
24749WAT     H174489   4.460   3.166   2.197
24749WAT     H274490   4.543   3.025   2.198
24750WAT      O74491   5.357   6.800   3.822
24750WAT     H174492   5.343   6.899   3.818
24750WAT     H274493   5.407   6.776   3.905
24751WAT      O74494   4.605   4.185   9.157
24751WAT     H174495   4.690   4.237   9.160
24751WAT     H274496   4.605   4.125   9.077
24752WAT      O74497   1.104   8.424   1.978
24752WAT     H174498   1.014   8.458   1.950
24752WAT     H274499   1.119   8.444   2.075
24753WAT      O74500   6.573   1.949   8.015
24753WAT     H174501   6.508   2.021   7.989
24753WAT     H274502   6.646   1.944   7.947
24754WAT      O74503   2.590   3.217   9.501
24754WAT     H174504   2.509   3.159   9.496
24754WAT     H274505   2.574   3.292   9.565
24755WAT      O74506   7.117   9.491   3.392
24755WAT     H174507   7.083   9.482   3.298
24755WAT     H274508   7.136   9.400   3.429
24756WAT      O74509   1.219   7.915   7.688
24756WAT     H174510   1.133   7.872   7.658
24756WAT     H274511   1.237   7.889   7.783
24757WAT      O74512   4.306   3.469   4.080
24757WAT     H174513   4.253   3.545   4.042
24757WAT     H274514   4.253   3.385   4.071
24758WAT      O74515   1.577   1.045   4.459
24758WAT     H174516   1.643   0.970   4.462
24758WAT     H274517   1.623   1.131   4.481
24759WAT      O74518   1.581   4.093   9.729
24759WAT     H174519   1.545   4.185   9.747
24759WAT     H274520   1.646   4.097   9.653
24760WAT      O74521   8.862   0.388   5.088
24760WAT     H174522   8.807   0.339   5.021
24760WAT     H274523   8.819   0.382   5.178
24761WAT      O74524   4.971   8.169   3.351
24761WAT     H174525   5.062   8.133   3.332
24761WAT     H274526   4.903   8.111   3.305
24762WAT      O74527   2.756   6.483   7.375
24762WAT     H174528   2.768   6.384   7.385
24762WAT     H274529   2.682   6.514   7.435
24763WAT      O74530   9.271   2.048   4.545
24763WAT     H174531   9.325   2.055   4.629
24763WAT     H274532   9.318   2.097   4.471
24764WAT      O74533   8.312   0.842   6.872
24764WAT     H174534   8.357   0.884   6.951
24764WAT     H274535   8.228   0.892   6.852
24765WAT      O74536   8.207   9.575   1.473
24765WAT     H174537   8.195   9.603   1.568
24765WAT     H274538   8.117   9.568   1.429
24766WAT      O74539   1.773   4.002   1.118
24766WAT     H174540   1.857   3.967   1.160
24766WAT     H274541   1.756   3.954   1.032
24767WAT      O74542   0.717   8.159   8.990
24767WAT     H174543   0.750   8.140   8.898
24767WAT     H274544   0.652   8.234   8.988
24768WAT      O74545   5.617   8.734   3.641
24768WAT     H174546   5.597   8.797   3.716
24768WAT     H274547   5.716   8.722   3.633
24769WAT      O74548   9.505   8.269   0.210
24769WAT     H174549   9.578   8.334   0.234
24769WAT     H274550   9.544   8.194   0.157
24770WAT      O74551   1.641   6.547   4.325
24770WAT     H174552   1.599   6.563   4.236
24770WAT     H274553   1.731   6.505   4.311
24771WAT      O74554   6.295   9.621   3.034
24771WAT     H174555   6.233   9.619   3.112
24771WAT     H274556   6.246   9.594   2.951
24772WAT      O74557   3.285   9.199   4.010
24772WAT     H174558   3.258   9.234   3.920
24772WAT     H274559   3.304   9.101   4.004
24773WAT      O74560   4.121   6.284   5.015
24773WAT     H174561   4.117   6.196   5.063
24773WAT     H274562   4.129   6.268   4.917
24774WAT      O74563   5.510   1.245   7.316
24774WAT     H174564   5.413   1.221   7.320
24774WAT     H274565   5.561   1.171   7.273
24775WAT      O74566   2.391   6.989   1.345
24775WAT     H174567   2.370   7.085   1.364
24775WAT     H274568   2.348   6.931   1.415
24776WAT      O74569   7.305   9.677   5.338
24776WAT     H174570   7.316   9.611   5.412
24776WAT     H274571   7.364   9.756   5.354
24777WAT      O74572   0.317   2.005   6.184
24777WAT     H174573   0.319   2.104   6.192
24777WAT     H274574   0.411   1.970   6.178
24778WAT      O74575   7.381   7.335   2.235
24778WAT     H174576   7.398   7.410   2.298
24778WAT     H274577   7.414   7.360   2.144
24779WAT      O74578   6.660   0.078   2.575
24779WAT     H174579   6.648   0.083   2.674
24779WAT     H274580   6.601   0.146   2.531
24780WAT      O74581   5.640   3.933   6.291
24780WAT     H174582   5.730   3.977   6.285
24780WAT     H274583   5.585   3.960   6.212
24781WAT      O74584   1.624   6.625   2.918
24781WAT     H174585   1.616   6.536   2.964
24781WAT     H274586   1.611   6.613   2.820
24782WAT      O74587   0.117   6.606   8.181
24782WAT     H174588   0.042   6.572   8.124
24782WAT     H274589   0.163   6.681   8.133
24783WAT      O74590   4.541   8.947   4.800
24783WAT     H174591   4.632   8.954   4.759
24783WAT     H274592   4.474   8.926   4.729
24784WAT      O74593   4.247   6.416   7.952
24784WAT     H174594   4.193   6.452   8.028
24784WAT     H274595   4.344   6.433   7.967
24785WAT      O74596   7.378   3.418   1.058
24785WAT     H174597   7.449   3.488   1.056
24785WAT     H274598   7.360   3.390   1.152
24786WAT      O74599   9.359   8.056   3.397
24786WAT     H174600   9.387   8.085   3.305
24786WAT     H274601   9.440   8.039   3.453
24787WAT      O74602   6.031   8.428   2.504
24787WAT     H174603   6.044   8.438   2.602
24787WAT     H274604   6.005   8.334   2.483
24788WAT      O74605   9.469   0.053   8.445
24788WAT     H174606   9.426  -0.021   8.497
24788WAT     H274607   9.568   0.040   8.444
24789WAT      O74608   3.128   7.886   2.522
24789WAT     H174609   3.035   7.877   2.488
24789WAT     H274610   3.146   7.817   2.591
24790WAT      O74611   0.903   7.742   4.899
24790WAT     H174612   0.981   7.722   4.958
24790WAT     H274613   0.821   7.754   4.955
24791WAT      O74614   1.362   7.765   0.656
24791WAT     H174615   1.337   7.683   0.603
24791WAT     H274616   1.447   7.803   0.620
24792WAT      O74617   6.982   5.847   1.619
24792WAT     H174618   7.057   5.794   1.658
24792WAT     H274619   6.990   5.943   1.647
24793WAT      O74620   8.686   8.211   3.345
24793WAT     H174621   8.708   8.188   3.440
24793WAT     H274622   8.763   8.261   3.305
24794WAT      O74623   7.309   8.170   7.183
24794WAT     H174624   7.223   8.168   7.133
24794WAT     H274625   7.385   8.161   7.119
24795WAT      O74626   1.507   4.475   1.493
24795WAT     H174627   1.504   4.473   1.593
24795WAT     H274628   1.594   4.437   1.462
24796WAT      O74629   7.100   8.174   7.011
24796WAT     H174630   7.149   8.147   6.928
24796WAT     H274631   7.070   8.269   7.003
24797WAT      O74632   7.509   2.756   6.657
24797WAT     H174633   7.573   2.682   6.636
24797WAT     H274634   7.454   2.776   6.576
24798WAT      O74635   9.012   1.562   1.862
24798WAT     H174636   9.097   1.566   1.809
24798WAT     H274637   8.934   1.579   1.801
24799WAT      O74638   1.122   2.710   1.820
24799WAT     H174639   1.149   2.672   1.732
24799WAT     H274640   1.090   2.804   1.808
24800WAT      O74641   6.936   1.927   3.032
24800WAT     H174642   6.907   1.933   3.127
24800WAT     H274643   6.861   1.893   2.975
24801WAT      O74644   7.170   9.462   6.875
24801WAT     H174645   7.134   9.373   6.846
24801WAT     H274646   7.101   9.511   6.927
24802WAT      O74647   4.203   3.870   1.343
24802WAT     H174648   4.120   3.911   1.380
24802WAT     H274649   4.268   3.853   1.417
24803WAT      O74650   6.490   8.884   0.175
24803WAT     H174651   6.499   8.898   0.274
24803WAT     H274652   6.394   8.891   0.148
24804WAT      O74653   0.110   9.102   9.161
24804WAT     H174654   0.139   9.183   9.212
24804WAT     H274655   0.010   9.105   9.149
24805WAT      O74656   9.143   4.722   2.959
24805WAT     H174657   9.090   4.805   2.941
24805WAT     H274658   9.084   4.653   2.998
24806WAT      O74659   4.671   5.267   5.364
24806WAT     H174660   4.728   5.263   5.445
24806WAT     H274661   4.711   5.212   5.291
24807WAT      O74662   8.464   2.258   8.904
24807WAT     H174663   8.557   2.273   8.937
24807WAT     H274664   8.450   2.161   8.884
24808WAT      O74665   1.968   6.672   1.737
24808WAT     H174666   1.991   6.588   1.689
24808WAT     H274667   1.984   6.660   1.835
24809WAT      O74668   4.482   1.869   5.033
24809WAT     H174669   4.385   1.844   5.030
24809WAT     H274670   4.533   1.800   5.083
24810WAT      O74671   5.884   1.831   9.582
24810WAT     H174672   5.920   1.741   9.603
24810WAT     H274673   5.803   1.848   9.638
24811WAT      O74674   2.990   2.631   8.103
24811WAT     H174675   2.945   2.598   8.020
24811WAT     H274676   3.087   2.644   8.086
24812WAT      O74677   0.555   1.171   8.127
24812WAT     H174678   0.460   1.202   8.121
24812WAT     H274679   0.611   1.245   8.164
24813WAT      O74680   4.155   7.173   0.820
24813WAT     H174681   4.136   7.229   0.740
24813WAT     H274682   4.217   7.099   0.795
24814WAT      O74683   5.657   4.207   9.460
24814WAT     H174684   5.615   4.216   9.370
24814WAT     H274685   5.586   4.190   9.529
24815WAT      O74686   0.718   1.823   5.618
24815WAT     H174687   0.765   1.891   5.562
24815WAT     H274688   0.785   1.767   5.667
24816WAT      O74689   3.375   2.116   8.720
24816WAT     H174690   3.341   2.192   8.776
24816WAT     H274691   3.415   2.046   8.778
24817WAT      O74692   2.158   4.306   9.659
24817WAT     H174693   2.139   4.307   9.561
24817WAT     H274694   2.236   4.366   9.679
24818WAT      O74695   8.807   6.591   7.647
24818WAT     H174696   8.884   6.639   7.691
24818WAT     H274697   8.832   6.569   7.553
24819WAT      O74698   9.845   5.509   9.879
24819WAT     H174699   9.891   5.501   9.968
24819WAT     H274700   9.912   5.495   9.806
24820WAT      O74701   6.815   5.419   9.825
24820WAT     H174702   6.755   5.389   9.750
24820WAT     H274703   6.761   5.431   9.908
24821WAT      O74704   0.317   6.789   6.367
24821WAT     H174705   0.244   6.828   6.423
24821WAT     H274706   0.281   6.767   6.276
24822WAT      O74707   2.948   6.020   2.889
24822WAT     H174708   2.983   6.085   2.956
24822WAT     H274709   2.927   6.068   2.804
24823WAT      O74710   5.665   8.010   4.598
24823WAT     H174711   5.570   8.037   4.613
24823WAT     H274712   5.715   8.012   4.685
24824WAT      O74713   7.784   3.304   7.915
24824WAT     H174714   7.698   3.274   7.873
24824WAT     H274715   7.840   3.225   7.938
24825WAT      O74716   2.898   8.464   4.213
24825WAT     H174717   2.907   8.435   4.118
24825WAT     H274718   2.830   8.407   4.259
24826WAT      O74719   1.942   6.238   6.113
24826WAT     H174720   1.987   6.323   6.142
24826WAT     H274721   1.921   6.243   6.015
24827WAT      O74722   5.466   8.855   5.714
24827WAT     H174723   5.397   8.784   5.729
24827WAT     H274724   5.467   8.917   5.791
24828WAT      O74725   0.808   3.373   7.340
24828WAT     H174726   0.784   3.463   7.304
24828WAT     H274727   0.883   3.335   7.286
24829WAT      O74728   0.602   2.454   5.314
24829WAT     H174729   0.509   2.417   5.317
24829WAT     H274730   0.602   2.548   5.346
24830WAT      O74731   7.463   4.294   1.473
24830WAT     H174732   7.541   4.285   1.411
24830WAT     H274733   7.390   4.232   1.444
24831WAT      O74734   1.677   2.517   1.140
24831WAT     H174735   1.692   2.435   1.085
24831WAT     H274736   1.706   2.501   1.234
24832WAT      O74737   1.033   2.390   3.028
24832WAT     H174738   0.984   2.316   3.074
24832WAT     H274739   1.132   2.372   3.033
24833WAT      O74740   1.153   1.397   0.750
24833WAT     H174741   1.090   1.329   0.711
24833WAT     H274742   1.105   1.451   0.819
24834WAT      O74743   9.459   6.822   4.633
24834WAT     H174744   9.497   6.781   4.716
24834WAT     H274745   9.532   6.842   4.568
24835WAT      O74746   9.387   9.322   7.723
24835WAT     H174747   9.390   9.373   7.636
24835WAT     H274748   9.398   9.386   7.799
24836WAT      O74749   4.776   9.677   2.039
24836WAT     H174750   4.742   9.632   1.957
24836WAT     H274751   4.814   9.608   2.101
24837WAT      O74752   0.441   2.745   2.014
24837WAT     H174753   0.387   2.730   2.097
24837WAT     H274754   0.409   2.683   1.942
24838WAT      O74755   9.129   0.798   4.531
24838WAT     H174756   9.032   0.806   4.509
24838WAT     H274757   9.139   0.774   4.628
24839WAT      O74758   3.495   8.746   4.051
24839WAT     H174759   3.592   8.751   4.076
24839WAT     H274760   3.444   8.700   4.124
24840WAT      O74761   5.058   3.046   6.246
24840WAT     H174762   5.029   2.968   6.191
24840WAT     H274763   5.111   3.109   6.189
24841WAT      O74764   9.249   9.111   4.501
24841WAT     H174765   9.230   9.013   4.498
24841WAT     H274766   9.287   9.141   4.413
24842WAT      O74767   2.536   4.239   7.486
24842WAT     H174768   2.522   4.244   7.585
24842WAT     H274769   2.541   4.144   7.457
24843WAT      O74770   5.829   0.876   2.696
24843WAT     H174771   5.868   0.942   2.632
24843WAT     H274772   5.762   0.922   2.755
24844WAT      O74773   7.830   6.996   8.640
24844WAT     H174774   7.779   6.948   8.712
24844WAT     H274775   7.792   7.088   8.628
24845WAT      O74776   1.828   3.362   8.983
24845WAT     H174777   1.887   3.394   9.057
24845WAT     H274778   1.809   3.437   8.919
24846WAT      O74779   8.851   4.653   7.731
24846WAT     H174780   8.822   4.570   7.779
24846WAT     H274781   8.949   4.647   7.710
24847WAT      O74782   3.178   5.494   9.744
24847WAT     H174783   3.207   5.544   9.825
24847WAT     H274784   3.257   5.473   9.687
24848WAT      O74785   3.990   6.578   5.575
24848WAT     H174786   3.952   6.498   5.529
24848WAT     H274787   4.072   6.609   5.527
24849WAT      O74788   0.586   3.226   7.145
24849WAT     H174789   0.628   3.232   7.236
24849WAT     H274790   0.508   3.288   7.140
24850WAT      O74791   9.142   1.046   1.102
24850WAT     H174792   9.059   1.102   1.096
24850WAT     H274793   9.161   1.024   1.197
24851WAT      O74794   9.889   7.839   4.742
24851WAT     H174795   9.965   7.788   4.703
24851WAT     H274796   9.809   7.780   4.751
24852WAT      O74797   9.406   9.524   5.538
24852WAT     H174798   9.345   9.590   5.582
24852WAT     H274799   9.371   9.500   5.448
24853WAT      O74800   6.630   8.890   5.924
24853WAT     H174801   6.654   8.968   5.865
24853WAT     H274802   6.564   8.920   5.993
24854WAT      O74803   5.312   2.026   9.345
24854WAT     H174804   5.246   1.979   9.404
24854WAT     H274805   5.401   1.979   9.352
24855WAT      O74806   6.975   5.496   4.675
24855WAT     H174807   7.037   5.541   4.739
24855WAT     H274808   6.974   5.546   4.589
24856WAT      O74809   3.367   5.547   2.227
24856WAT     H174810   3.337   5.469   2.283
24856WAT     H274811   3.288   5.607   2.210
24857WAT      O74812   5.172   9.461   7.981
24857WAT     H174813   5.165   9.440   7.884
24857WAT     H274814   5.261   9.503   7.999
24858WAT      O74815   2.382   7.592   8.695
24858WAT     H174816   2.356   7.524   8.626
24858WAT     H274817   2.299   7.633   8.733
24859WAT      O74818   3.903   2.177   1.189
24859WAT     H174819   3.942   2.134   1.271
24859WAT     H274820   3.897   2.109   1.116
24860WAT      O74821   1.224   8.697   0.718
24860WAT     H174822   1.141   8.654   0.683
24860WAT     H274823   1.230   8.791   0.683
24861WAT      O74824   9.294   9.310   8.918
24861WAT     H174825   9.276   9.401   8.955
24861WAT     H274826   9.388   9.305   8.885
24862WAT      O74827   0.106   4.008   3.738
24862WAT     H174828   0.165   4.067   3.792
24862WAT     H274829   0.045   3.956   3.799
24863WAT      O74830   4.309   6.441   1.247
24863WAT     H174831   4.249   6.474   1.320
24863WAT     H274832   4.301   6.342   1.240
24864WAT      O74833   9.871   8.051   0.675
24864WAT     H174834   9.792   8.100   0.712
24864WAT     H274835   9.948   8.114   0.666
24865WAT      O74836   5.579   5.791   0.679
24865WAT     H174837   5.570   5.861   0.609
24865WAT     H274838   5.674   5.788   0.710
24866WAT      O74839   5.749   0.575   1.225
24866WAT     H174840   5.691   0.644   1.268
24866WAT     H274841   5.843   0.587   1.255
24867WAT      O74842   5.735   4.548   8.292
24867WAT     H174843   5.787   4.602   8.226
24867WAT     H274844   5.768   4.454   8.291
24868WAT      O74845   6.124   0.502   6.468
24868WAT     H174846   6.126   0.516   6.369
24868WAT     H274847   6.176   0.419   6.490
24869WAT      O74848   6.313   5.257   6.140
24869WAT     H174849   6.294   5.179   6.080
24869WAT     H274850   6.308   5.228   6.236
24870WAT      O74851   1.819   3.869   4.834
24870WAT     H174852   1.902   3.878   4.890
24870WAT     H274853   1.765   3.791   4.867
24871WAT      O74854   0.399   5.006   8.244
24871WAT     H174855   0.389   4.993   8.146
24871WAT     H274856   0.309   5.007   8.288
24872WAT      O74857   0.505   8.372   0.560
24872WAT     H174858   0.597   8.388   0.525
24872WAT     H274859   0.485   8.437   0.634
24873WAT      O74860   2.969   2.247   5.377
24873WAT     H174861   2.872   2.247   5.403
24873WAT     H274862   3.025   2.266   5.458
24874WAT      O74863   5.339   7.036   1.516
24874WAT     H174864   5.431   7.042   1.555
24874WAT     H274865   5.272   7.056   1.587
24875WAT      O74866   3.544   4.733   9.223
24875WAT     H174867   3.534   4.650   9.168
24875WAT     H274868   3.613   4.719   9.294
24876WAT      O74869   2.578   4.937   3.438
24876WAT     H174870   2.629   4.961   3.356
24876WAT     H274871   2.602   4.844   3.467
24877WAT      O74872   1.947   0.719   2.456
24877WAT     H174873   1.898   0.750   2.537
24877WAT     H274874   1.910   0.631   2.426
24878WAT      O74875   1.474   0.863   1.836
24878WAT     H174876   1.469   0.815   1.924
24878WAT     H274877   1.445   0.801   1.763
24879WAT      O74878   0.200   5.712   0.619
24879WAT     H174879   0.161   5.664   0.541
24879WAT     H274880   0.186   5.658   0.702
24880WAT      O74881   3.456   5.735   2.936
24880WAT     H174882   3.383   5.771   2.994
24880WAT     H274883   3.517   5.678   2.991
24881WAT      O74884   6.883   5.538   8.559
24881WAT     H174885   6.845   5.597   8.488
24881WAT     H274886   6.983   5.545   8.557
24882WAT      O74887   8.477   8.649   6.714
24882WAT     H174888   8.423   8.733   6.708
24882WAT     H274889   8.499   8.617   6.622
24883WAT      O74890   6.671   2.115   6.070
24883WAT     H174891   6.770   2.127   6.066
24883WAT     H274892   6.634   2.109   5.977
24884WAT      O74893   0.160   6.746   5.201
24884WAT     H174894   0.257   6.761   5.183
24884WAT     H274895   0.148   6.713   5.295
24885WAT      O74896   5.194   1.184   5.380
24885WAT     H174897   5.138   1.171   5.298
24885WAT     H274898   5.289   1.161   5.360
24886WAT      O74899   3.246   9.286   8.867
24886WAT     H174900   3.326   9.280   8.927
24886WAT     H274901   3.170   9.237   8.908
24887WAT      O74902   9.379   2.745   0.884
24887WAT     H174903   9.309   2.781   0.946
24887WAT     H274904   9.336   2.715   0.799
24888WAT      O74905   1.530   7.939   4.722
24888WAT     H174906   1.474   7.866   4.761
24888WAT     H274907   1.607   7.900   4.672
24889WAT      O74908   5.880   3.162   8.790
24889WAT     H174909   5.869   3.077   8.738
24889WAT     H274910   5.975   3.172   8.818
24890WAT      O74911   4.229   1.273   6.829
24890WAT     H174912   4.267   1.361   6.800
24890WAT     H274913   4.216   1.214   6.749
24891WAT      O74914   1.219   7.366   1.656
24891WAT     H174915   1.310   7.365   1.699
24891WAT     H274916   1.205   7.455   1.612
24892WAT      O74917   4.908   3.448   6.406
24892WAT     H174918   4.880   3.475   6.314
24892WAT     H274919   4.830   3.407   6.454
24893WAT      O74920   0.877   3.952   1.124
24893WAT     H174921   0.846   4.027   1.066
24893WAT     H274922   0.951   3.903   1.078
24894WAT      O74923   5.005   3.193   2.621
24894WAT     H174924   5.072   3.233   2.558
24894WAT     H274925   5.039   3.105   2.654
24895WAT      O74926   1.172   4.113   2.926
24895WAT     H174927   1.153   4.204   2.889
24895WAT     H274928   1.266   4.109   2.959
24896WAT      O74929   5.706   3.955   0.879
24896WAT     H174930   5.696   3.880   0.944
24896WAT     H274931   5.668   4.039   0.919
24897WAT      O74932   7.697   6.952   3.846
24897WAT     H174933   7.688   6.855   3.822
24897WAT     H274934   7.678   6.964   3.943
24898WAT      O74935   5.172   0.353   8.074
24898WAT     H174936   5.087   0.361   8.126
24898WAT     H274937   5.241   0.413   8.114
24899WAT      O74938   7.476   6.751   2.084
24899WAT     H174939   7.425   6.671   2.114
24899WAT     H274940   7.476   6.820   2.158
24900WAT      O74941   8.778   8.812   0.956
24900WAT     H174942   8.803   8.718   0.979
24900WAT     H274943   8.681   8.817   0.933
24901WAT      O74944   2.804   5.381   7.104
24901WAT     H174945   2.889   5.385   7.157
24901WAT     H274946   2.792   5.289   7.067
24902WAT      O74947   4.568   5.694   8.584
24902WAT     H174948   4.547   5.742   8.670
24902WAT     H274949   4.483   5.672   8.537
24903WAT      O74950   7.350   4.876   8.023
24903WAT     H174951   7.368   4.963   8.070
24903WAT     H274952   7.398   4.876   7.935
24904WAT      O74953   9.207   5.332   9.262
24904WAT     H174954   9.249   5.338   9.353
24904WAT     H274955   9.261   5.385   9.197
24905WAT      O74956   9.273   6.607   8.896
24905WAT     H174957   9.192   6.646   8.940
24905WAT     H274958   9.281   6.510   8.920
24906WAT      O74959   8.051   9.179   5.547
24906WAT     H174960   8.144   9.164   5.512
24906WAT     H274961   8.051   9.170   5.646
24907WAT      O74962   4.254   0.703   2.770
24907WAT     H174963   4.230   0.620   2.720
24907WAT     H274964   4.213   0.782   2.724
24908WAT      O74965   8.280   3.601   5.262
24908WAT     H174966   8.341   3.629   5.336
24908WAT     H274967   8.319   3.626   5.174
24909WAT      O74968   6.703   7.697   2.878
24909WAT     H174969   6.653   7.781   2.902
24909WAT     H274970   6.775   7.681   2.946
24910WAT      O74971   9.353   7.618   4.463
24910WAT     H174972   9.348   7.636   4.561
24910WAT     H274973   9.439   7.654   4.426
24911WAT      O74974   1.423   1.784   8.376
24911WAT     H174975   1.477   1.792   8.292
24911WAT     H274976   1.450   1.701   8.426
24912WAT      O74977   4.365   4.628   8.069
24912WAT     H174978   4.301   4.567   8.023
24912WAT     H274979   4.359   4.719   8.027
24913WAT      O74980   6.184   9.454   3.989
24913WAT     H174981   6.144   9.449   4.081
24913WAT     H274982   6.283   9.444   3.996
24914WAT      O74983   4.519   7.513   1.649
24914WAT     H174984   4.480   7.516   1.557
24914WAT     H274985   4.618   7.497   1.643
24915WAT      O74986   2.498   3.648   8.847
24915WAT     H174987   2.570   3.676   8.910
24915WAT     H274988   2.529   3.568   8.794
24916WAT      O74989   3.014   4.369   2.600
24916WAT     H174990   3.062   4.400   2.518
24916WAT     H274991   2.978   4.448   2.649
24917WAT      O74992   1.121   7.892   2.009
24917WAT     H174993   1.028   7.922   1.989
24917WAT     H274994   1.136   7.893   2.108
24918WAT      O74995   4.979   5.121   6.662
24918WAT     H174996   5.025   5.049   6.714
24918WAT     H274997   4.978   5.206   6.715
24919WAT      O74998   2.586   1.248   3.882
24919WAT     H174999   2.650   1.174   3.902
24919WAT     H275000   2.631   1.317   3.825
24920WAT      O75001   1.738   5.799   0.943
24920WAT     H175002   1.827   5.800   0.989
24920WAT     H275003   1.713   5.892   0.917
24921WAT      O75004   4.027   2.663   8.179
24921WAT     H175005   4.063   2.599   8.111
24921WAT     H275006   3.988   2.743   8.132
24922WAT      O75007   8.145   7.356   6.848
24922WAT     H175008   8.147   7.443   6.799
24922WAT     H275009   8.053   7.340   6.885
24923WAT      O75010   0.294   7.110   1.094
24923WAT     H175011   0.277   7.016   1.125
24923WAT     H275012   0.215   7.167   1.116
24924WAT      O75013   5.945   5.161   5.920
24924WAT     H175014   5.899   5.182   6.006
24924WAT     H275015   6.011   5.088   5.935
24925WAT      O75016   9.825   2.495   4.293
24925WAT     H175017   9.857   2.446   4.375
24925WAT     H275018   9.740   2.454   4.260
24926WAT      O75019   7.729   0.571   0.171
24926WAT     H175020   7.796   0.500   0.196
24926WAT     H275021   7.741   0.595   0.074
24927WAT      O75022   0.493   7.071   6.096
24927WAT     H175023   0.394   7.070   6.080
24927WAT     H275024   0.517   7.151   6.150
24928WAT      O75025   4.248   9.103   1.244
24928WAT     H175026   4.187   9.181   1.256
24928WAT     H275027   4.343   9.133   1.246
24929WAT      O75028   4.910   6.245   6.419
24929WAT     H175029   4.880   6.152   6.401
24929WAT     H275030   4.860   6.282   6.497
24930WAT      O75031   0.437   4.657   4.488
24930WAT     H175032   0.468   4.661   4.393
24930WAT     H275033   0.340   4.677   4.492
24931WAT      O75034   7.187   0.751   9.480
24931WAT     H175035   7.222   0.768   9.388
24931WAT     H275036   7.263   0.728   9.541
24932WAT      O75037   2.454   9.127   9.854
24932WAT     H175038   2.420   9.053   9.795
24932WAT     H275039   2.391   9.204   9.850
24933WAT      O75040   8.946   3.003   5.835
24933WAT     H175041   8.969   2.924   5.893
24933WAT     H275042   8.996   2.997   5.749
24934WAT      O75043   9.317   5.357   6.423
24934WAT     H175044   9.227   5.362   6.380
24934WAT     H275045   9.352   5.449   6.437
24935WAT      O75046   4.419   3.378   7.475
24935WAT     H175047   4.404   3.296   7.419
24935WAT     H275048   4.468   3.353   7.558
24936WAT      O75049   1.910   4.585   3.560
24936WAT     H175050   1.884   4.559   3.467
24936WAT     H275051   1.840   4.553   3.624
24937WAT      O75052   5.103   4.219   8.270
24937WAT     H175053   5.021   4.163   8.262
24937WAT     H275054   5.184   4.163   8.252
24938WAT      O75055   8.070   4.461   8.648
24938WAT     H175056   8.137   4.464   8.573
24938WAT     H275057   8.027   4.550   8.657
24939WAT      O75058   9.427   6.273   1.018
24939WAT     H175059   9.399   6.253   0.924
24939WAT     H275060   9.500   6.211   1.045
24940WAT      O75061   0.394   9.634   0.429
24940WAT     H175062   0.454   9.659   0.504
24940WAT     H275063   0.400   9.535   0.414
24941WAT      O75064   7.629   2.655   8.382
24941WAT     H175065   7.668   2.737   8.423
24941WAT     H275066   7.608   2.673   8.286
24942WAT      O75067   6.183   4.705   0.944
24942WAT     H175068   6.171   4.799   0.911
24942WAT     H275069   6.167   4.641   0.870
24943WAT      O75070   5.746   9.193   3.385
24943WAT     H175071   5.649   9.176   3.405
24943WAT     H275072   5.797   9.108   3.392
24944WAT      O75073   0.041   2.937   1.555
24944WAT     H175074  -0.001   2.951   1.645
24944WAT     H275075   0.045   3.024   1.506
24945WAT      O75076   7.439   5.909   8.179
24945WAT     H175077   7.424   5.882   8.274
24945WAT     H275078   7.352   5.903   8.129
24946WAT      O75079   8.405   5.680   7.441
24946WAT     H175080   8.488   5.692   7.386
24946WAT     H275081   8.353   5.603   7.405
24947WAT      O75082   1.106   8.845   5.982
24947WAT     H175083   1.182   8.815   6.040
24947WAT     H275084   1.142   8.896   5.904
24948WAT      O75085   9.550   0.231   5.814
24948WAT     H175086   9.535   0.147   5.762
24948WAT     H275087   9.580   0.303   5.752
24949WAT      O75088   8.449   2.604   8.355
24949WAT     H175089   8.371   2.573   8.300
24949WAT     H275090   8.420   2.678   8.415
24950WAT      O75091   7.350   7.219   1.832
24950WAT     H175092   7.279   7.161   1.871
24950WAT     H275093   7.328   7.237   1.736
24951WAT      O75094   3.894   3.748   1.052
24951WAT     H175095   3.870   3.739   0.956
24951WAT     H275096   3.914   3.844   1.073
24952WAT      O75097   5.463   6.932   9.686
24952WAT     H175098   5.530   7.005   9.670
24952WAT     H275099   5.447   6.883   9.600
24953WAT      O75100   5.039   3.645   5.532
24953WAT     H175101   5.015   3.655   5.628
24953WAT     H275102   5.114   3.708   5.510
24954WAT      O75103   9.224   4.205   3.845
24954WAT     H175104   9.319   4.229   3.863
24954WAT     H275105   9.200   4.120   3.892
24955WAT      O75106   0.118   9.711   3.366
24955WAT     H175107   0.129   9.671   3.275
24955WAT     H275108   0.030   9.683   3.405
24956WAT      O75109   2.358   4.792   3.287
24956WAT     H175110   2.265   4.797   3.324
24956WAT     H275111   2.420   4.843   3.347
24957WAT      O75112   3.312   9.016   2.410
24957WAT     H175113   3.408   9.017   2.441
24957WAT     H275114   3.309   9.016   2.310
24958WAT      O75115   3.691   3.013   5.926
24958WAT     H175116   3.604   2.972   5.902
24958WAT     H275117   3.677   3.085   5.995
24959WAT      O75118   2.922   0.996   4.917
24959WAT     H175119   2.953   1.043   4.834
24959WAT     H275120   2.983   1.020   4.992
24960WAT      O75121   6.576   6.704   1.046
24960WAT     H175122   6.653   6.756   1.086
24960WAT     H275123   6.540   6.642   1.115
24961WAT      O75124   7.000   9.664   5.411
24961WAT     H175125   7.029   9.752   5.375
24961WAT     H275126   7.056   9.641   5.491
24962WAT      O75127   6.231   3.051   1.169
24962WAT     H175128   6.263   3.000   1.249
24962WAT     H275129   6.274   3.141   1.167
24963WAT      O75130   1.191   1.895   3.370
24963WAT     H175131   1.169   1.798   3.378
24963WAT     H275132   1.269   1.906   3.308
24964WAT      O75133   3.591   3.634   4.523
24964WAT     H175134   3.505   3.634   4.574
24964WAT     H275135   3.594   3.714   4.464
24965WAT      O75136   4.141   7.779   5.649
24965WAT     H175137   4.155   7.680   5.641
24965WAT     H275138   4.098   7.814   5.566
24966WAT      O75139   3.535   8.288   7.889
24966WAT     H175140   3.455   8.230   7.906
24966WAT     H275141   3.511   8.384   7.907
24967WAT      O75142   5.302   1.893   2.326
24967WAT     H175143   5.209   1.912   2.354
24967WAT     H275144   5.361   1.886   2.406
24968WAT      O75145   9.560   3.363   8.718
24968WAT     H175146   9.507   3.383   8.635
24968WAT     H275147   9.632   3.298   8.696
24969WAT      O75148   6.076   8.878   8.965
24969WAT     H175149   6.076   8.779   8.952
24969WAT     H275150   5.997   8.918   8.919
24970WAT      O75151   0.354   5.723   1.620
24970WAT     H175152   0.425   5.741   1.688
24970WAT     H275153   0.265   5.750   1.658
24971WAT      O75154   7.510   5.397   0.199
24971WAT     H175155   7.590   5.338   0.192
24971WAT     H275156   7.473   5.392   0.292
24972WAT      O75157   6.811   0.725   3.934
24972WAT     H175158   6.893   0.780   3.917
24972WAT     H275159   6.755   0.769   4.004
24973WAT      O75160   3.514   1.908   9.884
24973WAT     H175161   3.429   1.893   9.935
24973WAT     H275162   3.510   1.996   9.837
24974WAT      O75163   6.500   7.954   5.941
24974WAT     H175164   6.574   7.897   5.906
24974WAT     H275165   6.510   8.047   5.905
24975WAT      O75166   9.318   7.357   4.675
24975WAT     H175167   9.278   7.278   4.721
24975WAT     H275168   9.255   7.434   4.679
24976WAT      O75169   4.217   6.528   9.315
24976WAT     H175170   4.240   6.622   9.341
24976WAT     H275171   4.215   6.471   9.398
24977WAT      O75172   6.792   1.809   2.820
24977WAT     H175173   6.703   1.789   2.861
24977WAT     H275174   6.823   1.730   2.768
24978WAT      O75175   6.922   3.285   9.320
24978WAT     H175176   6.889   3.293   9.226
24978WAT     H275177   6.874   3.351   9.378
24979WAT      O75178   5.914   4.551   9.443
24979WAT     H175179   5.820   4.583   9.436
24979WAT     H275180   5.915   4.456   9.474
24980WAT      O75181   8.023   0.789   2.261
24980WAT     H175182   8.062   0.789   2.169
24980WAT     H275183   7.943   0.849   2.264
24981WAT      O75184   8.562   7.424   5.184
24981WAT     H175185   8.494   7.352   5.166
24981WAT     H275186   8.654   7.385   5.178
24982WAT      O75187   8.719   8.470   5.738
24982WAT     H175188   8.647   8.459   5.669
24982WAT     H275189   8.679   8.463   5.829
24983WAT      O75190   6.380   0.074   8.365
24983WAT     H175191   6.309   0.138   8.336
24983WAT     H275192   6.338   0.001   8.419
24984WAT      O75193   9.464   5.830   3.073
24984WAT     H175194   9.492   5.773   3.150
24984WAT     H275195   9.540   5.837   3.008
24985WAT      O75196   4.372   7.744   5.485
24985WAT     H175197   4.454   7.691   5.507
24985WAT     H275198   4.346   7.799   5.564
24986WAT      O75199   1.189   1.316   4.958
24986WAT     H175200   1.137   1.298   4.875
24986WAT     H275201   1.229   1.231   4.992
24987WAT      O75202   4.669   4.474   1.919
24987WAT     H175203   4.669   4.498   1.822
24987WAT     H275204   4.596   4.524   1.965
24988WAT      O75205   4.381   3.241   4.462
24988WAT     H175206   4.371   3.296   4.545
24988WAT     H275207   4.473   3.252   4.425
24989WAT      O75208   7.975   8.245   6.928
24989WAT     H175209   7.955   8.243   7.025
24989WAT     H275210   7.971   8.339   6.894
24990WAT      O75211   2.958   2.702   6.836
24990WAT     H175212   2.945   2.775   6.904
24990WAT     H275213   2.869   2.668   6.807
24991WAT      O75214   0.590   8.764   4.694
24991WAT     H175215   0.592   8.692   4.625
24991WAT     H275216   0.496   8.794   4.708
24992WAT      O75217   8.226   7.620   8.427
24992WAT     H175218   8.173   7.553   8.479
24992WAT     H275219   8.187   7.711   8.440
24993WAT      O75220   0.191   7.821   6.560
24993WAT     H175221   0.258   7.749   6.545
24993WAT     H275222   0.238   7.909   6.567
24994WAT      O75223   7.641   1.409   2.581
24994WAT     H175224   7.557   1.402   2.634
24994WAT     H275225   7.669   1.505   2.574
24995WAT      O75226   7.779   7.342   1.772
24995WAT     H175227   7.719   7.420   1.755
24995WAT     H275228   7.724   7.259   1.779
24996WAT      O75229   4.441   0.226   7.013
24996WAT     H175230   4.507   0.175   7.068
24996WAT     H275231   4.349   0.203   7.042
24997WAT      O75232   8.825   6.719   3.551
24997WAT     H175233   8.858   6.735   3.458
24997WAT     H275234   8.737   6.765   3.563
24998WAT      O75235   9.831   8.175   4.691
24998WAT     H175236   9.907   8.137   4.743
24998WAT     H275237   9.749   8.120   4.706
24999WAT      O75238   7.648   4.380   6.172
24999WAT     H175239   7.572   4.316   6.172
24999WAT     H275240   7.681   4.393   6.266
25000WAT      O75241   8.275   7.456   7.845
25000WAT     H175242   8.260   7.507   7.929
25000WAT     H275243   8.363   7.484   7.805
25001WAT      O75244   5.915   3.785   6.677
25001WAT     H175245   5.877   3.693   6.689
25001WAT     H275246   5.851   3.852   6.715
25002WAT      O75247   1.658   8.759   6.173
25002WAT     H175248   1.673   8.783   6.269
25002WAT     H275249   1.674   8.839   6.115
25003WAT      O75250   7.153   0.314   2.919
25003WAT     H175251   7.092   0.391   2.902
25003WAT     H275252   7.098   0.234   2.944
25004WAT      O75253   4.874   0.825   0.575
25004WAT     H175254   4.972   0.810   0.568
25004WAT     H275255   4.829   0.796   0.491
25005WAT      O75256   9.619   8.321   3.219
25005WAT     H175257   9.656   8.402   3.263
25005WAT     H275258   9.685   8.246   3.226
25006WAT      O75259   5.810   4.991   0.436
25006WAT     H175260   5.855   4.922   0.493
25006WAT     H275261   5.870   5.015   0.360
25007WAT      O75262   2.806   4.100   8.560
25007WAT     H175263   2.830   4.015   8.608
25007WAT     H275264   2.890   4.146   8.531
25008WAT      O75265   0.818   0.597   3.252
25008WAT     H175266   0.781   0.668   3.191
25008WAT     H275267   0.748   0.527   3.266
25009WAT      O75268   9.417   2.474   6.306
25009WAT     H175269   9.391   2.446   6.399
25009WAT     H275270   9.413   2.574   6.300
25010WAT      O75271   1.486   8.018   7.942
25010WAT     H175272   1.521   8.030   7.849
25010WAT     H275273   1.506   7.925   7.973
25011WAT      O75274   2.716   4.336   4.141
25011WAT     H175275   2.655   4.411   4.166
25011WAT     H275276   2.762   4.301   4.223
25012WAT      O75277   3.252   5.164   1.780
25012WAT     H175278   3.195   5.082   1.768
25012WAT     H275279   3.326   5.143   1.844
25013WAT      O75280   8.881   0.972   9.712
25013WAT     H175281   8.827   1.056   9.702
25013WAT     H275282   8.976   0.996   9.729
25014WAT      O75283   4.713   4.928   8.329
25014WAT     H175284   4.747   4.948   8.237
25014WAT     H275285   4.626   4.974   8.343
25015WAT      O75286   5.411   3.525   8.104
25015WAT     H175287   5.377   3.439   8.067
25015WAT     H275288   5.415   3.520   8.204
25016WAT      O75289   3.351   0.024   0.921
25016WAT     H175290   3.275   0.024   0.856
25016WAT     H275291   3.355  -0.064   0.968
25017WAT      O75292   0.874   9.587   9.725
25017WAT     H175293   0.947   9.584   9.657
25017WAT     H275294   0.823   9.672   9.715
25018WAT      O75295   1.624   1.987   9.428
25018WAT     H175296   1.681   2.061   9.393
25018WAT     H275297   1.547   1.973   9.366
25019WAT      O75298   5.663   4.568   0.489
25019WAT     H175299   5.636   4.614   0.573
25019WAT     H275300   5.582   4.530   0.444
25020WAT      O75301   7.442   0.290   6.829
25020WAT     H175302   7.370   0.311   6.895
25020WAT     H275303   7.439   0.357   6.754
25021WAT      O75304   6.623   2.085   3.858
25021WAT     H175305   6.644   1.988   3.842
25021WAT     H275306   6.527   2.094   3.885
25022WAT      O75307   5.623   5.493   1.836
25022WAT     H175308   5.713   5.536   1.843
25022WAT     H275309   5.561   5.554   1.787
25023WAT      O75310   8.421   3.556   4.505
25023WAT     H175311   8.362   3.587   4.430
25023WAT     H275312   8.443   3.634   4.564
25024WAT      O75313   8.049   1.437   6.844
25024WAT     H175314   7.959   1.446   6.801
25024WAT     H275315   8.119   1.436   6.773
25025WAT      O75316   8.949   6.598   6.987
25025WAT     H175317   8.898   6.612   6.902
25025WAT     H275318   8.975   6.502   6.995
25026WAT      O75319   5.728   9.340   2.956
25026WAT     H175320   5.689   9.251   2.979
25026WAT     H275321   5.663   9.412   2.979
25027WAT      O75322   7.903   0.614   6.087
25027WAT     H175323   7.930   0.518   6.101
25027WAT     H275324   7.884   0.656   6.175
25028WAT      O75325   7.245   7.125   5.339
25028WAT     H175326   7.172   7.147   5.403
25028WAT     H275327   7.331   7.112   5.388
25029WAT      O75328   8.545   1.124   8.419
25029WAT     H175329   8.464   1.101   8.365
25029WAT     H275330   8.551   1.223   8.430
25030WAT      O75331   3.096   7.572   6.705
25030WAT     H175332   2.998   7.555   6.691
25030WAT     H275333   3.110   7.668   6.726
25031WAT      O75334   5.028   4.331   6.306
25031WAT     H175335   4.999   4.346   6.400
25031WAT     H275336   5.124   4.305   6.304
25032WAT      O75337   6.465   3.349   8.387
25032WAT     H175338   6.514   3.268   8.419
25032WAT     H275339   6.496   3.373   8.295
25033WAT      O75340   6.419   1.757   6.418
25033WAT     H175341   6.368   1.683   6.374
25033WAT     H275342   6.368   1.843   6.406
25034WAT      O75343   7.433   6.022   4.277
25034WAT     H175344   7.440   6.121   4.268
25034WAT     H275345   7.475   5.978   4.198
25035WAT      O75346   8.143   9.214   5.183
25035WAT     H175347   8.190   9.302   5.194
25035WAT     H275348   8.187   9.145   5.240
25036WAT      O75349   5.050   9.223   7.312
25036WAT     H175350   5.009   9.314   7.309
25036WAT     H275351   5.143   9.229   7.347
25037WAT      O75352   3.743   8.949   4.477
25037WAT     H175353   3.661   8.999   4.450
25037WAT     H275354   3.794   8.921   4.395
25038WAT      O75355   8.336   2.261   8.571
25038WAT     H175356   8.264   2.325   8.545
25038WAT     H275357   8.380   2.293   8.655
25039WAT      O75358   7.086   1.014   3.274
25039WAT     H175359   7.007   1.068   3.246
25039WAT     H275360   7.106   1.031   3.370
25040WAT      O75361   3.668   5.992   4.163
25040WAT     H175362   3.606   5.964   4.236
25040WAT     H275363   3.753   6.025   4.203
25041WAT      O75364   2.396   5.870   1.932
25041WAT     H175365   2.474   5.915   1.977
25041WAT     H275366   2.361   5.797   1.990
25042WAT      O75367   1.893   1.740   7.301
25042WAT     H175368   1.931   1.804   7.234
25042WAT     H275369   1.968   1.691   7.346
25043WAT      O75370   1.297   7.100   7.178
25043WAT     H175371   1.254   7.092   7.088
25043WAT     H275372   1.364   7.028   7.189
25044WAT      O75373   1.946   0.522   0.710
25044WAT     H175374   1.850   0.546   0.693
25044WAT     H275375   1.959   0.504   0.808
25045WAT      O75376   1.370   5.396   3.580
25045WAT     H175377   1.433   5.336   3.629
25045WAT     H275378   1.310   5.342   3.522
25046WAT      O75379   0.513   5.563   3.012
25046WAT     H175380   0.478   5.502   3.083
25046WAT     H275381   0.557   5.509   2.940
25047WAT      O75382   6.492   3.176   0.838
25047WAT     H175383   6.575   3.162   0.893
25047WAT     H275384   6.473   3.273   0.830
25048WAT      O75385   4.246   6.779   1.244
25048WAT     H175386   4.297   6.810   1.163
25048WAT     H275387   4.195   6.696   1.221
25049WAT      O75388   2.759   3.996   3.355
25049WAT     H175389   2.721   3.903   3.346
25049WAT     H275390   2.752   4.025   3.451
25050WAT      O75391   2.344   9.458   0.462
25050WAT     H175392   2.256   9.501   0.444
25050WAT     H275393   2.417   9.519   0.432
25051WAT      O75394   1.368   0.967   4.287
25051WAT     H175395   1.447   0.988   4.345
25051WAT     H275396   1.315   0.894   4.330
25052WAT      O75397   5.816   8.334   3.357
25052WAT     H175398   5.770   8.257   3.314
25052WAT     H275399   5.771   8.356   3.444
25053WAT      O75400   4.136   1.585   4.074
25053WAT     H175401   4.062   1.609   4.138
25053WAT     H275402   4.187   1.508   4.111
25054WAT      O75403   9.227   3.150   5.021
25054WAT     H175404   9.197   3.195   5.105
25054WAT     H275405   9.153   3.094   4.985
25055WAT      O75406   5.071   8.894   7.724
25055WAT     H175407   5.012   8.856   7.794
25055WAT     H275408   5.148   8.941   7.767
25056WAT      O75409   6.325   4.252   6.182
25056WAT     H175410   6.333   4.161   6.139
25056WAT     H275411   6.347   4.245   6.279
25057WAT      O75412   4.403   7.624   8.238
25057WAT     H175413   4.493   7.585   8.217
25057WAT     H275414   4.412   7.691   8.311
25058WAT      O75415   2.447   3.827   2.354
25058WAT     H175416   2.393   3.901   2.393
25058WAT     H275417   2.464   3.758   2.424
25059WAT      O75418   3.309   8.165   7.954
25059WAT     H175419   3.255   8.186   8.035
25059WAT     H275420   3.256   8.109   7.892
25060WAT      O75421   7.363   2.073   9.801
25060WAT     H175422   7.321   2.152   9.755
25060WAT     H275423   7.399   2.010   9.732
25061WAT      O75424   6.453   0.100   3.894
25061WAT     H175425   6.419   0.030   3.956
25061WAT     H275426   6.391   0.108   3.816
25062WAT      O75427   0.500   4.184   9.098
25062WAT     H175428   0.582   4.232   9.068
25062WAT     H275429   0.521   4.088   9.118
25063WAT      O75430   4.816   5.741   7.511
25063WAT     H175431   4.829   5.740   7.610
25063WAT     H275432   4.740   5.802   7.487
25064WAT      O75433   5.148   4.141   5.970
25064WAT     H175434   5.053   4.138   5.939
25064WAT     H275435   5.174   4.051   6.005
25065WAT      O75436   1.806   9.642   7.539
25065WAT     H175437   1.796   9.640   7.638
25065WAT     H275438   1.726   9.686   7.498
25066WAT      O75439   1.119   7.243   1.883
25066WAT     H175440   1.199   7.230   1.942
25066WAT     H275441   1.149   7.266   1.790
25067WAT      O75442   4.238   1.693   7.488
25067WAT     H175443   4.223   1.666   7.583
25067WAT     H275444   4.303   1.768   7.484
25068WAT      O75445   3.089   4.193   8.059
25068WAT     H175446   3.103   4.291   8.070
25068WAT     H275447   3.108   4.167   7.964
25069WAT      O75448   5.695   6.906   7.426
25069WAT     H175449   5.755   6.826   7.423
25069WAT     H275450   5.680   6.940   7.333
25070WAT      O75451   1.377   2.222   8.684
25070WAT     H175452   1.399   2.218   8.781
25070WAT     H275453   1.357   2.317   8.658
25071WAT      O75454   8.220   5.962   1.238
25071WAT     H175455   8.237   6.058   1.216
25071WAT     H275456   8.122   5.949   1.253
25072WAT      O75457   5.401   0.134   3.249
25072WAT     H175458   5.306   0.115   3.226
25072WAT     H275459   5.462   0.086   3.186
25073WAT      O75460   9.326   8.861   0.224
25073WAT     H175461   9.226   8.864   0.222
25073WAT     H275462   9.362   8.890   0.136
25074WAT      O75463   3.689   8.715   4.923
25074WAT     H175464   3.730   8.764   5.000
25074WAT     H275465   3.698   8.616   4.937
25075WAT      O75466   5.584   8.716   5.376
25075WAT     H175467   5.603   8.781   5.304
25075WAT     H275468   5.570   8.625   5.337
25076WAT      O75469   2.174   7.674   0.643
25076WAT     H175470   2.157   7.770   0.622
25076WAT     H275471   2.173   7.621   0.558
25077WAT      O75472   9.756   3.004   4.050
25077WAT     H175473   9.767   3.012   3.951
25077WAT     H275474   9.669   3.046   4.078
25078WAT      O75475   6.846   4.414   7.197
25078WAT     H175476   6.818   4.336   7.139
25078WAT     H275477   6.908   4.382   7.268
25079WAT      O75478   3.263   5.364   1.368
25079WAT     H175479   3.314   5.314   1.439
25079WAT     H275480   3.325   5.392   1.296
25080WAT      O75481   4.550   9.242   2.241
25080WAT     H175482   4.618   9.294   2.292
25080WAT     H275483   4.550   9.147   2.273
25081WAT      O75484   1.466   6.134   3.370
25081WAT     H175485   1.498   6.045   3.338
25081WAT     H275486   1.371   6.147   3.343
25082WAT      O75487   0.775   4.561   0.355
25082WAT     H175488   0.778   4.462   0.344
25082WAT     H275489   0.859   4.601   0.318
25083WAT      O75490   4.772   5.064   9.496
25083WAT     H175491   4.827   4.983   9.515
25083WAT     H275492   4.731   5.056   9.405
25084WAT      O75493   8.496   1.419   6.251
25084WAT     H175494   8.563   1.455   6.186
25084WAT     H275495   8.514   1.456   6.342
25085WAT      O75496   5.450   3.304   1.191
25085WAT     H175497   5.379   3.372   1.172
25085WAT     H275498   5.453   3.286   1.289
25086WAT      O75499   7.336   0.121   7.895
25086WAT     H175500   7.286   0.043   7.857
25086WAT     H275501   7.371   0.097   7.986
25087WAT      O75502   9.520   1.111   5.249
25087WAT     H175503   9.511   1.013   5.230
25087WAT     H275504   9.540   1.159   5.163
25088WAT      O75505   3.564   2.625   5.124
25088WAT     H175506   3.465   2.624   5.118
25088WAT     H275507   3.602   2.661   5.039
25089WAT      O75508   8.977   6.313   9.701
25089WAT     H175509   8.932   6.241   9.649
25089WAT     H275510   9.070   6.286   9.723
25090WAT      O75511   7.924   6.309   0.094
25090WAT     H175512   7.932   6.225   0.148
25090WAT     H275513   7.987   6.304   0.016
25091WAT      O75514   9.333   3.509   8.225
25091WAT     H175515   9.263   3.549   8.285
25091WAT     H275516   9.343   3.412   8.247
25092WAT      O75517   2.171   3.743   8.228
25092WAT     H175518   2.206   3.701   8.144
25092WAT     H275519   2.091   3.799   8.207
25093WAT      O75520   0.584   6.748   4.277
25093WAT     H175521   0.651   6.711   4.212
25093WAT     H275522   0.632   6.794   4.351
25094WAT      O75523   7.257   2.416   7.412
25094WAT     H175524   7.262   2.378   7.320
25094WAT     H275525   7.167   2.458   7.426
25095WAT      O75526   3.059   2.041   6.580
25095WAT     H175527   3.111   2.097   6.645
25095WAT     H275528   2.989   2.097   6.537
25096WAT      O75529   2.575   7.672   0.868
25096WAT     H175530   2.553   7.741   0.798
25096WAT     H275531   2.656   7.622   0.840
25097WAT      O75532   0.797   7.679   6.760
25097WAT     H175533   0.721   7.625   6.725
25097WAT     H275534   0.867   7.689   6.689
25098WAT      O75535   3.170   6.081   8.921
25098WAT     H175536   3.196   5.986   8.943
25098WAT     H275537   3.116   6.118   8.997
25099WAT      O75538   6.231   6.645   6.431
25099WAT     H175539   6.263   6.553   6.453
25099WAT     H275540   6.297   6.712   6.466
25100WAT      O75541   8.373   7.236   5.047
25100WAT     H175542   8.296   7.175   5.063
25100WAT     H275543   8.364   7.278   4.957
25101WAT      O75544   0.961   6.319   0.905
25101WAT     H175545   1.016   6.242   0.936
25101WAT     H275546   1.011   6.404   0.920
25102WAT      O75547   5.447   5.442   4.151
25102WAT     H175548   5.357   5.407   4.180
25102WAT     H275549   5.512   5.366   4.146
25103WAT      O75550   2.265   7.253   2.829
25103WAT     H175551   2.309   7.262   2.740
25103WAT     H275552   2.335   7.241   2.900
25104WAT      O75553   8.919   4.956   7.016
25104WAT     H175554   8.904   4.919   7.108
25104WAT     H275555   8.831   4.977   6.973
25105WAT      O75556   1.945   9.431   3.157
25105WAT     H175557   2.017   9.385   3.209
25105WAT     H275558   1.940   9.392   3.066
25106WAT      O75559   3.728   2.547   9.754
25106WAT     H175560   3.797   2.617   9.732
25106WAT     H275561   3.735   2.523   9.851
25107WAT      O75562   3.040   3.964   0.699
25107WAT     H175563   3.079   3.920   0.619
25107WAT     H275564   2.952   3.921   0.721
25108WAT      O75565   7.577   4.887   6.837
25108WAT     H175566   7.533   4.946   6.770
25108WAT     H275567   7.583   4.935   6.925
25109WAT      O75568   1.088   6.170   2.840
25109WAT     H175569   1.154   6.178   2.914
25109WAT     H275570   1.110   6.089   2.785
25110WAT      O75571   5.692   6.911   3.448
25110WAT     H175572   5.627   6.842   3.415
25110WAT     H275573   5.689   6.914   3.548
25111WAT      O75574   8.507   4.963   5.184
25111WAT     H175575   8.528   4.897   5.256
25111WAT     H275576   8.475   5.049   5.225
25112WAT      O75577   4.818   5.496   1.236
25112WAT     H175578   4.843   5.590   1.215
25112WAT     H275579   4.871   5.464   1.315
25113WAT      O75580   0.378   3.820   0.595
25113WAT     H175581   0.380   3.880   0.675
25113WAT     H275582   0.392   3.725   0.623
25114WAT      O75583   7.984   7.969   8.844
25114WAT     H175584   8.046   8.043   8.817
25114WAT     H275585   8.038   7.894   8.883
25115WAT      O75586   4.937   0.552   0.415
25115WAT     H175587   5.009   0.615   0.446
25115WAT     H275588   4.943   0.467   0.466
25116WAT      O75589   7.154   5.951   9.667
25116WAT     H175590   7.135   5.893   9.747
25116WAT     H275591   7.144   5.896   9.584
25117WAT      O75592   9.230   9.210   8.451
25117WAT     H175593   9.199   9.118   8.427
25117WAT     H275594   9.190   9.236   8.539
25118WAT      O75595   0.427   6.729   5.132
25118WAT     H175596   0.416   6.696   5.039
25118WAT     H275597   0.431   6.652   5.196
25119WAT      O75598   3.671   4.795   0.935
25119WAT     H175599   3.724   4.839   0.862
25119WAT     H275600   3.653   4.861   1.008
25120WAT      O75601   7.731   4.892   4.752
25120WAT     H175602   7.756   4.823   4.819
25120WAT     H275603   7.648   4.938   4.781
25121WAT      O75604   9.407   2.127   2.687
25121WAT     H175605   9.406   2.034   2.721
25121WAT     H275606   9.345   2.184   2.741
25122WAT      O75607   1.140   1.524   7.813
25122WAT     H175608   1.229   1.512   7.770
25122WAT     H275609   1.073   1.466   7.767
25123WAT      O75610   6.876   3.872   5.689
25123WAT     H175611   6.920   3.782   5.689
25123WAT     H275612   6.811   3.877   5.765
25124WAT      O75613   8.362   9.329   7.053
25124WAT     H175614   8.331   9.417   7.016
25124WAT     H275615   8.292   9.291   7.112
25125WAT      O75616   0.929   8.305   6.818
25125WAT     H175617   0.975   8.277   6.734
25125WAT     H275618   0.832   8.318   6.799
25126WAT      O75619   0.198   1.707   5.684
25126WAT     H175620   0.188   1.612   5.654
25126WAT     H275621   0.183   1.713   5.782
25127WAT      O75622   5.500   7.441   2.141
25127WAT     H175623   5.476   7.457   2.045
25127WAT     H275624   5.459   7.356   2.172
25128WAT      O75625   1.734   5.181   2.521
25128WAT     H175626   1.768   5.127   2.444
25128WAT     H275627   1.809   5.237   2.558
25129WAT      O75628   6.278   6.554   2.957
25129WAT     H175629   6.287   6.535   3.055
25129WAT     H275630   6.207   6.494   2.918
25130WAT      O75631   7.225   2.293   4.738
25130WAT     H175632   7.147   2.352   4.758
25130WAT     H275633   7.225   2.268   4.641
25131WAT      O75634   0.205   7.490   0.496
25131WAT     H175635   0.143   7.447   0.561
25131WAT     H275636   0.297   7.453   0.507
25132WAT      O75637   9.738   3.380   2.079
25132WAT     H175638   9.826   3.408   2.116
25132WAT     H275639   9.671   3.454   2.093
25133WAT      O75640   8.559   9.016   0.864
25133WAT     H175641   8.467   9.042   0.835
25133WAT     H275642   8.604   9.095   0.906
25134WAT      O75643   2.788   8.548   7.358
25134WAT     H175644   2.695   8.525   7.390
25134WAT     H275645   2.847   8.468   7.366
25135WAT      O75646   2.399   5.856   0.755
25135WAT     H175647   2.315   5.816   0.792
25135WAT     H275648   2.439   5.919   0.822
25136WAT      O75649   8.941   5.919   6.584
25136WAT     H175650   8.865   5.857   6.603
25136WAT     H275651   8.931   6.002   6.638
25137WAT      O75652   1.050   3.988   9.534
25137WAT     H175653   1.138   3.951   9.503
25137WAT     H275654   0.982   3.914   9.536
25138WAT      O75655   0.936   3.645   3.900
25138WAT     H175656   0.871   3.648   3.976
25138WAT     H275657   1.007   3.578   3.920
25139WAT      O75658   5.509   8.281   8.730
25139WAT     H175659   5.534   8.205   8.790
25139WAT     H275660   5.496   8.248   8.637
25140WAT      O75661   6.032   1.365   0.078
25140WAT     H175662   5.995   1.375  -0.015
25140WAT     H275663   5.998   1.439   0.135
25141WAT      O75664   5.696   9.550   0.474
25141WAT     H175665   5.610   9.499   0.479
25141WAT     H275666   5.677   9.647   0.484
25142WAT      O75667   1.092   5.892   4.154
25142WAT     H175668   1.189   5.871   4.167
25142WAT     H275669   1.058   5.847   4.071
25143WAT      O75670   4.039   6.896   3.630
25143WAT     H175671   4.000   6.814   3.588
25143WAT     H275672   4.083   6.871   3.716
25144WAT      O75673   8.887   6.529   2.680
25144WAT     H175674   8.852   6.450   2.629
25144WAT     H275675   8.898   6.607   2.618
25145WAT      O75676   6.235   6.676   0.467
25145WAT     H175677   6.231   6.661   0.368
25145WAT     H275678   6.318   6.634   0.503
25146WAT      O75679   6.594   9.337   0.724
25146WAT     H175680   6.664   9.281   0.767
25146WAT     H275681   6.504   9.294   0.736
25147WAT      O75682   6.191   9.230   2.631
25147WAT     H175683   6.154   9.323   2.620
25147WAT     H275684   6.237   9.223   2.719
25148WAT      O75685   0.057   3.242   1.477
25148WAT     H175686   0.037   3.316   1.541
25148WAT     H275687  -0.006   3.247   1.399
25149WAT      O75688   9.021   9.714   8.985
25149WAT     H175689   9.018   9.813   8.967
25149WAT     H275690   8.932   9.684   9.020
25150WAT      O75691   8.563   1.977   2.106
25150WAT     H175692   8.542   1.912   2.178
25150WAT     H275693   8.480   2.001   2.056
25151WAT      O75694   1.776   5.109   3.200
25151WAT     H175695   1.822   5.137   3.283
25151WAT     H275696   1.828   5.035   3.156
25152WAT      O75697   6.737   3.434   7.129
25152WAT     H175698   6.686   3.459   7.046
25152WAT     H275699   6.825   3.482   7.129
25153WAT      O75700   5.977   3.137   0.349
25153WAT     H175701   5.983   3.171   0.443
25153WAT     H275702   5.913   3.060   0.345
25154WAT      O75703   8.178   1.508   7.103
25154WAT     H175704   8.269   1.466   7.109
25154WAT     H275705   8.148   1.508   7.008
25155WAT      O75706   8.169   3.007   6.257
25155WAT     H175707   8.105   3.079   6.284
25155WAT     H275708   8.221   2.976   6.337
25156WAT      O75709   5.371   7.330   9.814
25156WAT     H175710   5.317   7.294   9.738
25156WAT     H275711   5.454   7.374   9.779
25157WAT      O75712   1.427   7.664   8.477
25157WAT     H175713   1.465   7.757   8.476
25157WAT     H275714   1.329   7.668   8.459
25158WAT      O75715   8.722   4.901   6.131
25158WAT     H175716   8.746   4.898   6.034
25158WAT     H275717   8.667   4.822   6.155
25159WAT      O75718   8.076   5.224   7.748
25159WAT     H175719   7.996   5.280   7.731
25159WAT     H275720   8.134   5.268   7.817
25160WAT      O75721   2.681   6.243   0.149
25160WAT     H175722   2.700   6.241   0.051
25160WAT     H275723   2.724   6.164   0.193
25161WAT      O75724   6.330   0.618   0.248
25161WAT     H175725   6.279   0.541   0.285
25161WAT     H275726   6.339   0.608   0.149
25162WAT      O75727   7.938   8.351   1.911
25162WAT     H175728   7.962   8.265   1.866
25162WAT     H275729   7.844   8.375   1.890
25163WAT      O75730   2.575   8.555   0.582
25163WAT     H175731   2.479   8.547   0.609
25163WAT     H275732   2.591   8.644   0.541
25164WAT      O75733   4.703   0.719   8.007
25164WAT     H175734   4.786   0.712   7.953
25164WAT     H275735   4.674   0.815   8.013
25165WAT      O75736   5.580   3.182   3.544
25165WAT     H175737   5.679   3.192   3.553
25165WAT     H275738   5.558   3.085   3.528
25166WAT      O75739   1.085   8.369   8.254
25166WAT     H175740   1.181   8.362   8.279
25166WAT     H275741   1.070   8.451   8.200
25167WAT      O75742   8.631   7.421   8.245
25167WAT     H175743   8.637   7.513   8.208
25167WAT     H275744   8.586   7.361   8.179
25168WAT      O75745   0.649   4.382   8.991
25168WAT     H175746   0.627   4.418   8.900
25168WAT     H275747   0.616   4.445   9.061
25169WAT      O75748   9.473   3.385   7.733
25169WAT     H175749   9.481   3.403   7.635
25169WAT     H275750   9.539   3.441   7.783
25170WAT      O75751   1.737   3.246   4.738
25170WAT     H175752   1.686   3.330   4.723
25170WAT     H275753   1.780   3.217   4.653
25171WAT      O75754   1.352   5.928   7.803
25171WAT     H175755   1.386   6.017   7.834
25171WAT     H275756   1.254   5.935   7.786
25172WAT      O75757   7.972   7.506   9.428
25172WAT     H175758   7.921   7.420   9.433
25172WAT     H275759   7.921   7.573   9.375
25173WAT      O75760   6.456   0.958   8.722
25173WAT     H175761   6.460   0.897   8.643
25173WAT     H275762   6.549   0.983   8.750
25174WAT      O75763   3.364   8.653   0.253
25174WAT     H175764   3.298   8.643   0.178
25174WAT     H275765   3.455   8.668   0.215
25175WAT      O75766   2.190   6.998   2.319
25175WAT     H175767   2.229   6.947   2.243
25175WAT     H275768   2.090   6.992   2.315
25176WAT      O75769   5.229   2.936   1.181
25176WAT     H175770   5.311   2.962   1.129
25176WAT     H275771   5.231   2.981   1.271
25177WAT      O75772   8.578   2.231   3.775
25177WAT     H175773   8.673   2.244   3.749
25177WAT     H275774   8.559   2.278   3.862
25178WAT      O75775   5.086   6.416   7.263
25178WAT     H175776   5.139   6.359   7.326
25178WAT     H275777   5.144   6.442   7.185
25179WAT      O75778   7.159   7.396   0.349
25179WAT     H175779   7.205   7.407   0.437
25179WAT     H275780   7.137   7.486   0.311
25180WAT      O75781   3.405   0.812   8.179
25180WAT     H175782   3.317   0.836   8.137
25180WAT     H275783   3.456   0.752   8.117
25181WAT      O75784   0.803   8.572   7.056
25181WAT     H175785   0.784   8.636   7.130
25181WAT     H275786   0.901   8.556   7.051
25182WAT      O75787   6.130   3.133   8.519
25182WAT     H175788   6.143   3.150   8.616
25182WAT     H275789   6.049   3.183   8.487
25183WAT      O75790   2.933   5.938   7.360
25183WAT     H175791   2.854   5.915   7.417
25183WAT     H275792   2.998   5.862   7.362
25184WAT      O75793   3.616   7.713   6.185
25184WAT     H175794   3.641   7.705   6.281
25184WAT     H275795   3.527   7.757   6.176
25185WAT      O75796   0.312   2.446   7.632
25185WAT     H175797   0.298   2.452   7.731
25185WAT     H275798   0.342   2.534   7.597
25186WAT      O75799   0.967   5.431   5.351
25186WAT     H175800   0.952   5.470   5.442
25186WAT     H275801   1.034   5.358   5.356
25187WAT      O75802   8.448   0.786   8.205
25187WAT     H175803   8.498   0.849   8.146
25187WAT     H275804   8.513   0.741   8.267
25188WAT      O75805   0.931   9.106   2.555
25188WAT     H175806   1.015   9.154   2.529
25188WAT     H275807   0.908   9.130   2.650
25189WAT      O75808   7.358   3.383   8.102
25189WAT     H175809   7.436   3.324   8.117
25189WAT     H275810   7.362   3.421   8.009
25190WAT      O75811   2.150   9.235   8.826
25190WAT     H175812   2.242   9.197   8.837
25190WAT     H275813   2.134   9.255   8.729
25191WAT      O75814   4.022   0.027   6.496
25191WAT     H175815   4.037  -0.063   6.454
25191WAT     H275816   3.969   0.084   6.433
25192WAT      O75817   9.814   3.360   0.641
25192WAT     H175818   9.902   3.388   0.604
25192WAT     H275819   9.763   3.441   0.671
25193WAT      O75820   2.448   3.729   1.283
25193WAT     H175821   2.374   3.661   1.282
25193WAT     H275822   2.520   3.699   1.346
25194WAT      O75823   9.277   6.997   8.723
25194WAT     H175824   9.266   6.900   8.701
25194WAT     H275825   9.191   7.033   8.760
25195WAT      O75826   0.964   1.035   9.757
25195WAT     H175827   0.942   1.131   9.778
25195WAT     H275828   1.051   1.011   9.799
25196WAT      O75829   3.324   9.361   9.566
25196WAT     H175830   3.370   9.410   9.492
25196WAT     H275831   3.267   9.288   9.527
25197WAT      O75832   6.334   2.778   8.628
25197WAT     H175833   6.361   2.875   8.628
25197WAT     H275834   6.406   2.724   8.585
25198WAT      O75835   8.822   9.042   7.342
25198WAT     H175836   8.750   9.105   7.371
25198WAT     H275837   8.786   8.980   7.271
25199WAT      O75838   7.872   5.349   5.649
25199WAT     H175839   7.910   5.289   5.719
25199WAT     H275840   7.804   5.410   5.691
25200WAT      O75841   5.717   9.165   4.095
25200WAT     H175842   5.795   9.109   4.125
25200WAT     H275843   5.750   9.255   4.067
25201WAT      O75844   0.030   9.248   0.531
25201WAT     H175845   0.059   9.322   0.471
25201WAT     H275846  -0.039   9.192   0.484
25202WAT      O75847   0.960   6.920   9.647
25202WAT     H175848   0.985   6.910   9.743
25202WAT     H275849   0.879   6.864   9.628
25203WAT      O75850   7.128   1.811   2.910
25203WAT     H175851   7.068   1.867   2.967
25203WAT     H275852   7.112   1.831   2.814
25204WAT      O75853   3.421   8.008   6.575
25204WAT     H175854   3.465   8.038   6.660
25204WAT     H275855   3.421   7.908   6.571
25205WAT      O75856   6.463   6.441   8.981
25205WAT     H175857   6.424   6.380   8.912
25205WAT     H275858   6.507   6.386   9.052
25206WAT      O75859   9.099   2.889   8.218
25206WAT     H175860   9.045   2.821   8.167
25206WAT     H275861   9.166   2.842   8.275
25207WAT      O75862   1.634   6.174   4.873
25207WAT     H175863   1.700   6.245   4.895
25207WAT     H275864   1.552   6.215   4.833
25208WAT      O75865   0.517   1.839   9.564
25208WAT     H175866   0.437   1.864   9.618
25208WAT     H275867   0.596   1.894   9.592
25209WAT      O75868   0.977   4.217   4.134
25209WAT     H175869   1.024   4.196   4.220
25209WAT     H275870   1.045   4.233   4.063
25210WAT      O75871   3.362   2.189   4.356
25210WAT     H175872   3.305   2.251   4.302
25210WAT     H275873   3.430   2.241   4.407
25211WAT      O75874   1.846   3.200   1.116
25211WAT     H175875   1.806   3.176   1.027
25211WAT     H275876   1.793   3.272   1.159
25212WAT      O75877   5.035   6.591   0.166
25212WAT     H175878   4.963   6.579   0.234
25212WAT     H275879   5.076   6.502   0.145
25213WAT      O75880   2.285   7.840   1.666
25213WAT     H175881   2.338   7.760   1.638
25213WAT     H275882   2.289   7.849   1.765
25214WAT      O75883   2.089   0.846   7.818
25214WAT     H175884   2.168   0.907   7.818
25214WAT     H275885   2.082   0.801   7.908
25215WAT      O75886   5.600   1.786   1.168
25215WAT     H175887   5.656   1.706   1.148
25215WAT     H275888   5.647   1.868   1.138
25216WAT      O75889   5.248   9.537   6.098
25216WAT     H175890   5.254   9.583   6.186
25216WAT     H275891   5.329   9.559   6.043
25217WAT      O75892   1.144   5.462   8.846
25217WAT     H175893   1.199   5.523   8.789
25217WAT     H275894   1.189   5.373   8.853
25218WAT      O75895   7.326   9.365   5.829
25218WAT     H175896   7.341   9.278   5.782
25218WAT     H275897   7.406   9.385   5.887
25219WAT      O75898   2.762   9.562   2.792
25219WAT     H175899   2.716   9.651   2.800
25219WAT     H275900   2.712   9.504   2.728
25220WAT      O75901   6.681   2.055   7.423
25220WAT     H175902   6.654   2.086   7.332
25220WAT     H275903   6.746   1.979   7.414
25221WAT      O75904   3.613   4.994   1.091
25221WAT     H175905   3.666   5.070   1.052
25221WAT     H275906   3.516   5.017   1.088
25222WAT      O75907   0.441   5.969   8.277
25222WAT     H175908   0.471   5.984   8.183
25222WAT     H275909   0.472   5.879   8.308
25223WAT      O75910   5.459   6.732   6.912
25223WAT     H175911   5.436   6.673   6.835
25223WAT     H275912   5.466   6.827   6.881
25224WAT      O75913   9.070   2.424   4.691
25224WAT     H175914   9.043   2.448   4.598
25224WAT     H275915   9.026   2.338   4.718
25225WAT      O75916   6.008   9.610   3.178
25225WAT     H175917   6.064   9.600   3.260
25225WAT     H275918   5.929   9.549   3.183
25226WAT      O75919   9.534   5.852   0.881
25226WAT     H175920   9.507   5.927   0.941
25226WAT     H275921   9.624   5.871   0.842
25227WAT      O75922   8.796   4.798   7.506
25227WAT     H175923   8.732   4.871   7.530
25227WAT     H275924   8.836   4.760   7.590
25228WAT      O75925   6.737   3.644   3.548
25228WAT     H175926   6.643   3.674   3.564
25228WAT     H275927   6.789   3.651   3.633
25229WAT      O75928   5.201   8.607   5.583
25229WAT     H175929   5.284   8.552   5.598
25229WAT     H275930   5.179   8.658   5.665
25230WAT      O75931   8.900   0.922   0.655
25230WAT     H175932   8.942   0.842   0.699
25230WAT     H275933   8.819   0.893   0.604
25231WAT      O75934   8.944   1.185   4.003
25231WAT     H175935   9.034   1.216   3.971
25231WAT     H275936   8.956   1.104   4.061
25232WAT      O75937   3.234   8.356   3.959
25232WAT     H175938   3.300   8.400   3.898
25232WAT     H275939   3.205   8.421   4.029
25233WAT      O75940   3.816   1.221   0.556
25233WAT     H175941   3.877   1.142   0.555
25233WAT     H275942   3.868   1.304   0.577
25234WAT      O75943   2.022   0.708   8.332
25234WAT     H175944   2.015   0.786   8.394
25234WAT     H275945   2.097   0.649   8.361
25235WAT      O75946   0.398   1.172   2.035
25235WAT     H175947   0.383   1.259   2.082
25235WAT     H275948   0.348   1.100   2.083
25236WAT      O75949   5.803   6.983   6.051
25236WAT     H175950   5.767   6.993   6.143
25236WAT     H275951   5.731   6.949   5.990
25237WAT      O75952   6.751   9.411   2.341
25237WAT     H175953   6.663   9.384   2.304
25237WAT     H275954   6.760   9.376   2.434
25238WAT      O75955   0.685   2.111   7.250
25238WAT     H175956   0.647   2.202   7.236
25238WAT     H275957   0.611   2.046   7.268
25239WAT      O75958   7.179   6.493   8.341
25239WAT     H175959   7.179   6.575   8.284
25239WAT     H275960   7.084   6.466   8.360
25240WAT      O75961   4.179   6.805   4.921
25240WAT     H175962   4.210   6.789   4.828
25240WAT     H275963   4.080   6.819   4.921
25241WAT      O75964   1.281   1.190   8.135
25241WAT     H175965   1.320   1.273   8.098
25241WAT     H275966   1.195   1.169   8.088
25242WAT      O75967   4.118   7.904   1.274
25242WAT     H175968   4.111   7.852   1.359
25242WAT     H275969   4.046   7.875   1.211
25243WAT      O75970   7.749   4.822   7.189
25243WAT     H175971   7.726   4.906   7.141
25243WAT     H275972   7.828   4.779   7.146
25244WAT      O75973   5.221   9.061   1.142
25244WAT     H175974   5.254   9.028   1.230
25244WAT     H275975   5.238   9.159   1.134
25245WAT      O75976   3.166   4.775   5.955
25245WAT     H175977   3.218   4.858   5.937
25245WAT     H275978   3.229   4.701   5.979
25246WAT      O75979   1.504   2.381   5.984
25246WAT     H175980   1.507   2.434   5.900
25246WAT     H275981   1.466   2.290   5.966
25247WAT      O75982   8.828   5.793   0.661
25247WAT     H175983   8.887   5.740   0.600
25247WAT     H275984   8.792   5.872   0.613
25248WAT      O75985   7.768   7.349   0.857
25248WAT     H175986   7.701   7.379   0.924
25248WAT     H275987   7.839   7.295   0.902
25249WAT      O75988   6.749   8.619   6.249
25249WAT     H175989   6.818   8.658   6.309
25249WAT     H275990   6.756   8.661   6.158
25250WAT      O75991   8.454   4.044   8.158
25250WAT     H175992   8.408   4.128   8.128
25250WAT     H275993   8.474   4.050   8.256
25251WAT      O75994   6.057   7.640   5.120
25251WAT     H175995   6.032   7.640   5.023
25251WAT     H275996   6.091   7.549   5.146
25252WAT      O75997   9.197   3.337   1.951
25252WAT     H175998   9.268   3.369   2.013
25252WAT     H275999   9.150   3.259   1.992
25253WAT      O76000   5.894   4.841   3.273
25253WAT     H176001   5.975   4.827   3.215
25253WAT     H276002   5.821   4.781   3.242
25254WAT      O76003   0.097   9.250   7.152
25254WAT     H176004   0.035   9.328   7.139
25254WAT     H276005   0.044   9.165   7.149
25255WAT      O76006   6.440   1.562   8.692
25255WAT     H176007   6.521   1.569   8.750
25255WAT     H276008   6.467   1.534   8.600
25256WAT      O76009   2.822   6.037   1.648
25256WAT     H176010   2.742   6.095   1.662
25256WAT     H276011   2.884   6.045   1.726
25257WAT      O76012   8.327   9.420   0.832
25257WAT     H176013   8.279   9.386   0.751
25257WAT     H276014   8.311   9.357   0.908
25258WAT      O76015   6.019   0.241   9.347
25258WAT     H176016   6.004   0.179   9.271
25258WAT     H276017   6.009   0.336   9.316
25259WAT      O76018   0.491   4.764   6.360
25259WAT     H176019   0.502   4.832   6.287
25259WAT     H276020   0.501   4.808   6.449
25260WAT      O76021   1.091   3.531   2.633
25260WAT     H176022   1.054   3.624   2.632
25260WAT     H276023   1.170   3.527   2.572
25261WAT      O76024   5.395   7.780   1.653
25261WAT     H176025   5.349   7.845   1.593
25261WAT     H276026   5.337   7.759   1.731
25262WAT      O76027   0.044   0.018   6.567
25262WAT     H176028   0.032  -0.016   6.474
25262WAT     H276029   0.107   0.096   6.566
25263WAT      O76030   0.610   8.415   1.412
25263WAT     H176031   0.695   8.366   1.429
25263WAT     H276032   0.538   8.379   1.472
25264WAT      O76033   1.699   4.298   1.391
25264WAT     H176034   1.659   4.242   1.318
25264WAT     H276035   1.770   4.247   1.438
25265WAT      O76036   1.912   3.708   5.775
25265WAT     H176037   1.996   3.740   5.732
25265WAT     H276038   1.874   3.780   5.833
25266WAT      O76039   4.175   9.558   4.678
25266WAT     H176040   4.128   9.646   4.683
25266WAT     H276041   4.273   9.574   4.661
25267WAT      O76042   8.728   6.885   2.364
25267WAT     H176043   8.752   6.902   2.269
25267WAT     H276044   8.665   6.807   2.369
25268WAT      O76045   2.793   9.655   3.928
25268WAT     H176046   2.710   9.600   3.925
25268WAT     H276047   2.869   9.603   3.890
25269WAT      O76048   8.485   8.894   7.882
25269WAT     H176049   8.472   8.801   7.850
25269WAT     H276050   8.525   8.892   7.974
25270WAT      O76051   4.804   2.118   3.413
25270WAT     H176052   4.882   2.058   3.429
25270WAT     H276053   4.719   2.064   3.418
25271WAT      O76054   9.628   9.816   1.130
25271WAT     H176055   9.661   9.723   1.113
25271WAT     H276056   9.535   9.813   1.166
25272WAT      O76057   6.332   7.624   9.703
25272WAT     H176058   6.374   7.688   9.639
25272WAT     H276059   6.302   7.673   9.784
25273WAT      O76060   8.369   4.150   0.035
25273WAT     H176061   8.377   4.249   0.018
25273WAT     H276062   8.374   4.133   0.133
25274WAT      O76063   2.913   6.472   2.082
25274WAT     H176064   2.859   6.546   2.043
25274WAT     H276065   3.009   6.486   2.060
25275WAT      O76066   0.606   0.716   0.225
25275WAT     H176067   0.552   0.646   0.177
25275WAT     H276068   0.644   0.780   0.158
25276WAT      O76069   0.257   4.287   1.665
25276WAT     H176070   0.285   4.195   1.693
25276WAT     H276071   0.189   4.322   1.730
25277WAT      O76072   4.450   2.796   7.398
25277WAT     H176073   4.390   2.875   7.413
25277WAT     H276074   4.520   2.819   7.330
25278WAT      O76075   2.803   8.094   3.494
25278WAT     H176076   2.860   8.157   3.548
25278WAT     H276077   2.851   8.068   3.411
25279WAT      O76078   0.175   5.868   5.258
25279WAT     H176079   0.271   5.851   5.282
25279WAT     H276080   0.167   5.878   5.159
25280WAT      O76081   9.814   8.276   5.831
25280WAT     H176082   9.809   8.303   5.735
25280WAT     H276083   9.905   8.239   5.850
25281WAT      O76084   3.272   8.128   9.381
25281WAT     H176085   3.340   8.104   9.450
25281WAT     H276086   3.312   8.115   9.290
25282WAT      O76087   6.273   9.711   8.549
25282WAT     H176088   6.298   9.707   8.646
25282WAT     H276089   6.276   9.619   8.511
25283WAT      O76090   3.736   4.682   3.232
25283WAT     H176091   3.764   4.628   3.312
25283WAT     H276092   3.791   4.765   3.227
25284WAT      O76093   5.151   1.309   1.681
25284WAT     H176094   5.142   1.262   1.769
25284WAT     H276095   5.149   1.408   1.696
25285WAT      O76096   0.165   6.979   6.729
25285WAT     H176097   0.249   6.933   6.757
25285WAT     H276098   0.137   6.945   6.639
25286WAT      O76099   6.588   8.864   8.217
25286WAT     H176100   6.537   8.950   8.213
25286WAT     H276101   6.537   8.793   8.167
25287WAT      O76102   1.412   2.009   4.041
25287WAT     H176103   1.336   1.947   4.062
25287WAT     H276104   1.486   1.956   4.000
25288WAT      O76105   2.492   8.101   0.585
25288WAT     H176106   2.539   8.152   0.656
25288WAT     H276107   2.393   8.113   0.596
25289WAT      O76108   0.643   4.856   5.913
25289WAT     H176109   0.715   4.790   5.937
25289WAT     H276110   0.668   4.946   5.947
25290WAT      O76111   3.378   7.406   2.023
25290WAT     H176112   3.289   7.391   1.980
25290WAT     H276113   3.366   7.438   2.116
25291WAT      O76114   8.406   6.285   2.154
25291WAT     H176115   8.333   6.313   2.092
25291WAT     H276116   8.483   6.249   2.101
25292WAT      O76117   3.286   4.382   3.903
25292WAT     H176118   3.244   4.470   3.922
25292WAT     H276119   3.235   4.335   3.832
25293WAT      O76120   1.608   6.994   4.351
25293WAT     H176121   1.527   6.996   4.292
25293WAT     H276122   1.621   6.901   4.387
25294WAT      O76123   1.525   9.069   2.838
25294WAT     H176124   1.467   9.054   2.917
25294WAT     H276125   1.621   9.061   2.865
25295WAT      O76126   3.649   1.307   6.984
25295WAT     H176127   3.673   1.341   6.893
25295WAT     H276128   3.556   1.336   7.007
25296WAT      O76129   1.147   6.843   0.507
25296WAT     H176130   1.079   6.823   0.577
25296WAT     H276131   1.138   6.778   0.431
25297WAT      O76132   6.371   3.226   5.206
25297WAT     H176133   6.342   3.316   5.240
25297WAT     H276134   6.365   3.225   5.106
25298WAT      O76135   6.819   8.079   8.131
25298WAT     H176136   6.912   8.067   8.094
25298WAT     H276137   6.789   7.994   8.174
25299WAT      O76138   4.931   3.305   3.871
25299WAT     H176139   5.009   3.333   3.929
25299WAT     H276140   4.898   3.385   3.821
25300WAT      O76141   0.129   4.663   5.037
25300WAT     H176142   0.058   4.725   5.003
25300WAT     H276143   0.100   4.623   5.124
25301WAT      O76144   8.943   6.520   8.227
25301WAT     H176145   9.006   6.488   8.299
25301WAT     H276146   8.917   6.615   8.245
25302WAT      O76147   5.404   3.822   4.469
25302WAT     H176148   5.306   3.802   4.458
25302WAT     H276149   5.417   3.877   4.551
25303WAT      O76150   5.826   0.285   4.087
25303WAT     H176151   5.751   0.231   4.127
25303WAT     H276152   5.909   0.229   4.083
25304WAT      O76153   6.611   2.617   3.772
25304WAT     H176154   6.588   2.549   3.703
25304WAT     H276155   6.705   2.602   3.804
25305WAT      O76156   8.407   9.497   7.877
25305WAT     H176157   8.451   9.586   7.881
25305WAT     H276158   8.312   9.505   7.906
25306WAT      O76159   5.620   5.742   6.060
25306WAT     H176160   5.570   5.790   5.988
25306WAT     H276161   5.557   5.682   6.109
25307WAT      O76162   8.236   9.257   6.617
25307WAT     H176163   8.225   9.353   6.643
25307WAT     H276164   8.168   9.233   6.548
25308WAT      O76165   4.417   0.879   6.537
25308WAT     H176166   4.394   0.785   6.561
25308WAT     H276167   4.511   0.899   6.567
25309WAT      O76168   4.899   8.817   2.485
25309WAT     H176169   4.909   8.891   2.418
25309WAT     H276170   4.802   8.800   2.501
25310WAT      O76171   9.427   9.731   4.579
25310WAT     H176172   9.518   9.698   4.553
25310WAT     H276173   9.400   9.688   4.665
25311WAT      O76174   4.761   8.876   9.566
25311WAT     H176175   4.681   8.935   9.556
25311WAT     H276176   4.823   8.889   9.488
25312WAT      O76177   4.205   0.358   0.361
25312WAT     H176178   4.196   0.458   0.362
25312WAT     H276179   4.242   0.328   0.273
25313WAT      O76180   0.943   5.771   4.989
25313WAT     H176181   0.893   5.767   4.903
25313WAT     H276182   1.034   5.730   4.977
25314WAT      O76183   4.855   9.099   2.412
25314WAT     H176184   4.833   9.197   2.409
25314WAT     H276185   4.858   9.068   2.506
25315WAT      O76186   9.283   4.187   5.981
25315WAT     H176187   9.321   4.219   5.894
25315WAT     H276188   9.232   4.261   6.024
25316WAT      O76189   9.176   6.949   3.480
25316WAT     H176190   9.206   6.854   3.464
25316WAT     H276191   9.151   6.960   3.576
25317WAT      O76192   7.077   6.748   3.466
25317WAT     H176193   7.031   6.836   3.453
25317WAT     H276194   7.159   6.744   3.408
25318WAT      O76195   9.558   7.463   4.861
25318WAT     H176196   9.475   7.412   4.840
25318WAT     H276197   9.577   7.458   4.959
25319WAT      O76198   9.292   3.632   2.811
25319WAT     H176199   9.388   3.626   2.841
25319WAT     H276200   9.277   3.718   2.763
25320WAT      O76201   1.603   7.327   9.259
25320WAT     H176202   1.626   7.382   9.179
25320WAT     H276203   1.635   7.373   9.342
25321WAT      O76204   5.859   8.607   7.893
25321WAT     H176205   5.954   8.636   7.892
25321WAT     H276206   5.850   8.522   7.944
25322WAT      O76207   1.322   7.635   6.131
25322WAT     H176208   1.326   7.622   6.032
25322WAT     H276209   1.343   7.549   6.177
25323WAT      O76210   2.710   3.309   3.164
25323WAT     H176211   2.736   3.224   3.119
25323WAT     H276212   2.773   3.382   3.138
25324WAT      O76213   5.434   3.743   0.102
25324WAT     H176214   5.395   3.652   0.089
25324WAT     H276215   5.499   3.741   0.178
25325WAT      O76216   1.345   1.157   9.001
25325WAT     H176217   1.254   1.179   8.967
25325WAT     H276218   1.363   1.208   9.085
25326WAT      O76219   1.455   7.021   5.474
25326WAT     H176220   1.420   6.939   5.520
25326WAT     H276221   1.433   7.102   5.528
25327WAT      O76222   7.553   5.729   6.371
25327WAT     H176223   7.458   5.698   6.371
25327WAT     H276224   7.556   5.828   6.355
25328WAT      O76225   3.916   9.410   8.646
25328WAT     H176226   4.001   9.383   8.690
25328WAT     H276227   3.908   9.363   8.558
25329WAT      O76228   3.411   6.631   0.963
25329WAT     H176229   3.312   6.639   0.954
25329WAT     H276230   3.447   6.574   0.889
25330WAT      O76231   3.542   8.401   2.904
25330WAT     H176232   3.451   8.443   2.905
25330WAT     H276233   3.589   8.423   2.990
25331WAT      O76234   7.799   1.001   2.387
25331WAT     H176235   7.780   1.007   2.484
25331WAT     H276236   7.747   0.927   2.346
25332WAT      O76237   2.215   1.459   9.246
25332WAT     H176238   2.136   1.441   9.187
25332WAT     H276239   2.284   1.509   9.195
25333WAT      O76240   3.283   8.884   4.384
25333WAT     H176241   3.212   8.844   4.442
25333WAT     H276242   3.291   8.981   4.403
25334WAT      O76243   8.957   5.629   8.927
25334WAT     H176244   8.953   5.596   9.021
25334WAT     H276245   8.888   5.700   8.914
25335WAT      O76246   0.962   9.510   9.195
25335WAT     H176247   0.986   9.435   9.257
25335WAT     H276248   1.045   9.545   9.152
25336WAT      O76249   3.318   0.118   4.710
25336WAT     H176250   3.407   0.086   4.679
25336WAT     H276251   3.325   0.152   4.804
25337WAT      O76252   7.046   5.536   9.443
25337WAT     H176253   7.080   5.630   9.449
25337WAT     H276254   7.124   5.474   9.432
25338WAT      O76255   5.460   9.782   4.404
25338WAT     H176256   5.392   9.745   4.340
25338WAT     H276257   5.435   9.876   4.427
25339WAT      O76258   3.546   1.349   4.702
25339WAT     H176259   3.606   1.270   4.696
25339WAT     H276260   3.593   1.423   4.751
25340WAT      O76261   0.610   5.126   7.505
25340WAT     H176262   0.531   5.085   7.459
25340WAT     H276263   0.583   5.211   7.549
25341WAT      O76264   4.929   1.480   9.887
25341WAT     H176265   4.861   1.477   9.960
25341WAT     H276266   4.976   1.568   9.888
25342WAT      O76267   2.654   9.817   2.807
25342WAT     H176268   2.574   9.861   2.766
25342WAT     H276269   2.635   9.797   2.903
25343WAT      O76270   8.785   6.295   8.409
25343WAT     H176271   8.791   6.228   8.336
25343WAT     H276272   8.763   6.385   8.371
25344WAT      O76273   6.246   4.803   8.391
25344WAT     H176274   6.214   4.708   8.379
25344WAT     H276275   6.323   4.820   8.331
25345WAT      O76276   4.900   7.562   7.105
25345WAT     H176277   4.837   7.498   7.060
25345WAT     H276278   4.994   7.527   7.097
25346WAT      O76279   1.460   8.637   8.113
25346WAT     H176280   1.485   8.668   8.022
25346WAT     H276281   1.523   8.565   8.143
25347WAT      O76282   5.271   6.265   4.460
25347WAT     H176283   5.234   6.356   4.439
25347WAT     H276284   5.219   6.225   4.535
25348WAT      O76285   2.109   3.300   0.296
25348WAT     H176286   2.130   3.214   0.341
25348WAT     H276287   2.036   3.286   0.228
25349WAT      O76288   2.191   8.546   7.898
25349WAT     H176289   2.163   8.451   7.887
25349WAT     H276290   2.275   8.549   7.952
25350WAT      O76291   0.469   7.611   5.369
25350WAT     H176292   0.538   7.683   5.362
25350WAT     H276293   0.514   7.522   5.377
25351WAT      O76294   8.869   0.698   7.396
25351WAT     H176295   8.804   0.692   7.320
25351WAT     H276296   8.825   0.744   7.473
25352WAT      O76297   1.250   0.924   6.821
25352WAT     H176298   1.269   0.838   6.867
25352WAT     H276299   1.267   1.000   6.884
25353WAT      O76300   5.430   5.656   1.755
25353WAT     H176301   5.332   5.673   1.747
25353WAT     H276302   5.469   5.646   1.663
25354WAT      O76303   8.752   1.465   2.168
25354WAT     H176304   8.699   1.472   2.084
25354WAT     H276305   8.747   1.372   2.203
25355WAT      O76306   1.882   0.249   0.657
25355WAT     H176307   1.912   0.343   0.641
25355WAT     H276308   1.811   0.248   0.727
25356WAT      O76309   8.179   9.794   4.348
25356WAT     H176310   8.089   9.789   4.390
25356WAT     H276311   8.231   9.710   4.370
25357WAT      O76312   1.300   3.693   0.349
25357WAT     H176313   1.296   3.773   0.409
25357WAT     H276314   1.293   3.722   0.254
25358WAT      O76315   7.394   3.092   4.411
25358WAT     H176316   7.380   3.125   4.504
25358WAT     H276317   7.492   3.075   4.396
25359WAT      O76318   2.226   7.259   2.200
25359WAT     H176319   2.215   7.166   2.237
25359WAT     H276320   2.208   7.258   2.102
25360WAT      O76321   9.811   1.360   6.049
25360WAT     H176322   9.894   1.411   6.025
25360WAT     H276323   9.735   1.390   5.990
25361WAT      O76324   5.708   8.625   0.104
25361WAT     H176325   5.760   8.702   0.140
25361WAT     H276326   5.632   8.604   0.165
25362WAT      O76327   5.660   3.999   3.382
25362WAT     H176328   5.688   4.039   3.294
25362WAT     H276329   5.673   3.900   3.379
25363WAT      O76330   2.349   2.336   7.617
25363WAT     H176331   2.432   2.372   7.661
25363WAT     H276332   2.299   2.411   7.573
25364WAT      O76333   3.499   5.490   3.353
25364WAT     H176334   3.417   5.440   3.327
25364WAT     H276335   3.479   5.588   3.354
25365WAT      O76336   4.282   3.562   2.260
25365WAT     H176337   4.347   3.630   2.227
25365WAT     H276338   4.189   3.600   2.255
25366WAT      O76339   9.497   2.748   2.477
25366WAT     H176340   9.567   2.765   2.547
25366WAT     H276341   9.407   2.764   2.516
25367WAT      O76342   8.799   5.220   1.674
25367WAT     H176343   8.767   5.134   1.713
25367WAT     H276344   8.871   5.259   1.732
25368WAT      O76345   2.596   3.948   1.183
25368WAT     H176346   2.532   3.886   1.228
25368WAT     H276347   2.664   3.895   1.132
25369WAT      O76348   9.804   6.606   7.730
25369WAT     H176349   9.728   6.671   7.732
25369WAT     H276350   9.804   6.558   7.642
25370WAT      O76351   8.754   1.769   0.329
25370WAT     H176352   8.729   1.684   0.373
25370WAT     H276353   8.850   1.791   0.349
25371WAT      O76354   7.965   4.982   7.684
25371WAT     H176355   8.011   5.066   7.713
25371WAT     H276356   7.944   4.925   7.763
25372WAT      O76357   0.805   1.489   2.950
25372WAT     H176358   0.875   1.519   2.886
25372WAT     H276359   0.761   1.406   2.914
25373WAT      O76360   5.697   8.497   8.700
25373WAT     H176361   5.609   8.455   8.718
25373WAT     H276362   5.765   8.460   8.763
25374WAT      O76363   0.661   4.016   9.638
25374WAT     H176364   0.711   3.945   9.589
25374WAT     H276365   0.646   4.094   9.578
25375WAT      O76366   7.480   9.590   0.301
25375WAT     H176367   7.566   9.545   0.326
25375WAT     H276368   7.423   9.526   0.248
25376WAT      O76369   1.693   9.304   9.553
25376WAT     H176370   1.757   9.370   9.514
25376WAT     H276371   1.733   9.212   9.550
25377WAT      O76372   7.339   9.278   9.752
25377WAT     H176373   7.265   9.341   9.778
25377WAT     H276374   7.424   9.309   9.795
25378WAT      O76375   4.267   2.272   4.562
25378WAT     H176376   4.246   2.368   4.541
25378WAT     H276377   4.366   2.260   4.566
25379WAT      O76378   5.566   2.657   3.560
25379WAT     H176379   5.472   2.626   3.543
25379WAT     H276380   5.595   2.628   3.651
25380WAT      O76381   7.733   5.646   3.919
25380WAT     H176382   7.675   5.633   4.000
25380WAT     H276383   7.826   5.668   3.949
25381WAT      O76384   6.598   2.209   3.250
25381WAT     H176385   6.562   2.119   3.274
25381WAT     H276386   6.697   2.209   3.262
25382WAT      O76387   6.659   0.771   9.452
25382WAT     H176388   6.630   0.696   9.392
25382WAT     H276389   6.690   0.848   9.396
25383WAT      O76390   9.368   8.146   6.168
25383WAT     H176391   9.307   8.224   6.152
25383WAT     H276392   9.385   8.137   6.266
25384WAT      O76393   8.292   6.332   3.167
25384WAT     H176394   8.324   6.243   3.132
25384WAT     H276395   8.204   6.354   3.126
25385WAT      O76396   2.578   6.608   2.662
25385WAT     H176397   2.668   6.565   2.658
25385WAT     H276398   2.514   6.549   2.711
25386WAT      O76399   8.191   3.332   5.227
25386WAT     H176400   8.241   3.418   5.225
25386WAT     H276401   8.113   3.340   5.289
25387WAT      O76402   0.125   6.864   1.137
25387WAT     H176403   0.078   6.788   1.093
25387WAT     H276404   0.105   6.949   1.089
25388WAT      O76405   1.820   1.626   5.178
25388WAT     H176406   1.787   1.718   5.199
25388WAT     H276407   1.798   1.603   5.084
25389WAT      O76408   8.182   5.229   8.527
25389WAT     H176409   8.208   5.325   8.521
25389WAT     H276410   8.126   5.205   8.448
25390WAT      O76411   6.196   7.518   4.318
25390WAT     H176412   6.153   7.596   4.272
25390WAT     H276413   6.127   7.469   4.371
25391WAT      O76414   0.856   6.507   8.752
25391WAT     H176415   0.934   6.474   8.806
25391WAT     H276416   0.836   6.602   8.777
25392WAT      O76417   3.882   2.872   1.775
25392WAT     H176418   3.970   2.845   1.815
25392WAT     H276419   3.838   2.939   1.835
25393WAT      O76420   7.987   7.748   3.397
25393WAT     H176421   8.026   7.809   3.327
25393WAT     H276422   7.889   7.766   3.405
25394WAT      O76423   1.772   6.981   4.066
25394WAT     H176424   1.857   6.943   4.102
25394WAT     H276425   1.732   7.042   4.134
25395WAT      O76426   8.940   1.923   7.589
25395WAT     H176427   8.934   1.843   7.649
25395WAT     H276428   8.849   1.963   7.576
25396WAT      O76429   4.099   1.782   4.459
25396WAT     H176430   4.181   1.771   4.514
25396WAT     H276431   4.029   1.828   4.514
25397WAT      O76432   7.886   0.661   6.919
25397WAT     H176433   7.982   0.643   6.899
25397WAT     H276434   7.831   0.582   6.892
25398WAT      O76435   5.484   5.695   4.007
25398WAT     H176436   5.485   5.596   4.022
25398WAT     H276437   5.557   5.720   3.943
25399WAT      O76438   2.828   7.791   6.447
25399WAT     H176439   2.780   7.878   6.440
25399WAT     H276440   2.795   7.740   6.526
25400WAT      O76441   7.713   9.698   0.067
25400WAT     H176442   7.768   9.753   0.005
25400WAT     H276443   7.621   9.687   0.029
25401WAT      O76444   6.280   0.443   1.049
25401WAT     H176445   6.249   0.350   1.032
25401WAT     H276446   6.325   0.448   1.138
25402WAT      O76447   5.728   0.940   1.360
25402WAT     H176448   5.785   0.934   1.277
25402WAT     H276449   5.647   0.883   1.349
25403WAT      O76450   7.936   1.213   8.798
25403WAT     H176451   8.006   1.268   8.751
25403WAT     H276452   7.950   1.117   8.776
25404WAT      O76453   5.028   9.403   8.564
25404WAT     H176454   5.071   9.453   8.489
25404WAT     H276455   5.015   9.308   8.538
25405WAT      O76456   3.592   6.909   1.462
25405WAT     H176457   3.554   6.821   1.491
25405WAT     H276458   3.518   6.975   1.449
25406WAT      O76459   3.456   2.035   3.210
25406WAT     H176460   3.460   1.955   3.150
25406WAT     H276461   3.472   2.006   3.305
25407WAT      O76462   8.140   7.048   6.450
25407WAT     H176463   8.171   7.080   6.540
25407WAT     H276464   8.042   7.066   6.440
25408WAT      O76465   2.692   8.890   3.937
25408WAT     H176466   2.610   8.948   3.937
25408WAT     H276467   2.765   8.936   3.987
25409WAT      O76468   0.424   8.746   0.918
25409WAT     H176469   0.329   8.716   0.924
25409WAT     H276470   0.434   8.814   0.845
25410WAT      O76471   6.721   4.256   2.077
25410WAT     H176472   6.732   4.161   2.105
25410WAT     H276473   6.718   4.315   2.158
25411WAT      O76474   6.792   9.294   9.522
25411WAT     H176475   6.730   9.363   9.557
25411WAT     H276476   6.876   9.292   9.577
25412WAT      O76477   3.901   1.423   8.649
25412WAT     H176478   3.855   1.507   8.620
25412WAT     H276479   4.000   1.436   8.640
25413WAT      O76480   3.865   0.567   5.340
25413WAT     H176481   3.853   0.566   5.241
25413WAT     H276482   3.961   0.554   5.363
25414WAT      O76483   0.889   0.451   8.776
25414WAT     H176484   0.862   0.391   8.700
25414WAT     H276485   0.959   0.515   8.744
25415WAT      O76486   3.045   8.148   0.144
25415WAT     H176487   3.086   8.138   0.235
25415WAT     H276488   3.060   8.241   0.112
25416WAT      O76489   6.854   9.798   6.746
25416WAT     H176490   6.864   9.737   6.667
25416WAT     H276491   6.810   9.749   6.821
25417WAT      O76492   6.399   0.097   4.213
25417WAT     H176493   6.341   0.143   4.146
25417WAT     H276494   6.344   0.070   4.291
25418WAT      O76495   2.319   5.864   5.777
25418WAT     H176496   2.378   5.796   5.734
25418WAT     H276497   2.368   5.907   5.853
25419WAT      O76498   4.970   9.422   4.810
25419WAT     H176499   5.049   9.397   4.754
25419WAT     H276500   4.953   9.520   4.802
25420WAT      O76501   0.083   9.583   0.044
25420WAT     H176502   0.089   9.504  -0.017
25420WAT     H276503   0.103   9.667  -0.008
25421WAT      O76504   3.561   8.186   0.556
25421WAT     H176505   3.604   8.130   0.485
25421WAT     H276506   3.630   8.243   0.600
25422WAT      O76507   6.949   3.629   0.588
25422WAT     H176508   6.987   3.600   0.676
25422WAT     H276509   6.921   3.548   0.536
25423WAT      O76510   9.047   4.857   8.650
25423WAT     H176511   9.085   4.931   8.595
25423WAT     H276512   9.002   4.896   8.731
25424WAT      O76513   2.766   8.995   8.555
25424WAT     H176514   2.745   9.015   8.651
25424WAT     H276515   2.682   9.002   8.501
25425WAT      O76516   8.399   9.170   6.840
25425WAT     H176517   8.406   9.203   6.934
25425WAT     H276518   8.319   9.212   6.796
25426WAT      O76519   3.006   1.598   6.675
25426WAT     H176520   3.002   1.648   6.589
25426WAT     H276521   2.931   1.532   6.679
25427WAT      O76522   1.471   0.271   8.498
25427WAT     H176523   1.458   0.248   8.402
25427WAT     H276524   1.567   0.294   8.515
25428WAT      O76525   4.222   7.857   8.724
25428WAT     H176526   4.241   7.955   8.730
25428WAT     H276527   4.140   7.836   8.777
25429WAT      O76528   9.602   2.257   6.689
25429WAT     H176529   9.504   2.249   6.703
25429WAT     H276530   9.647   2.283   6.775
25430WAT      O76531   2.849   1.347   3.469
25430WAT     H176532   2.839   1.247   3.474
25430WAT     H276533   2.768   1.386   3.425
25431WAT      O76534   1.775   9.669   4.768
25431WAT     H176535   1.829   9.738   4.815
25431WAT     H276536   1.721   9.616   4.834
25432WAT      O76537   8.957   7.535   3.027
25432WAT     H176538   9.048   7.500   3.004
25432WAT     H276539   8.939   7.619   2.976
25433WAT      O76540   8.990   1.081   0.866
25433WAT     H176541   8.939   1.036   0.792
25433WAT     H276542   8.999   1.019   0.943
25434WAT      O76543   5.970   9.018   6.910
25434WAT     H176544   5.927   8.938   6.951
25434WAT     H276545   5.937   9.029   6.816
25435WAT      O76546   1.666   2.348   5.244
25435WAT     H176547   1.667   2.447   5.228
25435WAT     H276548   1.587   2.308   5.197
25436WAT      O76549   3.306   0.482   0.895
25436WAT     H176550   3.265   0.436   0.816
25436WAT     H276551   3.245   0.554   0.928
25437WAT      O76552   8.182   1.568   4.483
25437WAT     H176553   8.086   1.595   4.496
25437WAT     H276554   8.206   1.573   4.386
25438WAT      O76555   3.367   6.489   0.138
25438WAT     H176556   3.434   6.423   0.170
25438WAT     H276557   3.411   6.555   0.077
25439WAT      O76558   3.303   6.452   0.566
25439WAT     H176559   3.370   6.510   0.520
25439WAT     H276560   3.230   6.510   0.605
25440WAT      O76561   1.925   6.250   2.782
25440WAT     H176562   2.003   6.192   2.763
25440WAT     H276563   1.926   6.279   2.878
25441WAT      O76564   3.819   6.488   7.319
25441WAT     H176565   3.733   6.444   7.344
25441WAT     H276566   3.861   6.528   7.400
25442WAT      O76567   6.797   9.720   9.595
25442WAT     H176568   6.809   9.678   9.505
25442WAT     H276569   6.714   9.776   9.594
25443WAT      O76570   9.078   6.246   0.459
25443WAT     H176571   9.080   6.294   0.547
25443WAT     H276572   9.023   6.298   0.394
25444WAT      O76573   1.230   0.889   5.617
25444WAT     H176574   1.270   0.882   5.525
25444WAT     H276575   1.273   0.965   5.665
25445WAT      O76576   1.891   6.497   9.646
25445WAT     H176577   1.973   6.503   9.702
25445WAT     H276578   1.845   6.586   9.644
25446WAT      O76579   4.725   9.463   3.985
25446WAT     H176580   4.759   9.369   3.980
25446WAT     H276581   4.800   9.527   3.967
25447WAT      O76582   6.275   0.811   3.778
25447WAT     H176583   6.306   0.815   3.873
25447WAT     H276584   6.204   0.741   3.770
25448WAT      O76585   8.327   6.213   8.810
25448WAT     H176586   8.302   6.180   8.720
25448WAT     H276587   8.331   6.313   8.809
25449WAT      O76588   8.163   7.776   2.481
25449WAT     H176589   8.139   7.764   2.384
25449WAT     H276590   8.196   7.689   2.517
25450WAT      O76591   4.157   6.834   2.656
25450WAT     H176592   4.223   6.884   2.601
25450WAT     H276593   4.066   6.875   2.645
25451WAT      O76594   7.321   0.817   4.802
25451WAT     H176595   7.251   0.839   4.734
25451WAT     H276596   7.408   0.799   4.756
25452WAT      O76597   2.493   9.079   3.678
25452WAT     H176598   2.442   9.057   3.761
25452WAT     H276599   2.570   9.015   3.668
25453WAT      O76600   2.043   5.500   6.959
25453WAT     H176601   2.112   5.543   7.018
25453WAT     H276602   2.014   5.566   6.890
25454WAT      O76603   5.426   3.428   0.769
25454WAT     H176604   5.409   3.360   0.840
25454WAT     H276605   5.459   3.381   0.686
25455WAT      O76606   4.064   5.327   1.531
25455WAT     H176607   3.983   5.294   1.481
25455WAT     H276608   4.123   5.377   1.469
25456WAT      O76609   0.509   6.486   0.092
25456WAT     H176610   0.577   6.557   0.076
25456WAT     H276611   0.472   6.495   0.185
25457WAT      O76612   8.646   4.928   2.179
25457WAT     H176613   8.730   4.978   2.160
25457WAT     H276614   8.614   4.950   2.271
25458WAT      O76615   4.716   0.156   8.384
25458WAT     H176616   4.719   0.255   8.398
25458WAT     H276617   4.808   0.123   8.361
25459WAT      O76618   1.936   1.346   5.193
25459WAT     H176619   1.968   1.266   5.244
25459WAT     H276620   1.939   1.426   5.253
25460WAT      O76621   4.990   8.763   1.320
25460WAT     H176622   5.083   8.761   1.358
25460WAT     H276623   4.983   8.696   1.246
25461WAT      O76624   9.237   0.501   2.565
25461WAT     H176625   9.265   0.597   2.563
25461WAT     H276626   9.307   0.444   2.521
25462WAT      O76627   5.596   4.965   9.009
25462WAT     H176628   5.537   4.888   9.033
25462WAT     H276629   5.686   4.931   8.983
25463WAT      O76630   7.590   6.903   2.435
25463WAT     H176631   7.598   6.909   2.534
25463WAT     H276632   7.501   6.938   2.406
25464WAT      O76633   7.980   6.346   6.904
25464WAT     H176634   8.066   6.384   6.939
25464WAT     H276635   7.909   6.354   6.974
25465WAT      O76636   4.224   5.677   4.615
25465WAT     H176637   4.195   5.768   4.644
25465WAT     H276638   4.276   5.684   4.529
25466WAT      O76639   5.596   5.074   0.235
25466WAT     H176640   5.581   4.978   0.212
25466WAT     H276641   5.670   5.082   0.301
25467WAT      O76642   3.670   6.674   1.290
25467WAT     H176643   3.700   6.657   1.384
25467WAT     H276644   3.683   6.771   1.268
25468WAT      O76645   9.869   6.669   3.925
25468WAT     H176646   9.925   6.647   4.004
25468WAT     H276647   9.798   6.600   3.914
25469WAT      O76648   3.089   1.979   5.333
25469WAT     H176649   3.150   1.961   5.257
25469WAT     H276650   3.070   2.077   5.340
25470WAT      O76651   6.042   3.928   3.725
25470WAT     H176652   6.044   4.025   3.704
25470WAT     H276653   6.001   3.878   3.649
25471WAT      O76654   7.020   9.403   3.122
25471WAT     H176655   6.939   9.354   3.089
25471WAT     H276656   7.042   9.477   3.058
25472WAT      O76657   0.304   6.571   7.379
25472WAT     H176658   0.343   6.653   7.419
25472WAT     H276659   0.299   6.499   7.448
25473WAT      O76660   9.192   5.072   1.126
25473WAT     H176661   9.105   5.061   1.078
25473WAT     H276662   9.199   5.164   1.162
25474WAT      O76663   2.791   1.274   7.742
25474WAT     H176664   2.754   1.299   7.652
25474WAT     H276665   2.729   1.306   7.813
25475WAT      O76666   1.822   9.138   2.326
25475WAT     H176667   1.903   9.083   2.306
25475WAT     H276668   1.768   9.095   2.398
25476WAT      O76669   6.670   5.225   7.273
25476WAT     H176670   6.741   5.161   7.243
25476WAT     H276671   6.581   5.195   7.239
25477WAT      O76672   5.341   1.850   9.641
25477WAT     H176673   5.341   1.752   9.658
25477WAT     H276674   5.253   1.878   9.604
25478WAT      O76675   7.817   1.811   3.704
25478WAT     H176676   7.891   1.743   3.711
25478WAT     H276677   7.845   1.896   3.748
25479WAT      O76678   0.581   5.058   2.475
25479WAT     H176679   0.528   4.974   2.487
25479WAT     H276680   0.640   5.050   2.395
25480WAT      O76681   7.186   6.422   2.710
25480WAT     H176682   7.087   6.409   2.715
25480WAT     H276683   7.207   6.498   2.649
25481WAT      O76684   8.136   4.544   2.279
25481WAT     H176685   8.126   4.533   2.378
25481WAT     H276686   8.111   4.637   2.253
25482WAT      O76687   5.652   2.166   7.806
25482WAT     H176688   5.645   2.082   7.752
25482WAT     H276689   5.747   2.176   7.838
25483WAT      O76690   8.101   0.148   1.629
25483WAT     H176691   8.155   0.076   1.584
25483WAT     H276692   8.007   0.116   1.642
25484WAT      O76693   4.238   4.458   8.589
25484WAT     H176694   4.153   4.421   8.551
25484WAT     H276695   4.221   4.549   8.627
25485WAT      O76696   3.865   0.312   7.934
25485WAT     H176697   3.871   0.361   8.021
25485WAT     H276698   3.902   0.220   7.945
25486WAT      O76699   2.536   2.170   4.489
25486WAT     H176700   2.458   2.127   4.444
25486WAT     H276701   2.506   2.217   4.571
25487WAT      O76702   7.947   0.058   5.089
25487WAT     H176703   7.917  -0.036   5.069
25487WAT     H276704   8.047   0.060   5.095
25488WAT      O76705   4.687   7.285   2.308
25488WAT     H176706   4.680   7.320   2.215
25488WAT     H276707   4.595   7.271   2.346
25489WAT      O76708   7.523   3.523   9.379
25489WAT     H176709   7.593   3.464   9.421
25489WAT     H276710   7.559   3.562   9.295
25490WAT      O76711   6.938   9.662   0.140
25490WAT     H176712   7.012   9.611   0.097
25490WAT     H276713   6.851   9.637   0.096
25491WAT      O76714   0.611   9.181   2.179
25491WAT     H176715   0.666   9.166   2.261
25491WAT     H276716   0.565   9.270   2.186
25492WAT      O76717   9.737   3.645   5.991
25492WAT     H176718   9.812   3.623   5.930
25492WAT     H276719   9.687   3.562   6.014
25493WAT      O76720   8.299   7.775   9.634
25493WAT     H176721   8.212   7.824   9.635
25493WAT     H276722   8.328   7.760   9.539
25494WAT      O76723   4.787   0.877   3.318
25494WAT     H176724   4.779   0.973   3.343
25494WAT     H276725   4.877   0.860   3.278
25495WAT      O76726   2.886   5.512   1.473
25495WAT     H176727   2.810   5.482   1.531
25495WAT     H276728   2.853   5.530   1.381
25496WAT      O76729   5.349   2.596   1.417
25496WAT     H176730   5.434   2.642   1.394
25496WAT     H276731   5.368   2.510   1.464
25497WAT      O76732   2.492   2.238   3.370
25497WAT     H176733   2.425   2.228   3.297
25497WAT     H276734   2.569   2.294   3.338
25498WAT      O76735   9.014   5.968   0.807
25498WAT     H176736   9.066   5.892   0.768
25498WAT     H276737   8.952   5.933   0.878
25499WAT      O76738   7.519   0.532   8.859
25499WAT     H176739   7.508   0.593   8.936
25499WAT     H276740   7.610   0.543   8.819
25500WAT      O76741   8.657   6.672   2.919
25500WAT     H176742   8.719   6.597   2.894
25500WAT     H276743   8.582   6.636   2.974
25501WAT      O76744   5.059   4.985   2.634
25501WAT     H176745   5.113   5.010   2.553
25501WAT     H276746   5.086   4.894   2.665
25502WAT      O76747   5.934   5.307   5.005
25502WAT     H176748   5.965   5.356   5.086
25502WAT     H276749   5.858   5.247   5.029
25503WAT      O76750   4.459   1.140   9.216
25503WAT     H176751   4.485   1.223   9.166
25503WAT     H276752   4.533   1.115   9.279
25504WAT      O76753   3.111   8.749   4.533
25504WAT     H176754   3.040   8.679   4.527
25504WAT     H276755   3.201   8.705   4.536
25505WAT      O76756   2.172   3.897   1.902
25505WAT     H176757   2.218   3.983   1.920
25505WAT     H276758   2.075   3.914   1.887
25506WAT      O76759   7.087   3.639   1.781
25506WAT     H176760   7.165   3.674   1.728
25506WAT     H276761   7.116   3.558   1.832
25507WAT      O76762   5.603   6.440   4.767
25507WAT     H176763   5.525   6.497   4.743
25507WAT     H276764   5.669   6.439   4.692
25508WAT      O76765   7.802   3.920   4.949
25508WAT     H176766   7.807   3.833   4.998
25508WAT     H276767   7.710   3.958   4.958
25509WAT      O76768   3.140   1.921   6.142
25509WAT     H176769   3.158   2.019   6.146
25509WAT     H276770   3.226   1.871   6.157
25510WAT      O76771   6.281   1.846   0.096
25510WAT     H176772   6.370   1.809   0.123
25510WAT     H276773   6.294   1.912   0.022
25511WAT      O76774   9.211   5.267   8.410
25511WAT     H176775   9.264   5.287   8.327
25511WAT     H276776   9.259   5.303   8.490
25512WAT      O76777   5.547   8.210   5.336
25512WAT     H176778   5.636   8.244   5.365
25512WAT     H276779   5.505   8.157   5.410
25513WAT      O76780   0.108   8.880   5.024
25513WAT     H176781   0.125   8.782   5.034
25513WAT     H276782   0.018   8.903   5.062
25514WAT      O76783   2.583   5.055   1.885
25514WAT     H176784   2.578   4.998   1.803
25514WAT     H276785   2.674   5.096   1.892
25515WAT      O76786   4.027   3.227   4.561
25515WAT     H176787   4.059   3.321   4.563
25515WAT     H276788   4.054   3.184   4.475
25516WAT      O76789   1.800   9.472   4.154
25516WAT     H176790   1.837   9.397   4.100
25516WAT     H276791   1.813   9.453   4.251
25517WAT      O76792   8.864   5.156   1.408
25517WAT     H176793   8.829   5.178   1.499
25517WAT     H276794   8.956   5.119   1.415
25518WAT      O76795   5.755   2.027   1.085
25518WAT     H176796   5.832   2.075   1.127
25518WAT     H276797   5.765   2.028   0.985
25519WAT      O76798   6.291   8.894   7.420
25519WAT     H176799   6.316   8.806   7.462
25519WAT     H276800   6.291   8.965   7.491
25520WAT      O76801   1.702   3.451   0.977
25520WAT     H176802   1.671   3.381   1.042
25520WAT     H276803   1.679   3.422   0.884
25521WAT      O76804   1.485   8.034   8.964
25521WAT     H176805   1.550   8.021   8.889
25521WAT     H276806   1.392   8.035   8.927
25522WAT      O76807   8.310   0.833   3.209
25522WAT     H176808   8.298   0.900   3.283
25522WAT     H276809   8.256   0.861   3.130
25523WAT      O76810   2.891   1.788   7.854
25523WAT     H176811   2.860   1.863   7.912
25523WAT     H276812   2.987   1.767   7.875
25524WAT      O76813   4.300   2.655   3.454
25524WAT     H176814   4.269   2.725   3.391
25524WAT     H276815   4.283   2.565   3.416
25525WAT      O76816   8.796   8.700   9.824
25525WAT     H176817   8.772   8.609   9.859
25525WAT     H276818   8.742   8.719   9.742
25526WAT      O76819   3.175   0.167   3.673
25526WAT     H176820   3.240   0.181   3.748
25526WAT     H276821   3.206   0.215   3.592
25527WAT      O76822   8.204   8.015   3.859
25527WAT     H176823   8.297   7.979   3.853
25527WAT     H276824   8.144   7.946   3.899
25528WAT      O76825   6.342   5.033   1.789
25528WAT     H176826   6.424   5.063   1.740
25528WAT     H276827   6.304   5.110   1.840
25529WAT      O76828   3.202   4.376   6.993
25529WAT     H176829   3.115   4.410   7.029
25529WAT     H276830   3.221   4.419   6.905
25530WAT      O76831   7.958   4.422   9.829
25530WAT     H176832   7.863   4.438   9.854
25530WAT     H276833   7.985   4.330   9.856
25531WAT      O76834   3.465   0.464   1.252
25531WAT     H176835   3.540   0.442   1.314
25531WAT     H276836   3.415   0.543   1.287
25532WAT      O76837   3.427   1.718   6.235
25532WAT     H176838   3.361   1.721   6.310
25532WAT     H276839   3.396   1.653   6.166
25533WAT      O76840   3.809   7.858   7.928
25533WAT     H176841   3.879   7.801   7.885
25533WAT     H276842   3.767   7.808   8.004
25534WAT      O76843   5.578   2.353   6.133
25534WAT     H176844   5.566   2.449   6.157
25534WAT     H276845   5.651   2.313   6.190
25535WAT      O76846   8.112   2.768   6.090
25535WAT     H176847   8.124   2.851   6.145
25535WAT     H276848   8.188   2.706   6.106
25536WAT      O76849   7.581   6.931   3.237
25536WAT     H176850   7.611   7.025   3.227
25536WAT     H276851   7.484   6.923   3.214
25537WAT      O76852   2.773   4.031   6.909
25537WAT     H176853   2.682   4.072   6.900
25537WAT     H276854   2.800   4.031   7.005
25538WAT      O76855   4.142   8.465   2.155
25538WAT     H176856   4.123   8.421   2.067
25538WAT     H276857   4.091   8.551   2.161
25539WAT      O76858   3.574   9.465   3.941
25539WAT     H176859   3.594   9.542   3.880
25539WAT     H276860   3.565   9.381   3.887
25540WAT      O76861   5.655   4.957   3.354
25540WAT     H176862   5.745   4.931   3.318
25540WAT     H276863   5.610   5.017   3.288
25541WAT      O76864   6.303   3.703   7.253
25541WAT     H176865   6.216   3.738   7.218
25541WAT     H276866   6.295   3.686   7.351
25542WAT      O76867   4.013   7.584   1.755
25542WAT     H176868   4.061   7.498   1.774
25542WAT     H276869   4.032   7.613   1.662
25543WAT      O76870   0.300   5.286   5.401
25543WAT     H176871   0.244   5.351   5.349
25543WAT     H276872   0.321   5.207   5.344
25544WAT      O76873   7.272   9.358   8.982
25544WAT     H176874   7.177   9.352   9.011
25544WAT     H276875   7.324   9.281   9.019
25545WAT      O76876   1.362   9.045   8.113
25545WAT     H176877   1.415   9.019   8.033
25545WAT     H276878   1.375   8.976   8.185
25546WAT      O76879   3.293   7.543   3.438
25546WAT     H176880   3.244   7.489   3.370
25546WAT     H276881   3.358   7.604   3.391
25547WAT      O76882   4.838   0.332   5.493
25547WAT     H176883   4.907   0.404   5.488
25547WAT     H276884   4.853   0.266   5.419
25548WAT      O76885   4.239   1.986   2.860
25548WAT     H176886   4.171   1.932   2.812
25548WAT     H276887   4.309   2.017   2.796
25549WAT      O76888   9.332   4.892   1.263
25549WAT     H176889   9.245   4.847   1.242
25549WAT     H276890   9.327   4.988   1.238
25550WAT      O76891   4.368   5.643   2.506
25550WAT     H176892   4.389   5.733   2.543
25550WAT     H276893   4.435   5.576   2.539
25551WAT      O76894   5.078   0.148   3.836
25551WAT     H176895   5.027   0.128   3.752
25551WAT     H276896   5.041   0.095   3.911
25552WAT      O76897   8.547   2.193   5.810
25552WAT     H176898   8.489   2.169   5.732
25552WAT     H276899   8.514   2.279   5.850
25553WAT      O76900   0.919   7.791   9.802
25553WAT     H176901   0.938   7.729   9.879
25553WAT     H276902   0.993   7.858   9.795
25554WAT      O76903   7.171   1.462   2.851
25554WAT     H176904   7.163   1.367   2.821
25554WAT     H276905   7.089   1.489   2.901
25555WAT      O76906   3.982   7.288   9.412
25555WAT     H176907   4.066   7.292   9.467
25555WAT     H276908   3.921   7.219   9.449
25556WAT      O76909   4.567   0.845   4.389
25556WAT     H176910   4.532   0.883   4.474
25556WAT     H276911   4.597   0.751   4.405
25557WAT      O76912   2.196   4.409   5.173
25557WAT     H176913   2.138   4.490   5.175
25557WAT     H276914   2.274   4.426   5.114
25558WAT      O76915   0.164   8.461   9.750
25558WAT     H176916   0.171   8.396   9.674
25558WAT     H276917   0.228   8.434   9.822
25559WAT      O76918   1.498   5.386   3.233
25559WAT     H176919   1.594   5.393   3.206
25559WAT     H276920   1.479   5.293   3.265
25560WAT      O76921   5.320   6.647   0.610
25560WAT     H176922   5.358   6.567   0.657
25560WAT     H276923   5.270   6.617   0.529
25561WAT      O76924   3.844   4.088   7.880
25561WAT     H176925   3.827   4.127   7.970
25561WAT     H276926   3.817   3.991   7.881
25562WAT      O76927   5.516   5.053   1.972
25562WAT     H176928   5.445   5.066   1.903
25562WAT     H276929   5.571   5.136   1.980
25563WAT      O76930   8.678   9.800   4.058
25563WAT     H176931   8.707   9.735   3.988
25563WAT     H276932   8.599   9.851   4.026
25564WAT      O76933   3.075   0.222   2.718
25564WAT     H176934   3.048   0.270   2.802
25564WAT     H276935   3.025   0.135   2.712
25565WAT      O76936   0.902   3.569   2.383
25565WAT     H176937   0.855   3.616   2.458
25565WAT     H276938   0.926   3.477   2.411
25566WAT      O76939   1.659   4.332   5.457
25566WAT     H176940   1.716   4.334   5.375
25566WAT     H276941   1.709   4.288   5.531
25567WAT      O76942   9.329   3.197   9.117
25567WAT     H176943   9.329   3.127   9.188
25567WAT     H276944   9.246   3.187   9.061
25568WAT      O76945   7.998   7.515   1.899
25568WAT     H176946   7.938   7.585   1.937
25568WAT     H276947   7.945   7.434   1.875
25569WAT      O76948   9.496   8.110   7.589
25569WAT     H176949   9.547   8.029   7.620
25569WAT     H276950   9.408   8.082   7.552
25570WAT      O76951   7.741   4.865   2.009
25570WAT     H176952   7.785   4.822   1.930
25570WAT     H276953   7.793   4.945   2.037
25571WAT      O76954   2.136   1.888   7.485
25571WAT     H176955   2.135   1.803   7.433
25571WAT     H276956   2.087   1.876   7.571
25572WAT      O76957   2.597   2.265   6.640
25572WAT     H176958   2.582   2.311   6.727
25572WAT     H276959   2.635   2.174   6.657
25573WAT      O76960   3.167   6.261   1.847
25573WAT     H176961   3.072   6.231   1.838
25573WAT     H276962   3.216   6.196   1.906
25574WAT      O76963   1.255   4.440   8.640
25574WAT     H176964   1.232   4.343   8.642
25574WAT     H276965   1.236   4.477   8.548
25575WAT      O76966   7.912   6.463   5.185
25575WAT     H176967   7.873   6.555   5.195
25575WAT     H276968   7.950   6.452   5.093
25576WAT      O76969   7.157   4.665   7.674
25576WAT     H176970   7.151   4.638   7.770
25576WAT     H276971   7.175   4.764   7.668
25577WAT      O76972   5.604   3.638   7.939
25577WAT     H176973   5.532   3.595   7.994
25577WAT     H276974   5.620   3.731   7.972
25578WAT      O76975   3.671   3.792   8.794
25578WAT     H176976   3.737   3.822   8.863
25578WAT     H276977   3.714   3.726   8.733
25579WAT      O76978   1.520   5.692   0.403
25579WAT     H176979   1.575   5.700   0.485
25579WAT     H276980   1.465   5.775   0.391
25580WAT      O76981   8.030   2.372   6.890
25580WAT     H176982   8.046   2.289   6.836
25580WAT     H276983   8.094   2.443   6.862
25581WAT      O76984   1.062   6.637   7.102
25581WAT     H176985   1.043   6.723   7.149
25581WAT     H276986   0.987   6.573   7.115
25582WAT      O76987   8.498   6.372   3.616
25582WAT     H176988   8.434   6.349   3.689
25582WAT     H276989   8.449   6.420   3.543
25583WAT      O76990   6.551   8.724   5.309
25583WAT     H176991   6.485   8.650   5.301
25583WAT     H276992   6.508   8.803   5.352
25584WAT      O76993   0.742   8.191   8.706
25584WAT     H176994   0.790   8.114   8.666
25584WAT     H276995   0.650   8.197   8.667
25585WAT      O76996   9.357   4.357   7.298
25585WAT     H176997   9.427   4.416   7.257
25585WAT     H276998   9.372   4.350   7.396
25586WAT      O76999   5.513   6.896   4.926
25586WAT     H177000   5.455   6.825   4.888
25586WAT     H277001   5.552   6.950   4.852
25587WAT      O77002   9.871   2.653   6.992
25587WAT     H177003   9.904   2.573   6.941
25587WAT     H277004   9.900   2.646   7.087
25588WAT      O77005   7.136   7.941   2.346
25588WAT     H177006   7.229   7.964   2.317
25588WAT     H277007   7.117   7.846   2.323
25589WAT      O77008   8.467   8.324   9.453
25589WAT     H177009   8.464   8.334   9.553
25589WAT     H277010   8.480   8.228   9.430
25590WAT      O77011   0.727   9.227   8.447
25590WAT     H177012   0.812   9.264   8.484
25590WAT     H277013   0.670   9.194   8.522
25591WAT      O77014   1.431   1.423   9.205
25591WAT     H177015   1.499   1.447   9.135
25591WAT     H277016   1.399   1.506   9.250
25592WAT      O77017   7.668   0.711   1.355
25592WAT     H177018   7.597   0.728   1.423
25592WAT     H277019   7.667   0.783   1.286
25593WAT      O77020   4.357   6.352   1.667
25593WAT     H177021   4.427   6.301   1.618
25593WAT     H277022   4.349   6.318   1.760
25594WAT      O77023   4.184   6.532   1.029
25594WAT     H177024   4.246   6.506   1.103
25594WAT     H277025   4.117   6.458   1.015
25595WAT      O77026   7.958   8.178   9.108
25595WAT     H177027   7.862   8.155   9.125
25595WAT     H277028   7.964   8.238   9.029
25596WAT      O77029   5.180   9.341   4.648
25596WAT     H177030   5.193   9.253   4.603
25596WAT     H277031   5.269   9.381   4.669
25597WAT      O77032   1.092   7.992   9.764
25597WAT     H177033   1.192   7.984   9.759
25597WAT     H277034   1.068   8.069   9.823
25598WAT      O77035   4.476   0.283   6.315
25598WAT     H177036   4.431   0.321   6.396
25598WAT     H277037   4.482   0.184   6.324
25599WAT      O77038   2.050   6.665   2.868
25599WAT     H177039   1.977   6.677   2.935
25599WAT     H277040   2.108   6.588   2.895
25600WAT      O77041   7.822   5.518   4.233
25600WAT     H177042   7.806   5.507   4.331
25600WAT     H277043   7.736   5.544   4.188
25601WAT      O77044   6.212   2.817   9.422
25601WAT     H177045   6.190   2.913   9.401
25601WAT     H277046   6.300   2.793   9.381
25602WAT      O77047   7.187   4.651   1.934
25602WAT     H177048   7.244   4.650   1.852
25602WAT     H277049   7.108   4.591   1.920
25603WAT      O77050   9.587   6.473   4.554
25603WAT     H177051   9.671   6.527   4.559
25603WAT     H277052   9.568   6.433   4.644
25604WAT      O77053   3.569   7.214   2.439
25604WAT     H177054   3.627   7.257   2.371
25604WAT     H277055   3.621   7.144   2.488
25605WAT      O77056   7.365   7.511   8.797
25605WAT     H177057   7.459   7.535   8.774
25605WAT     H277058   7.351   7.520   8.896
25606WAT      O77059   5.274   5.112   3.269
25606WAT     H177060   5.186   5.154   3.289
25606WAT     H277061   5.295   5.126   3.172
25607WAT      O77062   6.388   2.228   4.975
25607WAT     H177063   6.421   2.183   4.892
25607WAT     H277064   6.297   2.194   4.997
25608WAT      O77065   9.700   9.369   3.741
25608WAT     H177066   9.604   9.350   3.762
25608WAT     H277067   9.758   9.326   3.811
25609WAT      O77068   4.798   7.882   7.890
25609WAT     H177069   4.740   7.951   7.846
25609WAT     H277070   4.878   7.927   7.930
25610WAT      O77071   9.794   2.304   7.573
25610WAT     H177072   9.883   2.329   7.535
25610WAT     H277073   9.758   2.380   7.626
25611WAT      O77074   4.891   5.810   9.004
25611WAT     H177075   4.988   5.829   9.019
25611WAT     H277076   4.881   5.729   8.946
25612WAT      O77077   2.250   8.105   9.072
25612WAT     H177078   2.269   8.054   9.156
25612WAT     H277079   2.247   8.203   9.092
25613WAT      O77080   9.410   4.468   9.555
25613WAT     H177081   9.389   4.514   9.469
25613WAT     H277082   9.503   4.493   9.584
25614WAT      O77083   0.795   0.870   0.453
25614WAT     H177084   0.757   0.779   0.465
25614WAT     H277085   0.721   0.935   0.436
25615WAT      O77086   0.451   0.705   5.426
25615WAT     H177087   0.466   0.719   5.328
25615WAT     H277088   0.528   0.743   5.477
25616WAT      O77089   5.033   8.557   8.381
25616WAT     H177090   5.064   8.596   8.468
25616WAT     H277091   5.111   8.515   8.334
25617WAT      O77092   6.448   7.442   7.542
25617WAT     H177093   6.502   7.525   7.532
25617WAT     H277094   6.471   7.398   7.629
25618WAT      O77095   2.880   3.496   1.511
25618WAT     H177096   2.849   3.443   1.590
25618WAT     H277097   2.963   3.547   1.535
25619WAT      O77098   3.570   3.391   8.628
25619WAT     H177099   3.649   3.365   8.684
25619WAT     H277100   3.506   3.444   8.683
25620WAT      O77101   6.375   9.246   4.549
25620WAT     H177102   6.391   9.230   4.452
25620WAT     H277103   6.425   9.179   4.604
25621WAT      O77104   2.155   6.671   2.522
25621WAT     H177105   2.103   6.755   2.538
25621WAT     H277106   2.117   6.623   2.443
25622WAT      O77107   1.436   8.089   6.973
25622WAT     H177108   1.500   8.107   7.047
25622WAT     H277109   1.358   8.037   7.008
25623WAT      O77110   0.878   1.401   1.145
25623WAT     H177111   0.903   1.332   1.214
25623WAT     H277112   0.812   1.465   1.184
25624WAT      O77113   1.720   4.450   5.024
25624WAT     H177114   1.624   4.423   5.016
25624WAT     H277115   1.734   4.499   5.110
25625WAT      O77116   7.577   5.309   2.919
25625WAT     H177117   7.508   5.381   2.921
25625WAT     H277118   7.604   5.292   2.824
25626WAT      O77119   2.900   1.422   4.056
25626WAT     H177120   2.911   1.359   3.979
25626WAT     H277121   2.864   1.509   4.022
25627WAT      O77122   7.799   0.738   1.977
25627WAT     H177123   7.887   0.786   1.978
25627WAT     H277124   7.727   0.801   2.005
25628WAT      O77125   4.630   1.482   9.806
25628WAT     H177126   4.683   1.540   9.868
25628WAT     H277127   4.626   1.389   9.842
25629WAT      O77128   0.603   7.980   7.629
25629WAT     H177129   0.591   8.012   7.535
25629WAT     H277130   0.701   7.974   7.651
25630WAT      O77131   3.599   0.088   4.181
25630WAT     H177132   3.695   0.071   4.202
25630WAT     H277133   3.583   0.187   4.172
25631WAT      O77134   9.035   7.536   6.136
25631WAT     H177135   8.994   7.527   6.045
25631WAT     H277136   8.983   7.604   6.188
25632WAT      O77137   9.218   8.738   6.650
25632WAT     H177138   9.225   8.642   6.676
25632WAT     H277139   9.292   8.761   6.587
25633WAT      O77140   6.178   0.235   4.058
25633WAT     H177141   6.186   0.216   3.961
25633WAT     H277142   6.116   0.170   4.101
25634WAT      O77143   2.874   7.714   8.492
25634WAT     H177144   2.843   7.685   8.402
25634WAT     H277145   2.821   7.794   8.522
25635WAT      O77146   0.979   7.708   1.781
25635WAT     H177147   0.922   7.646   1.728
25635WAT     H277148   0.992   7.670   1.873
25636WAT      O77149   9.758   9.604   4.289
25636WAT     H177150   9.699   9.671   4.244
25636WAT     H277151   9.808   9.551   4.220
25637WAT      O77152   0.419   5.225   3.690
25637WAT     H177153   0.484   5.300   3.685
25637WAT     H277154   0.461   5.146   3.736
25638WAT      O77155   2.218   8.745   7.711
25638WAT     H177156   2.307   8.770   7.675
25638WAT     H277157   2.224   8.658   7.759
25639WAT      O77158   7.880   6.045   4.109
25639WAT     H177159   7.970   6.004   4.092
25639WAT     H277160   7.856   6.035   4.205
25640WAT      O77161   4.549   7.419   3.733
25640WAT     H177162   4.554   7.489   3.804
25640WAT     H277163   4.571   7.330   3.773
25641WAT      O77164   4.860   0.660   1.902
25641WAT     H177165   4.842   0.589   1.970
25641WAT     H277166   4.847   0.623   1.810
25642WAT      O77167   0.551   1.985   7.602
25642WAT     H177168   0.504   2.064   7.642
25642WAT     H277169   0.523   1.976   7.506
25643WAT      O77170   6.296   6.669   7.793
25643WAT     H177171   6.353   6.686   7.712
25643WAT     H277172   6.313   6.740   7.861
25644WAT      O77173   0.219   6.777   8.629
25644WAT     H177174   0.298   6.715   8.634
25644WAT     H277175   0.140   6.727   8.594
25645WAT      O77176   8.397   0.954   3.529
25645WAT     H177177   8.452   1.027   3.569
25645WAT     H277178   8.449   0.869   3.530
25646WAT      O77179   5.025   1.571   1.360
25646WAT     H177180   5.081   1.617   1.430
25646WAT     H277181   4.995   1.638   1.293
25647WAT      O77182   5.321   6.336   6.136
25647WAT     H177183   5.378   6.414   6.109
25647WAT     H277184   5.323   6.326   6.235
25648WAT      O77185   4.402   8.725   8.379
25648WAT     H177186   4.345   8.687   8.305
25648WAT     H277187   4.496   8.735   8.347
25649WAT      O77188   3.208   4.241   8.694
25649WAT     H177189   3.143   4.225   8.769
25649WAT     H277190   3.161   4.229   8.607
25650WAT      O77191   0.466   1.310   7.415
25650WAT     H177192   0.401   1.373   7.373
25650WAT     H277193   0.416   1.234   7.457
25651WAT      O77194   8.247   2.061   6.213
25651WAT     H177195   8.151   2.054   6.184
25651WAT     H277196   8.305   2.020   6.143
25652WAT      O77197   7.260   7.802   5.763
25652WAT     H177198   7.162   7.815   5.776
25652WAT     H277199   7.309   7.831   5.845
25653WAT      O77200   2.318   0.292   7.402
25653WAT     H177201   2.334   0.196   7.378
25653WAT     H277202   2.367   0.351   7.337
25654WAT      O77203   5.928   9.237   8.073
25654WAT     H177204   5.851   9.206   8.128
25654WAT     H277205   5.946   9.172   7.999
25655WAT      O77206   7.180   6.709   6.593
25655WAT     H177207   7.228   6.720   6.506
25655WAT     H277208   7.247   6.694   6.666
25656WAT      O77209   5.163   0.057   6.027
25656WAT     H177210   5.144   0.027   5.933
25656WAT     H277211   5.079   0.051   6.081
25657WAT      O77212   1.835   6.481   7.776
25657WAT     H177213   1.854   6.456   7.871
25657WAT     H277214   1.921   6.498   7.728
25658WAT      O77215   2.169   5.280   8.654
25658WAT     H177216   2.111   5.335   8.594
25658WAT     H277217   2.259   5.268   8.612
25659WAT      O77218   7.036   3.168   7.125
25659WAT     H177219   7.018   3.215   7.211
25659WAT     H277220   7.127   3.195   7.091
25660WAT      O77221   7.809   3.076   0.012
25660WAT     H177222   7.798   3.122   0.100
25660WAT     H277223   7.844   3.141  -0.055
25661WAT      O77224   4.077   0.852   3.898
25661WAT     H177225   4.156   0.840   3.957
25661WAT     H277226   4.005   0.789   3.925
25662WAT      O77227   5.083   9.481   5.912
25662WAT     H177228   4.992   9.509   5.942
25662WAT     H277229   5.151   9.510   5.980
25663WAT      O77230   9.861   7.094   6.909
25663WAT     H177231   9.769   7.117   6.876
25663WAT     H277232   9.913   7.052   6.834
25664WAT      O77233   5.600   4.479   8.998
25664WAT     H177234   5.697   4.473   8.975
25664WAT     H277235   5.545   4.433   8.928
25665WAT      O77236   0.075   0.689   6.950
25665WAT     H177237   0.076   0.779   6.907
25665WAT     H277238   0.144   0.684   7.021
25666WAT      O77239   5.344   9.713   4.920
25666WAT     H177240   5.303   9.784   4.977
25666WAT     H277241   5.439   9.738   4.899
25667WAT      O77242   5.707   3.132   1.174
25667WAT     H177243   5.655   3.216   1.186
25667WAT     H277244   5.651   3.065   1.125
25668WAT      O77245   5.116   3.941   5.234
25668WAT     H177246   5.129   3.865   5.171
25668WAT     H277247   5.199   3.954   5.288
25669WAT      O77248   3.519   8.479   0.677
25669WAT     H177249   3.533   8.563   0.730
25669WAT     H277250   3.593   8.414   0.696
25670WAT      O77251   8.336   3.644   0.038
25670WAT     H177252   8.257   3.699   0.063
25670WAT     H277253   8.353   3.576   0.110
25671WAT      O77254   1.500   3.944   8.004
25671WAT     H177255   1.585   3.895   8.020
25671WAT     H277256   1.507   3.994   7.917
25672WAT      O77257   4.921   0.678   4.303
25672WAT     H177258   4.936   0.774   4.323
25672WAT     H277259   4.843   0.645   4.357
25673WAT      O77260   2.306   7.595   2.795
25673WAT     H177261   2.315   7.694   2.787
25673WAT     H277262   2.286   7.571   2.889
25674WAT      O77263   3.049   2.366   8.531
25674WAT     H177264   3.011   2.456   8.508
25674WAT     H277265   3.009   2.334   8.617
25675WAT      O77266   2.503   6.342   8.176
25675WAT     H177267   2.419   6.364   8.128
25675WAT     H277268   2.499   6.248   8.210
25676WAT      O77269   1.316   6.481   4.297
25676WAT     H177270   1.375   6.479   4.216
25676WAT     H277271   1.282   6.574   4.311
25677WAT      O77272   7.265   6.473   1.774
25677WAT     H177273   7.270   6.570   1.800
25677WAT     H277274   7.323   6.457   1.694
25678WAT      O77275   4.060   8.804   2.899
25678WAT     H177276   4.089   8.891   2.859
25678WAT     H277277   4.109   8.788   2.985
25679WAT      O77278   3.001   9.537   0.418
25679WAT     H177279   3.038   9.447   0.440
25679WAT     H277280   2.962   9.535   0.325
25680WAT      O77281   7.226   3.640   2.857
25680WAT     H177282   7.199   3.730   2.892
25680WAT     H277283   7.281   3.593   2.927
25681WAT      O77284   8.509   8.775   8.194
25681WAT     H177285   8.527   8.692   8.142
25681WAT     H277286   8.412   8.797   8.189
25682WAT      O77287   9.178   4.960   7.656
25682WAT     H177288   9.173   4.863   7.682
25682WAT     H277289   9.269   4.995   7.676
25683WAT      O77290   6.514   2.505   6.936
25683WAT     H177291   6.426   2.552   6.948
25683WAT     H277292   6.583   2.548   6.994
25684WAT      O77293   9.849   1.871   0.629
25684WAT     H177294   9.828   1.968   0.620
25684WAT     H277295   9.867   1.833   0.539
25685WAT      O77296   4.938   3.599   7.002
25685WAT     H177297   4.896   3.521   6.954
25685WAT     H277298   5.008   3.566   7.064
25686WAT      O77299   3.121   3.399   4.544
25686WAT     H177300   3.163   3.398   4.453
25686WAT     H277301   3.163   3.329   4.601
25687WAT      O77302   7.229   2.612   4.837
25687WAT     H177303   7.253   2.668   4.758
25687WAT     H277304   7.298   2.542   4.851
25688WAT      O77305   0.965   3.770   3.105
25688WAT     H177306   1.003   3.817   3.184
25688WAT     H277307   0.866   3.784   3.102
25689WAT      O77308   5.656   3.370   6.554
25689WAT     H177309   5.659   3.275   6.586
25689WAT     H277310   5.561   3.400   6.544
25690WAT      O77311   1.574   4.708   4.685
25690WAT     H177312   1.644   4.680   4.751
25690WAT     H277313   1.512   4.774   4.729
25691WAT      O77314   7.885   6.810   6.184
25691WAT     H177315   7.797   6.856   6.183
25691WAT     H277316   7.875   6.718   6.146
25692WAT      O77317   4.796   1.657   0.390
25692WAT     H177318   4.748   1.632   0.474
25692WAT     H277319   4.873   1.717   0.412
25693WAT      O77320   5.944   1.644   1.198
25693WAT     H177321   5.864   1.633   1.138
25693WAT     H277322   5.923   1.710   1.269
25694WAT      O77323   1.784   7.317   8.066
25694WAT     H177324   1.770   7.358   8.156
25694WAT     H277325   1.720   7.358   8.001
25695WAT      O77326   7.149   8.298   3.713
25695WAT     H177327   7.131   8.368   3.644
25695WAT     H277328   7.235   8.252   3.693
25696WAT      O77329   1.323   4.616   7.709
25696WAT     H177330   1.378   4.693   7.676
25696WAT     H277331   1.247   4.651   7.765
25697WAT      O77332   5.773   5.662   5.709
25697WAT     H177333   5.695   5.681   5.768
25697WAT     H277334   5.858   5.687   5.756
25698WAT      O77335   0.735   5.724   5.477
25698WAT     H177336   0.730   5.684   5.385
25698WAT     H277337   0.809   5.680   5.528
25699WAT      O77338   8.639   8.204   7.672
25699WAT     H177339   8.698   8.125   7.656
25699WAT     H277340   8.544   8.178   7.652
25700WAT      O77341   7.831   5.129   6.229
25700WAT     H177342   7.861   5.224   6.237
25700WAT     H277343   7.795   5.113   6.137
25701WAT      O77344   3.454   6.630   5.693
25701WAT     H177345   3.413   6.570   5.762
25701WAT     H277346   3.386   6.696   5.662
25702WAT      O77347   2.033   7.901   9.284
25702WAT     H177348   1.944   7.856   9.274
25702WAT     H277349   2.106   7.834   9.269
25703WAT      O77350   4.291   6.230   1.914
25703WAT     H177351   4.374   6.199   1.961
25703WAT     H277352   4.225   6.155   1.910
25704WAT      O77353   9.708   5.824   6.600
25704WAT     H177354   9.691   5.853   6.506
25704WAT     H277355   9.794   5.864   6.632
25705WAT      O77356   4.429   9.163   6.573
25705WAT     H177357   4.491   9.084   6.573
25705WAT     H277358   4.477   9.244   6.607
25706WAT      O77359   9.518   9.195   9.873
25706WAT     H177360   9.539   9.276   9.819
25706WAT     H277361   9.557   9.205   9.964
25707WAT      O77362   4.773   9.806   7.334
25707WAT     H177363   4.733   9.736   7.393
25707WAT     H277364   4.860   9.836   7.372
25708WAT      O77365   7.208   0.999   8.060
25708WAT     H177366   7.109   0.988   8.049
25708WAT     H277367   7.237   1.084   8.015
25709WAT      O77368   8.274   9.262   3.636
25709WAT     H177369   8.243   9.314   3.715
25709WAT     H277370   8.217   9.283   3.557
25710WAT      O77371   9.682   6.373   7.227
25710WAT     H177372   9.606   6.401   7.168
25710WAT     H277373   9.766   6.367   7.173
25711WAT      O77374   9.580   1.321   8.668
25711WAT     H177375   9.481   1.320   8.675
25711WAT     H277376   9.612   1.231   8.637
25712WAT      O77377   9.183   3.012   2.305
25712WAT     H177378   9.199   2.929   2.252
25712WAT     H277379   9.270   3.058   2.323
25713WAT      O77380   6.114   5.190   5.363
25713WAT     H177381   6.093   5.114   5.303
25713WAT     H277382   6.120   5.157   5.458
25714WAT      O77383   8.776   1.335   6.496
25714WAT     H177384   8.821   1.317   6.584
25714WAT     H277385   8.840   1.319   6.421
25715WAT      O77386   2.270   2.341   8.188
25715WAT     H177387   2.266   2.266   8.122
25715WAT     H277388   2.212   2.416   8.155
25716WAT      O77389   2.181   1.214   0.614
25716WAT     H177390   2.085   1.189   0.617
25716WAT     H277391   2.234   1.142   0.569
25717WAT      O77392   7.649   9.628   3.411
25717WAT     H177393   7.647   9.532   3.384
25717WAT     H277394   7.729   9.672   3.372
25718WAT      O77395   6.913   5.884   7.256
25718WAT     H177396   6.879   5.977   7.269
25718WAT     H277397   6.835   5.822   7.246
25719WAT      O77398   0.765   6.382   3.518
25719WAT     H177399   0.685   6.416   3.468
25719WAT     H277400   0.849   6.416   3.475
25720WAT      O77401   6.102   5.650   7.454
25720WAT     H177402   6.098   5.588   7.532
25720WAT     H277403   6.017   5.644   7.402
25721WAT      O77404   1.097   2.907   2.548
25721WAT     H177405   0.999   2.922   2.545
25721WAT     H277406   1.137   2.958   2.625
25722WAT      O77407   7.437   3.138   5.726
25722WAT     H177408   7.504   3.172   5.660
25722WAT     H277409   7.484   3.104   5.807
25723WAT      O77410   8.492   8.597   9.042
25723WAT     H177411   8.573   8.540   9.028
25723WAT     H277412   8.455   8.625   8.953
25724WAT      O77413   2.418   7.856   2.548
25724WAT     H177414   2.331   7.817   2.518
25724WAT     H277415   2.489   7.786   2.545
25725WAT      O77416   5.436   6.931   9.408
25725WAT     H177417   5.372   6.885   9.347
25725WAT     H277418   5.411   7.028   9.416
25726WAT      O77419   4.957   6.155   4.469
25726WAT     H177420   4.972   6.060   4.439
25726WAT     H277421   5.032   6.182   4.530
25727WAT      O77422   3.935   8.410   3.035
25727WAT     H177423   3.944   8.448   3.128
25727WAT     H277424   3.887   8.322   3.039
25728WAT      O77425   1.905   8.085   0.843
25728WAT     H177426   1.933   7.996   0.880
25728WAT     H277427   1.915   8.155   0.913
25729WAT      O77428   8.267   2.835   5.021
25729WAT     H177429   8.248   2.932   5.002
25729WAT     H277430   8.265   2.819   5.119
25730WAT      O77431   9.097   4.150   9.471
25730WAT     H177432   9.128   4.057   9.453
25730WAT     H277433   9.079   4.197   9.384
25731WAT      O77434   3.023   1.720   3.251
25731WAT     H177435   2.974   1.699   3.335
25731WAT     H277436   3.064   1.811   3.258
25732WAT      O77437   3.654   0.420   1.442
25732WAT     H177438   3.657   0.321   1.429
25732WAT     H277439   3.745   0.459   1.430
25733WAT      O77440   2.533   3.444   9.641
25733WAT     H177441   2.606   3.482   9.698
25733WAT     H277442   2.462   3.513   9.626
25734WAT      O77443   4.260   7.386   7.891
25734WAT     H177444   4.206   7.426   7.965
25734WAT     H277445   4.210   7.394   7.805
25735WAT      O77446   9.377   5.175   2.951
25735WAT     H177447   9.315   5.251   2.971
25735WAT     H277448   9.431   5.154   3.032
25736WAT      O77449   7.561   2.245   9.671
25736WAT     H177450   7.486   2.255   9.736
25736WAT     H277451   7.525   2.229   9.580
25737WAT      O77452   0.951   0.822   6.366
25737WAT     H177453   0.951   0.788   6.272
25737WAT     H277454   0.977   0.918   6.368
25738WAT      O77455   2.360   6.352   5.063
25738WAT     H177456   2.436   6.303   5.104
25738WAT     H277457   2.390   6.395   4.978
25739WAT      O77458   8.234   2.584   0.053
25739WAT     H177459   8.220   2.629   0.141
25739WAT     H277460   8.145   2.557   0.015
25740WAT      O77461   5.339   7.364   8.674
25740WAT     H177462   5.402   7.382   8.597
25740WAT     H277463   5.262   7.427   8.668
25741WAT      O77464   1.176   7.536   7.574
25741WAT     H177465   1.216   7.541   7.483
25741WAT     H277466   1.237   7.486   7.635
25742WAT      O77467   7.676   1.812   4.428
25742WAT     H177468   7.742   1.793   4.500
25742WAT     H277469   7.585   1.782   4.457
25743WAT      O77470   0.409   9.324   4.755
25743WAT     H177471   0.483   9.261   4.775
25743WAT     H277472   0.394   9.384   4.833
25744WAT      O77473   5.626   5.149   4.728
25744WAT     H177474   5.636   5.145   4.827
25744WAT     H277475   5.544   5.201   4.704
25745WAT      O77476   2.652   3.394   9.087
25745WAT     H177477   2.677   3.327   9.017
25745WAT     H277478   2.676   3.486   9.055
25746WAT      O77479   8.814   2.902   9.089
25746WAT     H177480   8.795   2.952   9.174
25746WAT     H277481   8.865   2.961   9.027
25747WAT      O77482   6.345   8.901   4.150
25747WAT     H177483   6.347   8.809   4.111
25747WAT     H277484   6.411   8.907   4.225
25748WAT      O77485   2.616   5.770   5.067
25748WAT     H177486   2.618   5.709   4.988
25748WAT     H277487   2.607   5.865   5.036
25749WAT      O77488   7.984   8.592   4.271
25749WAT     H177489   8.058   8.555   4.215
25749WAT     H277490   8.012   8.592   4.368
25750WAT      O77491   6.522   8.444   0.663
25750WAT     H177492   6.503   8.502   0.583
25750WAT     H277493   6.449   8.457   0.731
25751WAT      O77494   9.368   5.498   5.303
25751WAT     H177495   9.415   5.439   5.368
25751WAT     H277496   9.434   5.537   5.239
25752WAT      O77497   3.882   1.494   1.144
25752WAT     H177498   3.909   1.483   1.240
25752WAT     H277499   3.881   1.592   1.120
25753WAT      O77500   5.637   8.140   8.943
25753WAT     H177501   5.634   8.040   8.944
25753WAT     H277502   5.576   8.177   9.013
25754WAT      O77503   8.039   2.421   3.040
25754WAT     H177504   8.076   2.482   3.110
25754WAT     H277505   8.115   2.374   2.993
25755WAT      O77506   0.692   1.213   3.488
25755WAT     H177507   0.672   1.274   3.412
25755WAT     H277508   0.791   1.203   3.498
25756WAT      O77509   5.527   6.232   9.608
25756WAT     H177510   5.496   6.239   9.703
25756WAT     H277511   5.625   6.210   9.607
25757WAT      O77512   0.368   0.017   3.730
25757WAT     H177513   0.330   0.040   3.640
25757WAT     H277514   0.408   0.098   3.772
25758WAT      O77515   7.813   1.154   9.822
25758WAT     H177516   7.808   1.083   9.752
25758WAT     H277517   7.729   1.153   9.877
25759WAT      O77518   6.985   8.505   5.375
25759WAT     H177519   7.039   8.474   5.297
25759WAT     H277520   6.896   8.460   5.374
25760WAT      O77521   0.941   4.137   3.240
25760WAT     H177522   0.842   4.139   3.252
25760WAT     H277523   0.964   4.155   3.145
25761WAT      O77524   9.369   1.203   1.832
25761WAT     H177525   9.449   1.177   1.779
25761WAT     H277526   9.294   1.226   1.771
25762WAT      O77527   9.548   5.155   8.348
25762WAT     H177528   9.480   5.213   8.303
25762WAT     H277529   9.568   5.076   8.290
25763WAT      O77530   3.321   9.519   3.238
25763WAT     H177531   3.320   9.468   3.151
25763WAT     H277532   3.390   9.479   3.298
25764WAT      O77533   1.711   7.680   4.414
25764WAT     H177534   1.758   7.655   4.329
25764WAT     H277535   1.636   7.616   4.430
25765WAT      O77536   0.195   8.232   1.821
25765WAT     H177537   0.215   8.329   1.807
25765WAT     H277538   0.112   8.223   1.876
25766WAT      O77539   2.778   2.435   5.700
25766WAT     H177540   2.747   2.411   5.608
25766WAT     H277541   2.699   2.445   5.761
25767WAT      O77542   4.942   3.948   1.706
25767WAT     H177543   4.891   4.015   1.760
25767WAT     H277544   4.883   3.870   1.685
25768WAT      O77545   4.123   9.257   4.339
25768WAT     H177546   4.203   9.282   4.285
25768WAT     H277547   4.040   9.291   4.294
25769WAT      O77548   2.236   1.494   4.162
25769WAT     H177549   2.327   1.507   4.124
25769WAT     H277550   2.169   1.542   4.106
25770WAT      O77551   5.339   9.024   1.400
25770WAT     H177552   5.316   8.930   1.426
25770WAT     H277553   5.390   9.068   1.474
25771WAT      O77554   9.145   8.945   6.809
25771WAT     H177555   9.155   8.870   6.743
25771WAT     H277556   9.220   8.942   6.875
25772WAT      O77557   0.577   5.680   0.142
25772WAT     H177558   0.608   5.604   0.200
25772WAT     H277559   0.540   5.752   0.200
25773WAT      O77560   1.445   3.292   6.354
25773WAT     H177561   1.488   3.203   6.364
25773WAT     H277562   1.434   3.313   6.257
25774WAT      O77563   9.588   6.496   3.089
25774WAT     H177564   9.573   6.592   3.114
25774WAT     H277565   9.553   6.437   3.162
25775WAT      O77566   0.768   5.303   7.215
25775WAT     H177567   0.853   5.353   7.194
25775WAT     H277568   0.696   5.369   7.237
25776WAT      O77569   5.260   8.411   4.005
25776WAT     H177570   5.266   8.508   3.979
25776WAT     H277571   5.207   8.361   3.937
25777WAT      O77572   0.121   7.032   5.897
25777WAT     H177573   0.116   6.932   5.891
25777WAT     H277574   0.085   7.072   5.813
25778WAT      O77575   1.165   2.752   8.333
25778WAT     H177576   1.253   2.794   8.353
25778WAT     H277577   1.095   2.792   8.391
25779WAT      O77578   6.731   2.465   6.391
25779WAT     H177579   6.753   2.370   6.411
25779WAT     H277580   6.776   2.525   6.458
25780WAT      O77581   3.302   4.642   8.950
25780WAT     H177582   3.318   4.589   8.867
25780WAT     H277583   3.309   4.740   8.929
25781WAT      O77584   3.772   0.066   3.766
25781WAT     H177585   3.786  -0.015   3.823
25781WAT     H277586   3.797   0.045   3.672
25782WAT      O77587   6.909   1.227   4.661
25782WAT     H177588   6.891   1.156   4.729
25782WAT     H277589   6.842   1.220   4.587
25783WAT      O77590   1.968   9.827   4.204
25783WAT     H177591   1.904   9.808   4.130
25783WAT     H277592   2.061   9.838   4.167
25784WAT      O77593   5.882   5.551   3.210
25784WAT     H177594   5.931   5.503   3.137
25784WAT     H277595   5.920   5.525   3.298
25785WAT      O77596   9.805   1.020   6.359
25785WAT     H177597   9.847   0.956   6.295
25785WAT     H277598   9.734   0.974   6.412
25786WAT      O77599   7.580   0.837   8.013
25786WAT     H177600   7.632   0.752   8.012
25786WAT     H277601   7.629   0.906   8.067
25787WAT      O77602   2.046   0.903   8.520
25787WAT     H177603   1.983   0.849   8.575
25787WAT     H277604   2.140   0.877   8.543
25788WAT      O77605   1.784   1.886   1.800
25788WAT     H177606   1.687   1.864   1.814
25788WAT     H277607   1.793   1.951   1.725
25789WAT      O77608   3.737   8.046   5.499
25789WAT     H177609   3.767   7.971   5.440
25789WAT     H277610   3.816   8.094   5.537
25790WAT      O77611   6.859   6.167   2.511
25790WAT     H177612   6.923   6.205   2.443
25790WAT     H277613   6.882   6.204   2.601
25791WAT      O77614   6.343   8.344   4.830
25791WAT     H177615   6.412   8.400   4.877
25791WAT     H277616   6.341   8.253   4.871
25792WAT      O77617   5.664   3.057   7.259
25792WAT     H177618   5.606   3.134   7.235
25792WAT     H277619   5.756   3.090   7.281
25793WAT      O77620   9.087   7.182   8.430
25793WAT     H177621   9.108   7.091   8.395
25793WAT     H277622   8.994   7.208   8.402
25794WAT      O77623   5.525   5.082   6.967
25794WAT     H177624   5.592   5.145   7.005
25794WAT     H277625   5.535   5.079   6.867
25795WAT      O77626   8.099   3.663   8.662
25795WAT     H177627   8.033   3.721   8.709
25795WAT     H277628   8.116   3.580   8.716
25796WAT      O77629   4.785   3.132   2.486
25796WAT     H177630   4.705   3.171   2.530
25796WAT     H277631   4.868   3.175   2.522
25797WAT      O77632   4.307   4.866   5.179
25797WAT     H177633   4.379   4.933   5.199
25797WAT     H277634   4.317   4.787   5.239
25798WAT      O77635   6.102   5.009   2.156
25798WAT     H177636   6.173   5.005   2.227
25798WAT     H277637   6.097   5.102   2.119
25799WAT      O77638   9.411   1.471   9.416
25799WAT     H177639   9.414   1.560   9.371
25799WAT     H277640   9.337   1.469   9.483
25800WAT      O77641   6.935   6.423   5.292
25800WAT     H177642   6.942   6.459   5.199
25800WAT     H277643   6.880   6.484   5.348
25801WAT      O77644   0.911   4.524   9.859
25801WAT     H177645   0.990   4.584   9.844
25801WAT     H277646   0.942   4.436   9.896
25802WAT      O77647   8.994   7.858   7.141
25802WAT     H177648   9.069   7.878   7.203
25802WAT     H277649   9.026   7.801   7.066
25803WAT      O77650   5.566   3.291   8.436
25803WAT     H177651   5.654   3.322   8.470
25803WAT     H277652   5.556   3.193   8.450
25804WAT      O77653   1.695   8.689   7.655
25804WAT     H177654   1.767   8.708   7.722
25804WAT     H277655   1.660   8.596   7.670
25805WAT      O77656   1.999   2.236   5.569
25805WAT     H177657   1.909   2.226   5.527
25805WAT     H277658   1.988   2.268   5.663
25806WAT      O77659   2.706   6.230   0.925
25806WAT     H177660   2.712   6.162   0.852
25806WAT     H277661   2.790   6.284   0.927
25807WAT      O77662   6.044   2.700   4.401
25807WAT     H177663   5.984   2.716   4.479
25807WAT     H277664   6.139   2.704   4.431
25808WAT      O77665   3.125   0.046   9.002
25808WAT     H177666   3.148   0.115   9.070
25808WAT     H277667   3.036   0.068   8.960
25809WAT      O77668   6.237   8.925   3.610
25809WAT     H177669   6.301   8.924   3.533
25809WAT     H277670   6.285   8.895   3.692
25810WAT      O77671   0.813   8.609   1.771
25810WAT     H177672   0.837   8.684   1.832
25810WAT     H277673   0.714   8.596   1.771
25811WAT      O77674   1.677   2.246   1.376
25811WAT     H177675   1.741   2.179   1.338
25811WAT     H277676   1.725   2.331   1.396
25812WAT      O77677   4.408   0.601   5.066
25812WAT     H177678   4.395   0.637   4.973
25812WAT     H277679   4.371   0.509   5.072
25813WAT      O77680   3.675   9.290   8.881
25813WAT     H177681   3.644   9.372   8.834
25813WAT     H277682   3.768   9.305   8.916
25814WAT      O77683   4.849   9.386   7.763
25814WAT     H177684   4.901   9.302   7.744
25814WAT     H277685   4.884   9.460   7.706
25815WAT      O77686   5.176   9.210   0.021
25815WAT     H177687   5.254   9.155  -0.008
25815WAT     H277688   5.091   9.162  -0.001
25816WAT      O77689   4.163   0.563   4.644
25816WAT     H177690   4.166   0.661   4.622
25816WAT     H277691   4.068   0.534   4.656
25817WAT      O77692   1.630   0.424   2.951
25817WAT     H177693   1.541   0.439   2.908
25817WAT     H277694   1.672   0.342   2.913
25818WAT      O77695   3.760   7.391   7.623
25818WAT     H177696   3.696   7.335   7.676
25818WAT     H277697   3.721   7.411   7.533
25819WAT      O77698   9.331   6.843   6.061
25819WAT     H177699   9.322   6.769   6.127
25819WAT     H277700   9.243   6.888   6.048
25820WAT      O77701   5.591   1.743   6.259
25820WAT     H177702   5.673   1.790   6.292
25820WAT     H277703   5.611   1.645   6.248
25821WAT      O77704   4.456   5.802   0.219
25821WAT     H177705   4.394   5.726   0.200
25821WAT     H277706   4.474   5.853   0.135
25822WAT      O77707   7.616   1.390   1.655
25822WAT     H177708   7.528   1.433   1.672
25822WAT     H277709   7.637   1.393   1.558
25823WAT      O77710   0.420   2.229   8.110
25823WAT     H177711   0.376   2.211   8.198
25823WAT     H277712   0.519   2.216   8.118
25824WAT      O77713   4.249   1.539   5.736
25824WAT     H177714   4.213   1.456   5.779
25824WAT     H277715   4.326   1.573   5.790
25825WAT      O77716   3.264   5.924   4.036
25825WAT     H177717   3.220   6.003   3.994
25825WAT     H277718   3.305   5.951   4.123
25826WAT      O77719   8.820   5.278   6.335
25826WAT     H177720   8.792   5.247   6.245
25826WAT     H277721   8.760   5.238   6.405
25827WAT      O77722   7.832   4.219   6.416
25827WAT     H177723   7.913   4.195   6.470
25827WAT     H277724   7.813   4.146   6.350
25828WAT      O77725   4.130   0.438   5.701
25828WAT     H177726   4.097   0.347   5.725
25828WAT     H277727   4.229   0.444   5.718
25829WAT      O77728   3.930   3.969   1.347
25829WAT     H177729   3.893   4.003   1.260
25829WAT     H277730   3.911   3.871   1.355
25830WAT      O77731   0.387   8.674   0.148
25830WAT     H177732   0.469   8.696   0.095
25830WAT     H277733   0.412   8.656   0.243
25831WAT      O77734   0.801   4.050   8.266
25831WAT     H177735   0.801   4.150   8.264
25831WAT     H277736   0.777   4.018   8.358
25832WAT      O77737   7.410   4.532   2.370
25832WAT     H177738   7.404   4.626   2.404
25832WAT     H277739   7.381   4.530   2.274
25833WAT      O77740   7.180   5.006   3.595
25833WAT     H177741   7.260   5.062   3.611
25833WAT     H277742   7.169   4.990   3.497
25834WAT      O77743   9.028   3.325   3.725
25834WAT     H177744   9.032   3.229   3.754
25834WAT     H277745   8.932   3.354   3.722
25835WAT      O77746   1.399   5.515   5.441
25835WAT     H177747   1.323   5.568   5.479
25835WAT     H277748   1.484   5.540   5.488
25836WAT      O77749   9.777   8.944   5.683
25836WAT     H177750   9.734   8.898   5.761
25836WAT     H277751   9.825   9.026   5.715
25837WAT      O77752   6.139   0.925   6.394
25837WAT     H177753   6.096   0.938   6.484
25837WAT     H277754   6.072   0.886   6.331
25838WAT      O77755   6.014   4.432   5.719
25838WAT     H177756   5.927   4.480   5.730
25838WAT     H277757   6.083   4.477   5.777
25839WAT      O77758   4.656   0.294   5.776
25839WAT     H177759   4.698   0.359   5.840
25839WAT     H277760   4.728   0.243   5.729
25840WAT      O77761   7.049   7.652   5.341
25840WAT     H177762   7.039   7.728   5.277
25840WAT     H277763   7.133   7.663   5.394
25841WAT      O77764   7.850   5.746   4.439
25841WAT     H177765   7.858   5.830   4.385
25841WAT     H277766   7.753   5.724   4.452
25842WAT      O77767   7.448   5.314   9.000
25842WAT     H177768   7.534   5.291   9.047
25842WAT     H277769   7.454   5.287   8.904
25843WAT      O77770   4.145   6.516   7.029
25843WAT     H177771   4.101   6.522   6.939
25843WAT     H277772   4.159   6.608   7.066
25844WAT      O77773   8.201   2.348   6.537
25844WAT     H177774   8.192   2.427   6.598
25844WAT     H277775   8.158   2.368   6.449
25845WAT      O77776   4.659   5.567   3.963
25845WAT     H177777   4.565   5.588   3.937
25845WAT     H277778   4.663   5.551   4.062
25846WAT      O77779   3.102   5.674   4.120
25846WAT     H177780   3.128   5.581   4.097
25846WAT     H277781   3.165   5.739   4.077
25847WAT      O77782   3.500   4.096   8.041
25847WAT     H177783   3.434   4.160   8.003
25847WAT     H277784   3.467   4.002   8.028
25848WAT      O77785   1.004   3.095   4.300
25848WAT     H177786   1.091   3.074   4.257
25848WAT     H277787   0.946   3.146   4.236
25849WAT      O77788   4.553   8.122   8.094
25849WAT     H177789   4.599   8.072   8.021
25849WAT     H277790   4.621   8.158   8.158
25850WAT      O77791   3.935   2.744   3.253
25850WAT     H177792   3.864   2.808   3.223
25850WAT     H277793   3.999   2.791   3.313
25851WAT      O77794   9.392   8.413   5.468
25851WAT     H177795   9.434   8.474   5.401
25851WAT     H277796   9.369   8.464   5.550
25852WAT      O77797   7.910   2.847   2.815
25852WAT     H177798   7.909   2.810   2.723
25852WAT     H277799   7.905   2.947   2.811
25853WAT      O77800   1.820   1.372   3.128
25853WAT     H177801   1.726   1.407   3.129
25853WAT     H277802   1.821   1.282   3.084
25854WAT      O77803   9.372   5.279   4.292
25854WAT     H177804   9.462   5.323   4.305
25854WAT     H277805   9.310   5.345   4.249
25855WAT      O77806   3.989   3.082   8.475
25855WAT     H177807   3.993   2.982   8.472
25855WAT     H277808   3.949   3.115   8.389
25856WAT      O77809   3.703   3.306   2.833
25856WAT     H177810   3.662   3.381   2.885
25856WAT     H277811   3.730   3.338   2.743
25857WAT      O77812   7.316   2.150   3.979
25857WAT     H177813   7.289   2.168   3.885
25857WAT     H277814   7.287   2.057   4.004
25858WAT      O77815   8.504   7.834   1.151
25858WAT     H177816   8.432   7.799   1.090
25858WAT     H277817   8.593   7.825   1.105
25859WAT      O77818   9.082   8.086   3.396
25859WAT     H177819   9.180   8.066   3.385
25859WAT     H277820   9.028   8.016   3.349
25860WAT      O77821   1.037   8.699   0.966
25860WAT     H177822   1.052   8.792   0.931
25860WAT     H277823   1.125   8.655   0.984
25861WAT      O77824   7.507   5.935   2.239
25861WAT     H177825   7.554   6.016   2.202
25861WAT     H277826   7.542   5.916   2.330
25862WAT      O77827   3.172   3.484   7.186
25862WAT     H177828   3.152   3.547   7.111
25862WAT     H277829   3.206   3.537   7.264
25863WAT      O77830   3.480   9.233   9.061
25863WAT     H177831   3.540   9.254   8.984
25863WAT     H277832   3.465   9.134   9.067
25864WAT      O77833   5.902   5.408   5.630
25864WAT     H177834   5.961   5.404   5.711
25864WAT     H277835   5.854   5.495   5.627
25865WAT      O77836   6.015   1.599   6.156
25865WAT     H177837   5.947   1.532   6.185
25865WAT     H277838   6.023   1.599   6.056
25866WAT      O77839   0.196   5.217   3.931
25866WAT     H177840   0.238   5.264   4.008
25866WAT     H277841   0.266   5.172   3.876
25867WAT      O77842   6.001   6.202   7.181
25867WAT     H177843   5.984   6.171   7.087
25867WAT     H277844   6.048   6.290   7.178
25868WAT      O77845   6.770   2.955   7.240
25868WAT     H177846   6.786   2.968   7.142
25868WAT     H277847   6.844   2.997   7.292
25869WAT      O77848   3.478   6.322   5.165
25869WAT     H177849   3.489   6.226   5.193
25869WAT     H277850   3.459   6.377   5.246
25870WAT      O77851   1.212   8.369   7.366
25870WAT     H177852   1.204   8.318   7.452
25870WAT     H277853   1.131   8.354   7.310
25871WAT      O77854   8.327   5.357   6.111
25871WAT     H177855   8.285   5.437   6.067
25871WAT     H277856   8.272   5.276   6.090
25872WAT      O77857   1.342   0.238   0.508
25872WAT     H177858   1.388   0.175   0.446
25872WAT     H277859   1.260   0.275   0.463
25873WAT      O77860   0.250   7.797   4.629
25873WAT     H177861   0.317   7.765   4.562
25873WAT     H277862   0.296   7.854   4.697
25874WAT      O77863   7.847   3.939   5.278
25874WAT     H177864   7.861   3.926   5.376
25874WAT     H277865   7.842   3.849   5.232
25875WAT      O77866   8.925   2.157   6.325
25875WAT     H177867   8.929   2.090   6.251
25875WAT     H277868   8.902   2.247   6.287
25876WAT      O77869   4.894   9.006   2.165
25876WAT     H177870   4.929   9.081   2.108
25876WAT     H277871   4.890   9.036   2.260
25877WAT      O77872   5.573   6.943   2.368
25877WAT     H177873   5.549   6.846   2.372
25877WAT     H277874   5.523   6.986   2.292
25878WAT      O77875   6.270   5.600   1.258
25878WAT     H177876   6.348   5.542   1.282
25878WAT     H277877   6.237   5.648   1.340
25879WAT      O77878   1.219   4.073   6.323
25879WAT     H177879   1.255   4.065   6.230
25879WAT     H277880   1.120   4.088   6.320
25880WAT      O77881   0.482   6.663   3.176
25880WAT     H177882   0.561   6.724   3.183
25880WAT     H277883   0.513   6.568   3.172
25881WAT      O77884   8.160   6.080   0.335
25881WAT     H177885   8.190   6.170   0.367
25881WAT     H277886   8.194   6.064   0.243
25882WAT      O77887   9.077   9.323   4.491
25882WAT     H177888   9.114   9.230   4.491
25882WAT     H277889   9.020   9.337   4.572
25883WAT      O77890   6.865   2.186   1.077
25883WAT     H177891   6.813   2.229   1.004
25883WAT     H277892   6.946   2.141   1.038
25884WAT      O77893   3.477   9.837   1.748
25884WAT     H177894   3.562   9.799   1.710
25884WAT     H277895   3.403   9.825   1.682
25885WAT      O77896   9.536   5.669   7.674
25885WAT     H177897   9.632   5.686   7.695
25885WAT     H277898   9.525   5.575   7.641
25886WAT      O77899   4.641   0.761   9.888
25886WAT     H177900   4.733   0.800   9.892
25886WAT     H277901   4.641   0.672   9.934
25887WAT      O77902   5.475   8.702   9.700
25887WAT     H177903   5.420   8.643   9.759
25887WAT     H277904   5.476   8.794   9.737
25888WAT      O77905   4.070   7.203   9.167
25888WAT     H177906   4.056   7.104   9.174
25888WAT     H277907   4.047   7.246   9.254
25889WAT      O77908   4.227   0.822   3.464
25889WAT     H177909   4.304   0.765   3.434
25889WAT     H277910   4.211   0.895   3.398
25890WAT      O77911   7.380   9.385   0.165
25890WAT     H177912   7.454   9.358   0.103
25890WAT     H277913   7.303   9.419   0.113
25891WAT      O77914   7.893   8.094   3.872
25891WAT     H177915   7.874   8.100   3.774
25891WAT     H277916   7.990   8.075   3.887
25892WAT      O77917   7.192   7.980   0.524
25892WAT     H177918   7.193   7.880   0.519
25892WAT     H277919   7.141   8.016   0.446
25893WAT      O77920   9.470   7.320   1.941
25893WAT     H177921   9.380   7.292   1.905
25893WAT     H277922   9.468   7.318   2.041
25894WAT      O77923   4.989   1.377   0.807
25894WAT     H177924   4.920   1.304   0.804
25894WAT     H277925   5.043   1.374   0.723
25895WAT      O77926   3.815   4.489   0.894
25895WAT     H177927   3.722   4.507   0.863
25895WAT     H277928   3.875   4.564   0.866
25896WAT      O77929   2.773   1.114   1.535
25896WAT     H177930   2.768   1.154   1.443
25896WAT     H277931   2.775   1.187   1.603
25897WAT      O77932   7.935   2.211   0.572
25897WAT     H177933   7.943   2.111   0.578
25897WAT     H277934   7.885   2.235   0.488
25898WAT      O77935   4.386   5.184   0.846
25898WAT     H177936   4.455   5.116   0.822
25898WAT     H277937   4.428   5.275   0.846
25899WAT      O77938   1.441   5.510   1.301
25899WAT     H177939   1.413   5.477   1.211
25899WAT     H277940   1.375   5.577   1.334
25900WAT      O77941   2.013   0.023   6.226
25900WAT     H177942   1.939  -0.044   6.214
25900WAT     H277943   2.048   0.017   6.320
25901WAT      O77944   4.091   4.155   3.529
25901WAT     H177945   4.100   4.145   3.430
25901WAT     H277946   4.048   4.073   3.567
25902WAT      O77947   0.797   8.757   8.918
25902WAT     H177948   0.799   8.657   8.908
25902WAT     H277949   0.767   8.798   8.832
25903WAT      O77950   4.084   6.499   8.174
25903WAT     H177951   4.041   6.415   8.143
25903WAT     H277952   4.106   6.491   8.271
25904WAT      O77953   0.717   0.604   0.439
25904WAT     H177954   0.751   0.510   0.434
25904WAT     H277955   0.675   0.630   0.352
25905WAT      O77956   2.774   8.567   6.709
25905WAT     H177957   2.779   8.491   6.644
25905WAT     H277958   2.749   8.651   6.660
25906WAT      O77959   8.887   4.084   2.939
25906WAT     H177960   8.797   4.097   2.898
25906WAT     H277961   8.949   4.156   2.907
25907WAT      O77962   6.357   5.648   1.766
25907WAT     H177963   6.433   5.583   1.777
25907WAT     H277964   6.281   5.602   1.720
25908WAT      O77965   6.942   6.873   7.666
25908WAT     H177966   6.847   6.889   7.639
25908WAT     H277967   6.958   6.774   7.675
25909WAT      O77968   6.269   0.541   2.304
25909WAT     H177969   6.194   0.537   2.238
25909WAT     H277970   6.325   0.459   2.295
25910WAT      O77971   7.089   9.804   8.138
25910WAT     H177972   7.033   9.805   8.056
25910WAT     H277973   7.172   9.749   8.121
25911WAT      O77974   9.738   6.062   6.342
25911WAT     H177975   9.767   6.143   6.393
25911WAT     H277976   9.735   6.084   6.244
25912WAT      O77977   1.462   5.887   1.168
25912WAT     H177978   1.540   5.871   1.228
25912WAT     H277979   1.451   5.810   1.105
25913WAT      O77980   3.901   6.196   1.439
25913WAT     H177981   3.854   6.122   1.486
25913WAT     H277982   3.834   6.254   1.392
25914WAT      O77983   8.270   3.085   8.754
25914WAT     H177984   8.344   3.080   8.821
25914WAT     H277985   8.184   3.054   8.796
25915WAT      O77986   2.065   2.702   9.667
25915WAT     H177987   2.049   2.799   9.686
25915WAT     H277988   2.084   2.654   9.753
25916WAT      O77989   0.338   9.023   4.414
25916WAT     H177990   0.411   9.084   4.383
25916WAT     H277991   0.361   8.988   4.505
25917WAT      O77992   0.292   7.365   9.415
25917WAT     H177993   0.392   7.364   9.414
25917WAT     H277994   0.260   7.432   9.482
25918WAT      O77995   0.429   8.202   9.683
25918WAT     H177996   0.490   8.213   9.604
25918WAT     H277997   0.467   8.134   9.745
25919WAT      O77998   7.867   0.392   5.672
25919WAT     H177999   7.769   0.383   5.692
25919WAT     H278000   7.884   0.481   5.630
25920WAT      O78001   3.470   1.005   7.043
25920WAT     H178002   3.414   1.049   6.973
25920WAT     H278003   3.546   0.957   6.999
25921WAT      O78004   9.690   8.200   2.460
25921WAT     H178005   9.598   8.210   2.422
25921WAT     H278006   9.758   8.222   2.390
25922WAT      O78007   9.283   8.406   0.405
25922WAT     H178008   9.267   8.311   0.376
25922WAT     H278009   9.234   8.423   0.490
25923WAT      O78010   9.789   5.278   6.427
25923WAT     H178011   9.753   5.346   6.490
25923WAT     H278012   9.871   5.313   6.382
25924WAT      O78013   8.228   1.462   5.645
25924WAT     H178014   8.149   1.467   5.583
25924WAT     H278015   8.312   1.463   5.592
25925WAT      O78016   9.662   1.952   8.326
25925WAT     H178017   9.664   1.889   8.403
25925WAT     H278018   9.677   1.902   8.241
25926WAT      O78019   9.337   1.776   0.745
25926WAT     H178020   9.275   1.855   0.747
25926WAT     H278021   9.430   1.808   0.761
25927WAT      O78022   2.072   6.832   7.486
25927WAT     H178023   2.040   6.906   7.545
25927WAT     H278024   2.169   6.816   7.502
25928WAT      O78025   2.804   8.099   9.517
25928WAT     H178026   2.891   8.071   9.478
25928WAT     H278027   2.733   8.094   9.446
25929WAT      O78028   9.890   0.053   1.858
25929WAT     H178029   9.908   0.097   1.946
25929WAT     H278030   9.848  -0.036   1.874
25930WAT      O78031   9.270   2.356   5.963
25930WAT     H178032   9.358   2.317   5.936
25930WAT     H278033   9.211   2.284   5.997
25931WAT      O78034   1.790   4.751   7.458
25931WAT     H178035   1.887   4.736   7.478
25931WAT     H278036   1.774   4.740   7.360
25932WAT      O78037   2.368   6.061   1.729
25932WAT     H178038   2.392   5.998   1.803
25932WAT     H278039   2.315   6.138   1.766
25933WAT      O78040   3.670   4.177   4.235
25933WAT     H178041   3.584   4.224   4.254
25933WAT     H278042   3.677   4.159   4.136
25934WAT      O78043   9.274   1.117   4.151
25934WAT     H178044   9.253   1.038   4.207
25934WAT     H278045   9.328   1.089   4.071
25935WAT      O78046   8.657   4.674   6.843
25935WAT     H178047   8.580   4.735   6.863
25935WAT     H278048   8.638   4.583   6.880
25936WAT      O78049   2.451   5.626   7.345
25936WAT     H178050   2.400   5.573   7.277
25936WAT     H278051   2.404   5.620   7.433
25937WAT      O78052   3.277   8.384   4.698
25937WAT     H178053   3.361   8.330   4.690
25937WAT     H278054   3.281   8.462   4.635
25938WAT      O78055   2.884   2.907   6.978
25938WAT     H178056   2.787   2.928   6.982
25938WAT     H278057   2.934   2.968   7.040
25939WAT      O78058   4.706   4.256   1.652
25939WAT     H178059   4.649   4.338   1.659
25939WAT     H278060   4.669   4.196   1.581
25940WAT      O78061   7.355   2.755   8.288
25940WAT     H178062   7.442   2.749   8.238
25940WAT     H278063   7.368   2.719   8.380
25941WAT      O78064   7.290   6.365   2.954
25941WAT     H178065   7.226   6.379   2.879
25941WAT     H278066   7.240   6.355   3.040
25942WAT      O78067   8.565   6.069   0.165
25942WAT     H178068   8.645   6.068   0.104
25942WAT     H278069   8.558   6.157   0.211
25943WAT      O78070   2.880   3.511   8.781
25943WAT     H178071   2.816   3.440   8.751
25943WAT     H278072   2.897   3.502   8.879
25944WAT      O78073   4.539   9.248   5.546
25944WAT     H178074   4.449   9.224   5.509
25944WAT     H278075   4.609   9.231   5.476
25945WAT      O78076   4.652   3.231   3.600
25945WAT     H178077   4.607   3.252   3.687
25945WAT     H278078   4.745   3.200   3.616
25946WAT      O78079   9.309   8.916   7.008
25946WAT     H178080   9.324   8.937   7.104
25946WAT     H278081   9.332   8.820   6.991
25947WAT      O78082   9.392   5.097   3.847
25947WAT     H178083   9.436   5.114   3.759
25947WAT     H278084   9.435   5.018   3.892
25948WAT      O78085   9.016   7.093   7.337
25948WAT     H178086   9.028   7.082   7.239
25948WAT     H278087   8.987   7.006   7.377
25949WAT      O78088   3.775   6.979   6.774
25949WAT     H178089   3.699   7.037   6.804
25949WAT     H278090   3.787   6.990   6.675
25950WAT      O78091   8.488   4.648   7.975
25950WAT     H178092   8.452   4.579   8.038
25950WAT     H278093   8.416   4.713   7.951
25951WAT      O78094   8.601   9.821   0.247
25951WAT     H178095   8.608   9.921   0.252
25951WAT     H278096   8.584   9.784   0.338
25952WAT      O78097   4.182   0.206   0.579
25952WAT     H178098   4.182   0.258   0.493
25952WAT     H278099   4.237   0.254   0.647
25953WAT      O78100   2.541   6.885   5.496
25953WAT     H178101   2.450   6.847   5.476
25953WAT     H278102   2.559   6.962   5.436
25954WAT      O78103   2.365   4.534   2.946
25954WAT     H178104   2.272   4.571   2.952
25954WAT     H278105   2.420   4.571   3.022
25955WAT      O78106   7.795   8.662   4.989
25955WAT     H178107   7.735   8.583   4.977
25955WAT     H278108   7.853   8.648   5.069
25956WAT      O78109   1.247   7.690   6.762
25956WAT     H178110   1.199   7.628   6.701
25956WAT     H278111   1.187   7.715   6.839
25957WAT      O78112   5.341   8.808   4.210
25957WAT     H178113   5.325   8.806   4.309
25957WAT     H278114   5.409   8.878   4.189
25958WAT      O78115   4.998   3.837   3.742
25958WAT     H178116   4.918   3.834   3.801
25958WAT     H278117   4.983   3.904   3.669
25959WAT      O78118   8.331   0.916   9.324
25959WAT     H178119   8.286   0.844   9.271
25959WAT     H278120   8.264   0.960   9.383
25960WAT      O78121   0.321   4.514   3.629
25960WAT     H178122   0.368   4.566   3.701
25960WAT     H278123   0.254   4.453   3.672
25961WAT      O78124   3.360   7.776   3.037
25961WAT     H178125   3.329   7.867   3.008
25961WAT     H278126   3.284   7.712   3.029
25962WAT      O78127   2.591   4.626   5.961
25962WAT     H178128   2.592   4.530   5.933
25962WAT     H278129   2.497   4.652   5.984
25963WAT      O78130   0.468   7.507   2.883
25963WAT     H178131   0.557   7.524   2.841
25963WAT     H278132   0.476   7.433   2.950
25964WAT      O78133   8.453   2.914   2.866
25964WAT     H178134   8.439   2.915   2.767
25964WAT     H278135   8.406   2.835   2.906
25965WAT      O78136   0.225   0.232   6.496
25965WAT     H178137   0.288   0.253   6.571
25965WAT     H278138   0.219   0.311   6.435
25966WAT      O78139   4.244   0.195   7.224
25966WAT     H178140   4.312   0.239   7.282
25966WAT     H278141   4.230   0.100   7.252
25967WAT      O78142   9.477   0.300   8.795
25967WAT     H178143   9.414   0.270   8.723
25967WAT     H278144   9.458   0.396   8.817
25968WAT      O78145   7.131   1.930   4.537
25968WAT     H178146   7.184   2.006   4.499
25968WAT     H278147   7.090   1.878   4.462
25969WAT      O78148   5.497   8.253   3.046
25969WAT     H178149   5.540   8.269   2.958
25969WAT     H278150   5.481   8.341   3.092
25970WAT      O78151   9.687   9.211   2.263
25970WAT     H178152   9.631   9.205   2.180
25970WAT     H278153   9.744   9.129   2.270
25971WAT      O78154   4.619   6.898   7.567
25971WAT     H178155   4.668   6.848   7.496
25971WAT     H278156   4.601   6.991   7.536
25972WAT      O78157   5.824   4.172   5.424
25972WAT     H178158   5.756   4.246   5.424
25972WAT     H278159   5.789   4.095   5.477
25973WAT      O78160   2.945   7.833   4.970
25973WAT     H178161   2.935   7.736   4.991
25973WAT     H278162   2.865   7.883   5.003
25974WAT      O78163   8.757   2.098   2.831
25974WAT     H178164   8.816   2.175   2.858
25974WAT     H278165   8.740   2.040   2.910
25975WAT      O78166   9.671   2.141   7.113
25975WAT     H178167   9.656   2.151   7.212
25975WAT     H278168   9.764   2.105   7.098
25976WAT      O78169   0.836   9.462   0.301
25976WAT     H178170   0.867   9.367   0.292
25976WAT     H278171   0.907   9.515   0.347
25977WAT      O78172   9.794   1.964   5.890
25977WAT     H178173   9.850   2.021   5.951
25977WAT     H278174   9.852   1.893   5.848
25978WAT      O78175   1.414   8.481   1.812
25978WAT     H178176   1.512   8.504   1.806
25978WAT     H278177   1.404   8.381   1.814
25979WAT      O78178   3.032   0.442   9.720
25979WAT     H178179   3.037   0.540   9.699
25979WAT     H278180   3.006   0.392   9.637
25980WAT      O78181   2.773   0.283   4.282
25980WAT     H178182   2.712   0.241   4.350
25980WAT     H278183   2.746   0.253   4.190
25981WAT      O78184   4.683   3.398   5.586
25981WAT     H178185   4.710   3.365   5.677
25981WAT     H278186   4.765   3.411   5.530
25982WAT      O78187   7.361   8.162   7.865
25982WAT     H178188   7.365   8.261   7.853
25982WAT     H278189   7.347   8.140   7.961
25983WAT      O78190   5.488   5.646   5.078
25983WAT     H178191   5.432   5.574   5.037
25983WAT     H278192   5.581   5.641   5.041
25984WAT      O78193   5.271   4.335   1.282
25984WAT     H178194   5.228   4.389   1.354
25984WAT     H278195   5.215   4.255   1.262
25985WAT      O78196   8.818   3.954   6.213
25985WAT     H178197   8.825   3.857   6.190
25985WAT     H278198   8.728   3.972   6.254
25986WAT      O78199   2.068   1.095   4.014
25986WAT     H178200   2.092   1.074   3.919
25986WAT     H278201   1.987   1.152   4.016
25987WAT      O78202   5.504   2.158   2.976
25987WAT     H178203   5.494   2.134   2.880
25987WAT     H278204   5.433   2.224   3.002
25988WAT      O78205   2.155   5.516   4.171
25988WAT     H178206   2.170   5.559   4.260
25988WAT     H278207   2.161   5.416   4.180
25989WAT      O78208   2.878   4.591   2.668
25989WAT     H178209   2.897   4.655   2.594
25989WAT     H278210   2.891   4.637   2.756
25990WAT      O78211   0.925   5.522   3.918
25990WAT     H178212   0.882   5.608   3.946
25990WAT     H278213   0.878   5.486   3.837
25991WAT      O78214   9.617   1.196   5.678
25991WAT     H178215   9.526   1.204   5.636
25991WAT     H278216   9.629   1.272   5.742
25992WAT      O78217   8.070   7.481   2.996
25992WAT     H178218   8.043   7.458   3.090
25992WAT     H278219   8.027   7.418   2.932
25993WAT      O78220   9.861   3.045   5.004
25993WAT     H178221   9.923   3.124   5.007
25993WAT     H278222   9.777   3.071   4.957
25994WAT      O78223   0.598   1.367   5.330
25994WAT     H178224   0.536   1.389   5.404
25994WAT     H278225   0.679   1.425   5.335
25995WAT      O78226   9.846   6.973   3.312
25995WAT     H178227   9.762   6.999   3.263
25995WAT     H278228   9.890   6.897   3.266
25996WAT      O78229   4.809   4.245   6.733
25996WAT     H178230   4.795   4.189   6.651
25996WAT     H278231   4.740   4.317   6.737
25997WAT      O78232   9.411   8.658   2.012
25997WAT     H178233   9.356   8.651   2.095
25997WAT     H278234   9.446   8.751   2.002
25998WAT      O78235   3.741   7.226   9.787
25998WAT     H178236   3.697   7.306   9.747
25998WAT     H278237   3.686   7.145   9.768
25999WAT      O78238   7.228   9.804   0.202
25999WAT     H178239   7.284   9.722   0.195
25999WAT     H278240   7.143   9.792   0.151
26000WAT      O78241   2.700   0.150   4.054
26000WAT     H178242   2.704   0.053   4.079
26000WAT     H278243   2.615   0.168   4.005
26001WAT      O78244   6.308   7.847   1.472
26001WAT     H178245   6.372   7.875   1.544
26001WAT     H278246   6.264   7.761   1.498
26002WAT      O78247   9.741   1.643   4.407
26002WAT     H178248   9.691   1.634   4.494
26002WAT     H278249   9.676   1.642   4.331
26003WAT      O78250   9.363   4.364   3.215
26003WAT     H178251   9.314   4.411   3.287
26003WAT     H278252   9.298   4.320   3.153
26004WAT      O78253   2.399   1.988   0.211
26004WAT     H178254   2.467   1.931   0.165
26004WAT     H278255   2.432   2.082   0.217
26005WAT      O78256   8.009   3.999   7.692
26005WAT     H178257   7.926   3.965   7.648
26005WAT     H278258   8.074   4.030   7.622
26006WAT      O78259   9.735   6.091   2.946
26006WAT     H178260   9.772   6.175   2.906
26006WAT     H278261   9.680   6.114   3.026
26007WAT      O78262   0.244   6.385   5.704
26007WAT     H178263   0.175   6.401   5.775
26007WAT     H278264   0.222   6.440   5.623
26008WAT      O78265   6.934   3.907   8.941
26008WAT     H178266   6.896   3.967   9.012
26008WAT     H278267   6.879   3.824   8.935
26009WAT      O78268   1.578   2.466   3.733
26009WAT     H178269   1.479   2.473   3.750
26009WAT     H278270   1.623   2.429   3.815
26010WAT      O78271   5.842   7.886   4.047
26010WAT     H178272   5.879   7.943   3.974
26010WAT     H278273   5.814   7.945   4.124
26011WAT      O78274   5.056   3.856   6.277
26011WAT     H178275   5.070   3.769   6.323
26011WAT     H278276   5.074   3.931   6.341
26012WAT      O78277   2.756   7.429   1.904
26012WAT     H178278   2.677   7.405   1.961
26012WAT     H278279   2.788   7.347   1.856
26013WAT      O78280   5.145   1.056   0.966
26013WAT     H178281   5.230   1.097   0.932
26013WAT     H278282   5.141   0.961   0.936
26014WAT      O78283   3.032   7.956   9.411
26014WAT     H178284   3.050   7.872   9.360
26014WAT     H278285   3.100   8.025   9.385
26015WAT      O78286   7.700   5.255   4.697
26015WAT     H178287   7.608   5.258   4.738
26015WAT     H278288   7.768   5.248   4.770
26016WAT      O78289   2.231   2.240   2.403
26016WAT     H178290   2.220   2.279   2.311
26016WAT     H278291   2.205   2.308   2.471
26017WAT      O78292   3.901   7.772   0.576
26017WAT     H178293   3.811   7.750   0.538
26017WAT     H278294   3.971   7.758   0.506
26018WAT      O78295   3.579   5.377   3.600
26018WAT     H178296   3.649   5.433   3.643
26018WAT     H278297   3.546   5.423   3.517
26019WAT      O78298   6.134   3.024   7.503
26019WAT     H178299   6.113   2.941   7.452
26019WAT     H278300   6.230   3.021   7.533
26020WAT      O78301   4.713   4.807   1.604
26020WAT     H178302   4.813   4.811   1.600
26020WAT     H278303   4.684   4.711   1.602
26021WAT      O78304   7.628   7.568   1.787
26021WAT     H178305   7.621   7.646   1.849
26021WAT     H278306   7.598   7.594   1.696
26022WAT      O78307   7.222   0.143   9.288
26022WAT     H178308   7.251   0.071   9.351
26022WAT     H278309   7.258   0.231   9.319
26023WAT      O78310   6.747   1.884   5.215
26023WAT     H178311   6.835   1.854   5.252
26023WAT     H278312   6.710   1.814   5.154
26024WAT      O78313   5.206   7.280   9.610
26024WAT     H178314   5.112   7.313   9.604
26024WAT     H278315   5.210   7.186   9.577
26025WAT      O78316   8.355   4.023   2.959
26025WAT     H178317   8.348   4.063   2.867
26025WAT     H278318   8.443   4.048   2.999
26026WAT      O78319   8.873   3.586   8.553
26026WAT     H178320   8.890   3.614   8.648
26026WAT     H278321   8.911   3.494   8.539
26027WAT      O78322   3.624   6.583   7.688
26027WAT     H178323   3.611   6.664   7.746
26027WAT     H278324   3.578   6.504   7.731
26028WAT      O78325   8.247   4.510   8.448
26028WAT     H178326   8.300   4.519   8.364
26028WAT     H278327   8.290   4.563   8.521
26029WAT      O78328   7.532   8.053   2.332
26029WAT     H178329   7.495   8.079   2.421
26029WAT     H278330   7.458   8.027   2.271
26030WAT      O78331   4.208   4.340   7.615
26030WAT     H178332   4.226   4.330   7.713
26030WAT     H278333   4.109   4.350   7.600
26031WAT      O78334   5.019   1.736   5.572
26031WAT     H178335   5.078   1.745   5.653
26031WAT     H278336   4.963   1.654   5.580
26032WAT      O78337   2.653   3.048   9.823
26032WAT     H178338   2.601   2.970   9.787
26032WAT     H278339   2.590   3.118   9.855
26033WAT      O78340   8.593   8.406   5.961
26033WAT     H178341   8.563   8.437   6.051
26033WAT     H278342   8.520   8.352   5.918
26034WAT      O78343   7.421   2.950   5.066
26034WAT     H178344   7.361   2.990   4.997
26034WAT     H278345   7.454   2.861   5.034
26035WAT      O78346   7.486   3.959   9.315
26035WAT     H178347   7.475   3.879   9.373
26035WAT     H278348   7.396   3.991   9.284
26036WAT      O78349   3.954   5.927   3.327
26036WAT     H178350   3.963   6.024   3.349
26036WAT     H278351   4.002   5.908   3.241
26037WAT      O78352   1.179   1.726   6.058
26037WAT     H178353   1.273   1.713   6.088
26037WAT     H278354   1.148   1.645   6.009
26038WAT      O78355   9.514   7.055   4.357
26038WAT     H178356   9.459   7.084   4.279
26038WAT     H278357   9.609   7.083   4.342
26039WAT      O78358   7.629   2.407   7.669
26039WAT     H178359   7.580   2.494   7.677
26039WAT     H278360   7.564   2.335   7.645
26040WAT      O78361   8.532   5.295   8.331
26040WAT     H178362   8.595   5.369   8.305
26040WAT     H278363   8.438   5.331   8.332
26041WAT      O78364   7.124   0.033   1.219
26041WAT     H178365   7.106   0.131   1.225
26041WAT     H278366   7.186   0.006   1.292
26042WAT      O78367   1.013   7.964   6.758
26042WAT     H178368   1.082   8.035   6.747
26042WAT     H278369   1.021   7.923   6.849
26043WAT      O78370   4.974   7.902   3.823
26043WAT     H178371   4.948   7.843   3.747
26043WAT     H278372   5.074   7.906   3.829
26044WAT      O78373   6.288   0.214   4.890
26044WAT     H178374   6.386   0.219   4.910
26044WAT     H278375   6.237   0.264   4.960
26045WAT      O78376   3.721   0.197   7.479
26045WAT     H178377   3.705   0.263   7.406
26045WAT     H278378   3.741   0.245   7.564
26046WAT      O78379   8.870   0.550   4.553
26046WAT     H178380   8.964   0.534   4.522
26046WAT     H278381   8.839   0.640   4.523
26047WAT      O78382   1.530   3.271   7.758
26047WAT     H178383   1.516   3.282   7.659
26047WAT     H278384   1.626   3.250   7.776
26048WAT      O78385   6.060   0.895   6.658
26048WAT     H178386   6.062   0.973   6.720
26048WAT     H278387   5.995   0.827   6.691
26049WAT      O78388   4.651   4.800   5.639
26049WAT     H178389   4.714   4.826   5.712
26049WAT     H278390   4.701   4.795   5.552
26050WAT      O78391   5.377   1.413   4.309
26050WAT     H178392   5.360   1.327   4.357
26050WAT     H278393   5.290   1.447   4.272
26051WAT      O78394   6.016   1.845   2.357
26051WAT     H178395   6.015   1.914   2.286
26051WAT     H278396   6.009   1.889   2.447
26052WAT      O78397   9.224   8.370   5.862
26052WAT     H178398   9.132   8.357   5.824
26052WAT     H278399   9.217   8.395   5.959
26053WAT      O78400   0.863   7.973   7.641
26053WAT     H178401   0.881   7.935   7.551
26053WAT     H278402   0.906   8.063   7.649
26054WAT      O78403   5.925   2.031   9.179
26054WAT     H178404   6.011   2.079   9.163
26054WAT     H278405   5.865   2.044   9.100
26055WAT      O78406   6.319   3.760   8.611
26055WAT     H178407   6.227   3.747   8.649
26055WAT     H278408   6.355   3.848   8.640
26056WAT      O78409   5.519   2.632   6.210
26056WAT     H178410   5.522   2.687   6.293
26056WAT     H278411   5.430   2.587   6.202
26057WAT      O78412   9.527   6.504   9.562
26057WAT     H178413   9.510   6.411   9.595
26057WAT     H278414   9.440   6.545   9.532
26058WAT      O78415   8.199   1.950   0.945
26058WAT     H178416   8.169   2.012   0.873
26058WAT     H278417   8.125   1.887   0.968
26059WAT      O78418   6.150   9.054   5.500
26059WAT     H178419   6.127   9.021   5.591
26059WAT     H278420   6.080   9.024   5.434
26060WAT      O78421   7.438   6.355   7.564
26060WAT     H178422   7.381   6.376   7.644
26060WAT     H278423   7.386   6.374   7.480
26061WAT      O78424   4.333   3.521   6.797
26061WAT     H178425   4.260   3.537   6.730
26061WAT     H278426   4.333   3.595   6.864
26062WAT      O78427   9.488   7.634   2.279
26062WAT     H178428   9.536   7.657   2.194
26062WAT     H278429   9.545   7.656   2.357
26063WAT      O78430   1.169   7.767   8.550
26063WAT     H178431   1.152   7.768   8.649
26063WAT     H278432   1.135   7.852   8.509
26064WAT      O78433   8.752   7.501   6.540
26064WAT     H178434   8.757   7.501   6.441
26064WAT     H278435   8.842   7.476   6.578
26065WAT      O78436   4.002   7.628   8.026
26065WAT     H178437   3.977   7.622   7.930
26065WAT     H278438   4.093   7.668   8.036
26066WAT      O78439   1.802   1.827   9.012
26066WAT     H178440   1.777   1.758   8.944
26066WAT     H278441   1.777   1.795   9.103
26067WAT      O78442   0.346   2.857   2.988
26067WAT     H178443   0.378   2.940   3.034
26067WAT     H278444   0.415   2.826   2.923
26068WAT      O78445   1.688   8.343   4.650
26068WAT     H178446   1.685   8.298   4.739
26068WAT     H278447   1.604   8.395   4.636
26069WAT      O78448   8.064   1.492   5.438
26069WAT     H178449   8.063   1.454   5.345
26069WAT     H278450   7.978   1.539   5.456
26070WAT      O78451   2.342   2.076   7.504
26070WAT     H178452   2.270   2.009   7.482
26070WAT     H278453   2.306   2.141   7.571
26071WAT      O78454   0.573   8.160   2.378
26071WAT     H178455   0.535   8.247   2.410
26071WAT     H278456   0.588   8.165   2.280
26072WAT      O78457   8.308   6.715   2.559
26072WAT     H178458   8.402   6.684   2.576
26072WAT     H278459   8.303   6.756   2.468
26073WAT      O78460   5.085   3.423   8.614
26073WAT     H178461   5.144   3.344   8.627
26073WAT     H278462   5.008   3.398   8.555
26074WAT      O78463   5.294   9.065   2.357
26074WAT     H178464   5.391   9.053   2.379
26074WAT     H278465   5.248   9.112   2.433
26075WAT      O78466   2.005   8.907   2.254
26075WAT     H178467   1.976   8.837   2.188
26075WAT     H278468   2.023   8.864   2.342
26076WAT      O78469   3.831   1.800   8.955
26076WAT     H178470   3.814   1.892   8.991
26076WAT     H278471   3.879   1.746   9.025
26077WAT      O78472   5.112   1.470   7.647
26077WAT     H178473   5.194   1.462   7.590
26077WAT     H278474   5.031   1.472   7.589
26078WAT      O78475   5.169   0.175   1.067
26078WAT     H178476   5.078   0.215   1.055
26078WAT     H278477   5.174   0.088   1.018
26079WAT      O78478   8.184   2.983   2.518
26079WAT     H178479   8.137   3.067   2.545
26079WAT     H278480   8.123   2.928   2.459
26080WAT      O78481   0.073   9.521   9.426
26080WAT     H178482   0.094   9.426   9.404
26080WAT     H278483   0.133   9.582   9.375
26081WAT      O78484   4.629   1.844   0.264
26081WAT     H178485   4.695   1.783   0.307
26081WAT     H278486   4.579   1.795   0.193
26082WAT      O78487   6.161   7.955   8.891
26082WAT     H178488   6.221   7.919   8.820
26082WAT     H278489   6.120   8.041   8.859
26083WAT      O78490   6.212   7.863   6.999
26083WAT     H178491   6.183   7.937   7.061
26083WAT     H278492   6.132   7.818   6.962
26084WAT      O78493   1.024   2.165   5.849
26084WAT     H178494   0.944   2.154   5.791
26084WAT     H278495   1.093   2.096   5.824
26085WAT      O78496   9.191   8.569   8.019
26085WAT     H178497   9.269   8.600   7.964
26085WAT     H278498   9.135   8.506   7.966
26086WAT      O78499   2.119   9.133   7.397
26086WAT     H178500   2.111   9.135   7.298
26086WAT     H278501   2.087   9.044   7.431
26087WAT      O78502   2.365   8.632   2.001
26087WAT     H178503   2.386   8.711   2.059
26087WAT     H278504   2.406   8.550   2.040
26088WAT      O78505   2.403   2.537   6.824
26088WAT     H178506   2.426   2.498   6.913
26088WAT     H278507   2.319   2.494   6.789
26089WAT      O78508   2.389   4.835   8.047
26089WAT     H178509   2.373   4.784   8.132
26089WAT     H278510   2.383   4.933   8.065
26090WAT      O78511   2.596   3.753   4.451
26090WAT     H178512   2.500   3.745   4.477
26090WAT     H278513   2.653   3.742   4.532
26091WAT      O78514   5.126   5.069   8.355
26091WAT     H178515   5.035   5.068   8.396
26091WAT     H278516   5.131   4.999   8.283
26092WAT      O78517   4.705   2.787   0.683
26092WAT     H178518   4.621   2.841   0.688
26092WAT     H278519   4.781   2.841   0.718
26093WAT      O78520   4.478   5.108   2.908
26093WAT     H178521   4.487   5.064   2.818
26093WAT     H278522   4.420   5.052   2.967
26094WAT      O78523   6.577   7.760   9.872
26094WAT     H178524   6.537   7.846   9.905
26094WAT     H278525   6.613   7.773   9.779
26095WAT      O78526   7.306   2.530   5.725
26095WAT     H178527   7.403   2.552   5.717
26095WAT     H278528   7.256   2.613   5.752
26096WAT      O78529   4.616   2.946   6.642
26096WAT     H178530   4.519   2.967   6.639
26096WAT     H278531   4.668   3.022   6.600
26097WAT      O78532   5.485   8.848   8.409
26097WAT     H178533   5.570   8.874   8.453
26097WAT     H278534   5.433   8.930   8.384
26098WAT      O78535   2.785   6.980   7.313
26098WAT     H178536   2.762   7.044   7.240
26098WAT     H278537   2.702   6.952   7.361
26099WAT      O78538   7.001   0.314   6.053
26099WAT     H178539   6.995   0.393   5.992
26099WAT     H278540   6.916   0.306   6.106
26100WAT      O78541   9.514   0.610   5.184
26100WAT     H178542   9.512   0.520   5.229
26100WAT     H278543   9.569   0.673   5.239
26101WAT      O78544   7.995   1.562   2.711
26101WAT     H178545   8.072   1.614   2.674
26101WAT     H278546   7.911   1.615   2.701
26102WAT      O78547   0.895   3.243   0.004
26102WAT     H178548   0.817   3.265  -0.055
26102WAT     H278549   0.914   3.321   0.064
26103WAT      O78550   3.437   2.614   1.153
26103WAT     H178551   3.369   2.588   1.084
26103WAT     H278552   3.495   2.687   1.116
26104WAT      O78553   6.236   3.314   2.602
26104WAT     H178554   6.283   3.368   2.672
26104WAT     H278555   6.248   3.217   2.622
26105WAT      O78556   5.317   3.279   8.064
26105WAT     H178557   5.386   3.218   8.103
26105WAT     H278558   5.291   3.246   7.973
26106WAT      O78559   2.290   1.666   1.604
26106WAT     H178560   2.201   1.647   1.645
26106WAT     H278561   2.287   1.649   1.506
26107WAT      O78562   1.919   7.669   1.446
26107WAT     H178563   1.993   7.612   1.410
26107WAT     H278564   1.953   7.722   1.524
26108WAT      O78565   5.738   3.670   6.240
26108WAT     H178566   5.709   3.750   6.293
26108WAT     H278567   5.731   3.690   6.143
26109WAT      O78568   6.941   1.278   9.600
26109WAT     H178569   6.994   1.208   9.553
26109WAT     H278570   6.929   1.253   9.696
26110WAT      O78571   2.892   0.301   7.451
26110WAT     H178572   2.792   0.295   7.447
26110WAT     H278573   2.920   0.396   7.435
26111WAT      O78574   0.631   0.457   9.211
26111WAT     H178575   0.549   0.495   9.253
26111WAT     H278576   0.699   0.529   9.198
26112WAT      O78577   7.740   6.577   0.447
26112WAT     H178578   7.840   6.568   0.447
26112WAT     H278579   7.705   6.548   0.358
26113WAT      O78580   1.114   0.276   5.105
26113WAT     H178581   1.066   0.362   5.120
26113WAT     H278582   1.209   0.295   5.080
26114WAT      O78583   0.932   2.296   9.607
26114WAT     H178584   0.965   2.202   9.612
26114WAT     H278585   0.988   2.349   9.543
26115WAT      O78586   0.670   5.697   8.145
26115WAT     H178587   0.610   5.653   8.213
26115WAT     H278588   0.747   5.636   8.126
26116WAT      O78589   2.488   2.435   6.470
26116WAT     H178590   2.527   2.381   6.545
26116WAT     H278591   2.480   2.378   6.389
26117WAT      O78592   0.830   5.561   1.887
26117WAT     H178593   0.828   5.473   1.839
26117WAT     H278594   0.825   5.635   1.820
26118WAT      O78595   2.180   4.639   3.585
26118WAT     H178596   2.154   4.724   3.632
26118WAT     H278597   2.098   4.590   3.558
26119WAT      O78598   6.436   8.993   0.441
26119WAT     H178599   6.357   8.941   0.474
26119WAT     H278600   6.495   9.016   0.518
26120WAT      O78601   8.453   4.403   9.304
26120WAT     H178602   8.402   4.367   9.382
26120WAT     H278603   8.550   4.408   9.328
26121WAT      O78604   6.819   2.173   3.411
26121WAT     H178605   6.733   2.179   3.463
26121WAT     H278606   6.845   2.265   3.380
26122WAT      O78607   3.887   0.799   0.891
26122WAT     H178608   3.804   0.777   0.839
26122WAT     H278609   3.865   0.801   0.989
26123WAT      O78610   0.203   2.873   0.986
26123WAT     H178611   0.212   2.852   0.889
26123WAT     H278612   0.106   2.868   1.012
26124WAT      O78613   4.231   3.818   8.975
26124WAT     H178614   4.213   3.912   9.004
26124WAT     H278615   4.229   3.758   9.054
26125WAT      O78616   1.765   5.097   2.237
26125WAT     H178617   1.708   5.104   2.155
26125WAT     H278618   1.799   5.004   2.246
26126WAT      O78619   9.214   3.229   4.270
26126WAT     H178620   9.290   3.277   4.226
26126WAT     H278621   9.242   3.136   4.293
26127WAT      O78622   5.774   2.669   5.578
26127WAT     H178623   5.823   2.589   5.614
26127WAT     H278624   5.738   2.723   5.653
26128WAT      O78625   1.838   1.387   5.657
26128WAT     H178626   1.812   1.415   5.565
26128WAT     H278627   1.836   1.288   5.664
26129WAT      O78628   9.405   3.959   4.114
26129WAT     H178629   9.489   3.908   4.096
26129WAT     H278630   9.334   3.931   4.049
26130WAT      O78631   4.510   0.608   3.190
26130WAT     H178632   4.524   0.691   3.245
26130WAT     H278633   4.473   0.536   3.249
26131WAT      O78634   6.243   0.035   3.370
26131WAT     H178635   6.202  -0.055   3.351
26131WAT     H278636   6.334   0.039   3.330
26132WAT      O78637   8.195   8.696   7.157
26132WAT     H178638   8.237   8.711   7.068
26132WAT     H278639   8.188   8.598   7.176
26133WAT      O78640   1.347   8.255   0.874
26133WAT     H178641   1.386   8.347   0.871
26133WAT     H278642   1.335   8.221   0.781
26134WAT      O78643   6.090   8.878   7.726
26134WAT     H178644   6.111   8.825   7.809
26134WAT     H278645   6.057   8.817   7.655
26135WAT      O78646   9.867   0.921   5.585
26135WAT     H178647   9.839   0.977   5.507
26135WAT     H278648   9.788   0.899   5.641
26136WAT      O78649   3.880   1.971   9.716
26136WAT     H178650   3.832   1.962   9.629
26136WAT     H278651   3.958   2.033   9.706
26137WAT      O78652   0.291   2.705   3.621
26137WAT     H178653   0.354   2.687   3.696
26137WAT     H278654   0.303   2.799   3.589
26138WAT      O78655   8.450   6.257   4.033
26138WAT     H178656   8.439   6.335   4.095
26138WAT     H278657   8.495   6.182   4.081
26139WAT      O78658   9.800   8.296   1.063
26139WAT     H178659   9.835   8.322   1.153
26139WAT     H278660   9.739   8.368   1.029
26140WAT      O78661   1.459   5.098   8.640
26140WAT     H178662   1.469   4.999   8.650
26140WAT     H278663   1.432   5.120   8.546
26141WAT      O78664   9.331   0.122   8.967
26141WAT     H178665   9.354   0.028   8.942
26141WAT     H278666   9.403   0.183   8.935
26142WAT      O78667   0.093   4.891   3.204
26142WAT     H178668   0.092   4.837   3.289
26142WAT     H278669   0.022   4.961   3.208
26143WAT      O78670   9.697   4.030   8.159
26143WAT     H178671   9.675   4.102   8.225
26143WAT     H278672   9.796   4.026   8.146
26144WAT      O78673   1.762   0.060   8.286
26144WAT     H178674   1.855   0.050   8.250
26144WAT     H278675   1.760   0.029   8.381
26145WAT      O78676   7.914   4.156   4.850
26145WAT     H178677   7.877   4.068   4.879
26145WAT     H278678   7.886   4.175   4.755
26146WAT      O78679   5.380   9.151   3.824
26146WAT     H178680   5.356   9.168   3.919
26146WAT     H278681   5.298   9.125   3.773
26147WAT      O78682   8.289   5.257   6.712
26147WAT     H178683   8.285   5.348   6.672
26147WAT     H278684   8.361   5.253   6.781
26148WAT      O78685   9.793   3.105   0.763
26148WAT     H178686   9.711   3.068   0.719
26148WAT     H278687   9.813   3.196   0.726
26149WAT      O78688   3.656   9.652   1.219
26149WAT     H178689   3.631   9.737   1.174
26149WAT     H278690   3.588   9.630   1.290
26150WAT      O78691   8.366   3.102   1.385
26150WAT     H178692   8.390   3.194   1.353
26150WAT     H278693   8.446   3.042   1.377
26151WAT      O78694   8.473   9.700   1.992
26151WAT     H178695   8.511   9.613   1.960
26151WAT     H278696   8.440   9.753   1.914
26152WAT      O78697   8.734   5.571   4.271
26152WAT     H178698   8.635   5.564   4.276
26152WAT     H278699   8.769   5.509   4.201
26153WAT      O78700   1.282   1.484   1.228
26153WAT     H178701   1.371   1.523   1.251
26153WAT     H278702   1.221   1.556   1.196
26154WAT      O78703   8.600   4.619   1.906
26154WAT     H178704   8.672   4.636   1.974
26154WAT     H278705   8.552   4.705   1.888
26155WAT      O78706   3.536   2.179   1.592
26155WAT     H178707   3.484   2.264   1.591
26155WAT     H278708   3.473   2.101   1.587
26156WAT      O78709   9.176   3.996   7.652
26156WAT     H178710   9.186   3.991   7.553
26156WAT     H278711   9.165   3.903   7.689
26157WAT      O78712   8.063   1.938   8.369
26157WAT     H178713   8.098   1.844   8.374
26157WAT     H278714   7.971   1.942   8.408
26158WAT      O78715   1.498   6.511   0.974
26158WAT     H178716   1.483   6.596   0.923
26158WAT     H278717   1.519   6.532   1.070
26159WAT      O78718   4.866   6.779   9.488
26159WAT     H178719   4.933   6.761   9.415
26159WAT     H278720   4.897   6.858   9.541
26160WAT      O78721   9.386   1.702   3.855
26160WAT     H178722   9.312   1.728   3.918
26160WAT     H278723   9.473   1.733   3.893
26161WAT      O78724   2.026   0.515   1.695
26161WAT     H178725   1.979   0.463   1.624
26161WAT     H278726   1.963   0.534   1.770
26162WAT      O78727   7.677   2.945   0.900
26162WAT     H178728   7.636   3.036   0.896
26162WAT     H278729   7.765   2.946   0.851
26163WAT      O78730   4.127   3.393   7.494
26163WAT     H178731   4.110   3.397   7.395
26163WAT     H278732   4.224   3.403   7.512
26164WAT      O78733   0.132   3.721   6.992
26164WAT     H178734   0.173   3.754   6.907
26164WAT     H278735   0.063   3.652   6.970
26165WAT      O78736   3.446   3.724   6.455
26165WAT     H178737   3.393   3.735   6.371
26165WAT     H278738   3.519   3.793   6.458
26166WAT      O78739   7.718   1.412   7.718
26166WAT     H178740   7.794   1.385   7.658
26166WAT     H278741   7.747   1.402   7.813
26167WAT      O78742   5.710   9.221   6.720
26167WAT     H178743   5.636   9.205   6.785
26167WAT     H278744   5.793   9.248   6.770
26168WAT      O78745   3.078   7.369   2.073
26168WAT     H178746   3.093   7.327   2.163
26168WAT     H278747   3.010   7.316   2.022
26169WAT      O78748   1.435   1.778   8.106
26169WAT     H178749   1.340   1.782   8.138
26169WAT     H278750   1.454   1.687   8.071
26170WAT      O78751   4.119   1.625   0.130
26170WAT     H178752   4.058   1.632   0.209
26170WAT     H278753   4.065   1.626   0.046
26171WAT      O78754   0.827   0.643   3.540
26171WAT     H178755   0.855   0.678   3.451
26171WAT     H278756   0.754   0.701   3.577
26172WAT      O78757   5.108   0.248   5.711
26172WAT     H178758   5.060   0.161   5.698
26172WAT     H278759   5.177   0.259   5.640
26173WAT      O78760   6.083   5.787   2.480
26173WAT     H178761   6.122   5.731   2.554
26173WAT     H278762   6.012   5.734   2.433
26174WAT      O78763   4.588   5.023   9.254
26174WAT     H178764   4.550   4.932   9.237
26174WAT     H278765   4.519   5.080   9.297
26175WAT      O78766   2.166   0.815   9.398
26175WAT     H178767   2.226   0.757   9.344
26175WAT     H278768   2.214   0.847   9.480
26176WAT      O78769   1.544   4.852   8.770
26176WAT     H178770   1.566   4.921   8.840
26176WAT     H278771   1.629   4.819   8.729
26177WAT      O78772   1.140   5.889   9.570
26177WAT     H178773   1.177   5.982   9.571
26177WAT     H278774   1.186   5.834   9.639
26178WAT      O78775   6.184   5.618   2.680
26178WAT     H178776   6.161   5.667   2.764
26178WAT     H278777   6.283   5.614   2.670
26179WAT      O78778   5.976   5.408   8.098
26179WAT     H178779   5.896   5.430   8.042
26179WAT     H278780   6.006   5.490   8.147
26180WAT      O78781   4.719   6.262   6.623
26180WAT     H178782   4.648   6.260   6.693
26180WAT     H278783   4.788   6.193   6.645
26181WAT      O78784   9.271   3.429   1.093
26181WAT     H178785   9.364   3.432   1.130
26181WAT     H278786   9.268   3.478   1.006
26182WAT      O78787   5.506   8.682   8.132
26182WAT     H178788   5.435   8.746   8.101
26182WAT     H278789   5.530   8.703   8.227
26183WAT      O78790   4.319   9.364   1.809
26183WAT     H178791   4.282   9.415   1.886
26183WAT     H278792   4.414   9.339   1.827
26184WAT      O78793   3.335   8.967   1.120
26184WAT     H178794   3.379   8.919   1.196
26184WAT     H278795   3.280   8.903   1.067
26185WAT      O78796   2.154   1.577   9.490
26185WAT     H178797   2.176   1.540   9.400
26185WAT     H278798   2.160   1.505   9.559
26186WAT      O78799   4.810   6.314   4.803
26186WAT     H178800   4.790   6.332   4.706
26186WAT     H278801   4.777   6.223   4.827
26187WAT      O78802   8.955   5.514   9.874
26187WAT     H178803   8.915   5.503   9.783
26187WAT     H278804   9.031   5.579   9.871
26188WAT      O78805   0.440   6.849   0.027
26188WAT     H178806   0.478   6.939   0.003
26188WAT     H278807   0.434   6.793  -0.055
26189WAT      O78808   9.593   2.692   5.760
26189WAT     H178809   9.495   2.671   5.763
26189WAT     H278810   9.608   2.782   5.801
26190WAT      O78811   6.567   3.514   2.431
26190WAT     H178812   6.639   3.563   2.480
26190WAT     H278813   6.487   3.573   2.421
26191WAT      O78814   6.650   5.355   9.130
26191WAT     H178815   6.553   5.379   9.138
26191WAT     H278816   6.699   5.387   9.211
26192WAT      O78817   8.679   5.839   5.744
26192WAT     H178818   8.617   5.852   5.822
26192WAT     H278819   8.659   5.751   5.701
26193WAT      O78820   3.490   4.370   7.633
26193WAT     H178821   3.501   4.352   7.535
26193WAT     H278822   3.449   4.460   7.646
26194WAT      O78823   8.541   8.937   1.433
26194WAT     H178824   8.608   8.976   1.496
26194WAT     H278825   8.492   8.863   1.479
26195WAT      O78826   8.239   9.431   0.211
26195WAT     H178827   8.307   9.426   0.283
26195WAT     H278828   8.180   9.350   0.214
26196WAT      O78829   1.284   2.372   1.813
26196WAT     H178830   1.357   2.419   1.863
26196WAT     H278831   1.315   2.356   1.719
26197WAT      O78832   4.855   6.426   9.837
26197WAT     H178833   4.833   6.328   9.839
26197WAT     H278834   4.796   6.472   9.772
26198WAT      O78835   7.843   7.682   2.048
26198WAT     H178836   7.760   7.632   2.076
26198WAT     H278837   7.817   7.765   2.000
26199WAT      O78838   1.606   8.784   2.481
26199WAT     H178839   1.661   8.724   2.423
26199WAT     H278840   1.629   8.880   2.461
26200WAT      O78841   8.628   6.972   9.091
26200WAT     H178842   8.532   6.961   9.066
26200WAT     H278843   8.634   6.986   9.190
26201WAT      O78844   5.297   6.291   9.448
26201WAT     H178845   5.248   6.212   9.409
26201WAT     H278846   5.356   6.260   9.522
26202WAT      O78847   7.773   3.405   3.186
26202WAT     H178848   7.743   3.352   3.107
26202WAT     H278849   7.694   3.451   3.227
26203WAT      O78850   0.653   2.832   6.196
26203WAT     H178851   0.610   2.771   6.129
26203WAT     H278852   0.629   2.926   6.176
26204WAT      O78853   1.116   5.777   3.902
26204WAT     H178854   1.212   5.807   3.902
26204WAT     H278855   1.112   5.679   3.886
26205WAT      O78856   6.259   7.302   9.326
26205WAT     H178857   6.172   7.351   9.327
26205WAT     H278858   6.248   7.215   9.375
26206WAT      O78859   3.639   8.444   5.661
26206WAT     H178860   3.706   8.429   5.733
26206WAT     H278861   3.590   8.359   5.641
26207WAT      O78862   6.424   7.486   6.059
26207WAT     H178863   6.456   7.453   6.147
26207WAT     H278864   6.489   7.460   5.988
26208WAT      O78865   9.072   7.646   8.506
26208WAT     H178866   9.052   7.598   8.422
26208WAT     H278867   8.989   7.689   8.541
26209WAT      O78868   5.630   2.830   5.763
26209WAT     H178869   5.713   2.866   5.806
26209WAT     H278870   5.588   2.763   5.823
26210WAT      O78871   7.718   2.627   9.782
26210WAT     H178872   7.707   2.581   9.870
26210WAT     H278873   7.721   2.726   9.797
26211WAT      O78874   4.410   6.243   6.563
26211WAT     H178875   4.344   6.306   6.603
26211WAT     H278876   4.454   6.190   6.636
26212WAT      O78877   3.283   1.551   7.681
26212WAT     H178878   3.321   1.551   7.773
26212WAT     H278879   3.195   1.503   7.681
26213WAT      O78880   2.955   8.576   7.696
26213WAT     H178881   3.039   8.544   7.738
26213WAT     H278882   2.976   8.622   7.610
26214WAT      O78883   3.572   8.883   9.315
26214WAT     H178884   3.547   8.896   9.219
26214WAT     H278885   3.667   8.908   9.329
26215WAT      O78886   3.719   5.401   6.352
26215WAT     H178887   3.784   5.326   6.340
26215WAT     H278888   3.628   5.364   6.370
26216WAT      O78889   0.337   2.526   8.584
26216WAT     H178890   0.284   2.478   8.653
26216WAT     H278891   0.385   2.604   8.626
26217WAT      O78892   8.439   6.282   2.567
26217WAT     H178893   8.428   6.210   2.499
26217WAT     H278894   8.448   6.370   2.521
26218WAT      O78895   6.567   3.110   5.670
26218WAT     H178896   6.620   3.194   5.676
26218WAT     H278897   6.629   3.032   5.665
26219WAT      O78898   5.959   5.120   3.314
26219WAT     H178899   5.894   5.174   3.260
26219WAT     H278900   5.961   5.026   3.278
26220WAT      O78901   8.504   3.158   4.542
26220WAT     H178902   8.601   3.179   4.533
26220WAT     H278903   8.488   3.112   4.629
26221WAT      O78904   5.516   0.732   4.861
26221WAT     H178905   5.576   0.801   4.820
26221WAT     H278906   5.552   0.704   4.950
26222WAT      O78907   2.596   0.806   3.737
26222WAT     H178908   2.656   0.749   3.680
26222WAT     H278909   2.505   0.764   3.742
26223WAT      O78910   5.859   2.996   0.860
26223WAT     H178911   5.906   3.085   0.865
26223WAT     H278912   5.887   2.940   0.938
26224WAT      O78913   3.513   5.842   9.804
26224WAT     H178914   3.498   5.851   9.903
26224WAT     H278915   3.425   5.848   9.757
26225WAT      O78916   3.336   1.681   4.880
26225WAT     H178917   3.396   1.741   4.827
26225WAT     H278918   3.376   1.665   4.970
26226WAT      O78919   4.816   4.945   5.898
26226WAT     H178920   4.866   5.007   5.959
26226WAT     H278921   4.751   4.891   5.950
26227WAT      O78922   8.122   0.442   0.126
26227WAT     H178923   8.114   0.464   0.029
26227WAT     H278924   8.211   0.400   0.143
26228WAT      O78925   2.046   7.223   3.674
26228WAT     H178926   2.038   7.256   3.580
26228WAT     H278927   2.043   7.302   3.736
26229WAT      O78928   1.456   0.416   8.095
26229WAT     H178929   1.373   0.374   8.057
26229WAT     H278930   1.441   0.436   8.192
26230WAT      O78931   7.063   7.440   3.667
26230WAT     H178932   7.135   7.441   3.737
26230WAT     H278933   6.998   7.513   3.683
26231WAT      O78934   5.349   7.651   1.058
26231WAT     H178935   5.429   7.649   0.998
26231WAT     H278936   5.318   7.746   1.069
26232WAT      O78937   6.619   7.220   2.788
26232WAT     H178938   6.534   7.233   2.737
26232WAT     H278939   6.632   7.296   2.851
26233WAT      O78940   0.259   1.988   5.832
26233WAT     H178941   0.350   1.950   5.817
26233WAT     H278942   0.243   2.062   5.768
26234WAT      O78943   2.749   7.013   8.401
26234WAT     H178944   2.803   7.096   8.381
26234WAT     H278945   2.662   7.018   8.353
26235WAT      O78946   6.738   0.915   6.596
26235WAT     H178947   6.651   0.938   6.641
26235WAT     H278948   6.800   0.875   6.664
26236WAT      O78949   4.318   9.190   5.378
26236WAT     H178950   4.262   9.111   5.403
26236WAT     H278951   4.307   9.209   5.280
26237WAT      O78952   2.776   4.894   1.513
26237WAT     H178953   2.757   4.981   1.468
26237WAT     H278954   2.858   4.854   1.473
26238WAT      O78955   2.708   4.900   2.565
26238WAT     H178956   2.703   4.998   2.585
26238WAT     H278957   2.799   4.878   2.528
26239WAT      O78958   3.973   4.046   0.227
26239WAT     H178959   3.962   4.144   0.210
26239WAT     H278960   4.046   4.031   0.293
26240WAT      O78961   6.620   1.826   0.751
26240WAT     H178962   6.669   1.754   0.800
26240WAT     H278963   6.657   1.835   0.658
26241WAT      O78964   7.981   8.765   9.149
26241WAT     H178965   8.008   8.669   9.147
26241WAT     H278966   8.050   8.820   9.102
26242WAT      O78967   4.158   0.363   2.458
26242WAT     H178968   4.229   0.297   2.431
26242WAT     H278969   4.069   0.328   2.429
26243WAT      O78970   7.529   5.944   1.300
26243WAT     H178971   7.454   5.904   1.353
26243WAT     H278972   7.529   5.904   1.208
26244WAT      O78973   4.517   3.154   5.210
26244WAT     H178974   4.527   3.248   5.242
26244WAT     H278975   4.551   3.147   5.116
26245WAT      O78976   3.436   4.985   3.353
26245WAT     H178977   3.445   4.885   3.352
26245WAT     H278978   3.514   5.025   3.402
26246WAT      O78979   4.421   7.363   4.968
26246WAT     H178980   4.322   7.353   4.972
26246WAT     H278981   4.463   7.309   5.042
26247WAT      O78982   5.219   2.819   3.133
26247WAT     H178983   5.202   2.722   3.115
26247WAT     H278984   5.238   2.866   3.047
26248WAT      O78985   7.539   4.117   6.139
26248WAT     H178986   7.475   4.047   6.110
26248WAT     H278987   7.618   4.074   6.183
26249WAT      O78988   9.849   2.118   4.685
26249WAT     H178989   9.905   2.109   4.767
26249WAT     H278990   9.872   2.046   4.620
26250WAT      O78991   1.314   0.469   1.734
26250WAT     H178992   1.318   0.414   1.651
26250WAT     H278993   1.355   0.419   1.810
26251WAT      O78994   8.955   9.626   5.600
26251WAT     H178995   8.859   9.609   5.580
26251WAT     H278996   8.999   9.667   5.520
26252WAT      O78997   9.617   7.075   3.182
26252WAT     H178998   9.601   7.041   3.089
26252WAT     H278999   9.540   7.133   3.210
26253WAT      O79000   7.652   0.939   7.755
26253WAT     H179001   7.618   0.891   7.835
26253WAT     H279002   7.576   0.984   7.708
26254WAT      O79003   6.048   7.239   8.378
26254WAT     H179004   6.025   7.193   8.464
26254WAT     H279005   6.057   7.338   8.395
26255WAT      O79006   9.775   4.533   5.595
26255WAT     H179007   9.817   4.443   5.581
26255WAT     H279008   9.690   4.538   5.543
26256WAT      O79009   2.747   1.681   1.814
26256WAT     H179010   2.663   1.723   1.780
26256WAT     H279011   2.747   1.583   1.791
26257WAT      O79012   3.554   7.483   1.837
26257WAT     H179013   3.499   7.450   1.914
26257WAT     H279014   3.624   7.415   1.815
26258WAT      O79015   8.512   9.125   3.094
26258WAT     H179016   8.505   9.025   3.092
26258WAT     H279017   8.608   9.152   3.104
26259WAT      O79018   3.219   6.786   5.363
26259WAT     H179019   3.237   6.835   5.278
26259WAT     H279020   3.165   6.704   5.343
26260WAT      O79021   2.276   5.504   6.375
26260WAT     H179022   2.320   5.537   6.459
26260WAT     H279023   2.342   5.504   6.301
26261WAT      O79024   7.993   1.120   7.458
26261WAT     H179025   7.978   1.055   7.382
26261WAT     H279026   8.090   1.121   7.481
26262WAT      O79027   5.282   2.614   8.673
26262WAT     H179028   5.295   2.517   8.693
26262WAT     H279029   5.227   2.625   8.591
26263WAT      O79030   1.523   6.864   9.122
26263WAT     H179031   1.506   6.961   9.106
26263WAT     H279032   1.563   6.851   9.213
26264WAT      O79033   3.798   6.229   6.613
26264WAT     H179034   3.874   6.169   6.639
26264WAT     H279035   3.826   6.289   6.538
26265WAT      O79036   8.170   3.667   5.636
26265WAT     H179037   8.267   3.688   5.623
26265WAT     H279038   8.120   3.690   5.553
26266WAT      O79039   5.689   3.187   1.950
26266WAT     H179040   5.689   3.139   1.862
26266WAT     H279041   5.712   3.123   2.023
26267WAT      O79042   7.128   7.749   4.539
26267WAT     H179043   7.094   7.803   4.462
26267WAT     H279044   7.059   7.680   4.564
26268WAT      O79045   6.025   2.168   6.559
26268WAT     H179046   5.976   2.191   6.643
26268WAT     H279047   6.111   2.220   6.556
26269WAT      O79048   5.273   5.301   6.897
26269WAT     H179049   5.330   5.362   6.953
26269WAT     H279050   5.332   5.234   6.851
26270WAT      O79051   8.581   2.449   0.397
26270WAT     H179052   8.658   2.446   0.334
26270WAT     H279053   8.549   2.544   0.406
26271WAT      O79054   9.342   1.016   8.774
26271WAT     H179055   9.327   1.054   8.865
26271WAT     H279056   9.344   1.089   8.706
26272WAT      O79057   7.898   5.091   9.568
26272WAT     H179058   7.817   5.070   9.623
26272WAT     H279059   7.972   5.029   9.594
26273WAT      O79060   4.739   3.193   6.497
26273WAT     H179061   4.833   3.160   6.508
26273WAT     H279062   4.724   3.273   6.555
26274WAT      O79063   2.099   6.214   4.207
26274WAT     H179064   2.033   6.152   4.250
26274WAT     H279065   2.188   6.170   4.204
26275WAT      O79066   8.308   9.706   6.155
26275WAT     H179067   8.360   9.626   6.187
26275WAT     H279068   8.365   9.787   6.162
26276WAT      O79069   6.422   3.713   3.907
26276WAT     H179070   6.340   3.686   3.957
26276WAT     H279071   6.500   3.716   3.970
26277WAT      O79072   0.869   5.018   8.110
26277WAT     H179073   0.830   5.076   8.038
26277WAT     H279074   0.897   5.075   8.187
26278WAT      O79075   5.292   1.765   8.770
26278WAT     H179076   5.214   1.789   8.712
26278WAT     H279077   5.290   1.666   8.788
26279WAT      O79078   1.615   3.838   7.514
26279WAT     H179079   1.651   3.748   7.492
26279WAT     H279080   1.532   3.855   7.461
26280WAT      O79081   0.342   5.778   6.801
26280WAT     H179082   0.360   5.743   6.709
26280WAT     H279083   0.253   5.745   6.832
26281WAT      O79084   3.347   0.250   4.965
26281WAT     H179085   3.341   0.330   4.906
26281WAT     H279086   3.389   0.275   5.052
26282WAT      O79087   3.377   4.395   2.505
26282WAT     H179088   3.365   4.400   2.604
26282WAT     H279089   3.401   4.301   2.480
26283WAT      O79090   5.779   7.614   7.038
26283WAT     H179091   5.683   7.605   7.012
26283WAT     H279092   5.790   7.590   7.134
26284WAT      O79093   4.870   8.130   1.867
26284WAT     H179094   4.954   8.103   1.821
26284WAT     H279095   4.793   8.124   1.803
26285WAT      O79096   0.956   7.007   1.073
26285WAT     H179097   0.975   7.077   1.142
26285WAT     H279098   0.951   6.917   1.117
26286WAT      O79099   9.308   0.096   4.432
26286WAT     H179100   9.335   0.005   4.465
26286WAT     H279101   9.229   0.128   4.485
26287WAT      O79102   9.321   4.944   1.928
26287WAT     H179103   9.420   4.945   1.938
26287WAT     H279104   9.279   4.915   2.014
26288WAT      O79105   6.572   5.988   8.147
26288WAT     H179106   6.568   5.907   8.088
26288WAT     H279107   6.569   5.959   8.243
26289WAT      O79108   5.364   1.825   0.993
26289WAT     H179109   5.424   1.835   1.072
26289WAT     H279110   5.323   1.734   0.993
26290WAT      O79111   1.990   7.681   4.514
26290WAT     H179112   1.971   7.584   4.530
26290WAT     H279113   1.915   7.722   4.463
26291WAT      O79114   3.192   0.766   1.945
26291WAT     H179115   3.159   0.690   1.888
26291WAT     H279116   3.146   0.763   2.034
26292WAT      O79117   5.434   8.481   3.184
26292WAT     H179118   5.334   8.477   3.176
26292WAT     H279119   5.459   8.484   3.281
26293WAT      O79120   6.435   4.872   8.224
26293WAT     H179121   6.531   4.844   8.231
26293WAT     H279122   6.400   4.848   8.133
26294WAT      O79123   3.900   0.600   5.697
26294WAT     H179124   3.899   0.687   5.648
26294WAT     H279125   3.993   0.565   5.702
26295WAT      O79126   3.362   6.591   6.508
26295WAT     H179127   3.377   6.638   6.421
26295WAT     H279128   3.442   6.534   6.529
26296WAT      O79129   8.799   2.214   9.824
26296WAT     H179130   8.829   2.135   9.876
26296WAT     H279131   8.843   2.213   9.734
26297WAT      O79132   3.901   5.638   2.447
26297WAT     H179133   3.829   5.700   2.477
26297WAT     H279134   3.976   5.639   2.513
26298WAT      O79135   2.745   7.118   3.501
26298WAT     H179136   2.804   7.065   3.441
26298WAT     H279137   2.762   7.216   3.487
26299WAT      O79138   0.195   5.840   4.977
26299WAT     H179139   0.277   5.876   4.931
26299WAT     H279140   0.115   5.858   4.920
26300WAT      O79141   8.960   4.114   6.969
26300WAT     H179142   8.940   4.205   7.007
26300WAT     H279143   9.059   4.104   6.958
26301WAT      O79144   6.442   0.703   5.798
26301WAT     H179145   6.430   0.668   5.705
26301WAT     H279146   6.533   0.678   5.831
26302WAT      O79147   5.012   3.580   2.340
26302WAT     H179148   4.990   3.658   2.281
26302WAT     H279149   4.951   3.504   2.319
26303WAT      O79150   7.665   6.063   4.577
26303WAT     H179151   7.669   6.158   4.607
26303WAT     H279152   7.570   6.032   4.578
26304WAT      O79153   8.038   3.233   5.453
26304WAT     H179154   8.012   3.224   5.550
26304WAT     H279155   7.961   3.206   5.396
26305WAT      O79156   3.929   6.442   0.321
26305WAT     H179157   4.022   6.409   0.337
26305WAT     H279158   3.906   6.432   0.225
26306WAT      O79159   6.582   0.061   6.878
26306WAT     H179160   6.526   0.106   6.948
26306WAT     H279161   6.593  -0.035   6.901
26307WAT      O79162   2.927   3.244   4.290
26307WAT     H179163   2.849   3.183   4.306
26307WAT     H279164   3.003   3.218   4.350
26308WAT      O79165   5.496   9.252   9.417
26308WAT     H179166   5.577   9.223   9.367
26308WAT     H279167   5.514   9.339   9.463
26309WAT      O79168   8.699   1.614   9.881
26309WAT     H179169   8.692   1.614   9.782
26309WAT     H279170   8.632   1.678   9.919
26310WAT      O79171   2.849   1.219   1.952
26310WAT     H179172   2.860   1.126   1.917
26310WAT     H279173   2.833   1.282   1.876
26311WAT      O79174   7.073   1.731   6.630
26311WAT     H179175   7.033   1.662   6.570
26311WAT     H279176   7.154   1.770   6.586
26312WAT      O79177   5.358   4.287   5.329
26312WAT     H179178   5.343   4.385   5.341
26312WAT     H279179   5.280   4.236   5.365
26313WAT      O79180   0.036   4.134   6.972
26313WAT     H179181   0.073   4.066   7.036
26313WAT     H279182   0.093   4.136   6.890
26314WAT      O79183   7.945   5.934   1.188
26314WAT     H179184   7.912   5.924   1.094
26314WAT     H279185   7.872   5.974   1.245
26315WAT      O79186   8.319   6.092   4.808
26315WAT     H179187   8.333   6.125   4.901
26315WAT     H279188   8.390   6.129   4.748
26316WAT      O79189   5.029   9.510   0.794
26316WAT     H179190   5.067   9.573   0.726
26316WAT     H279191   5.105   9.462   0.839
26317WAT      O79192   9.659   1.080   8.498
26317WAT     H179193   9.604   1.091   8.415
26317WAT     H279194   9.651   0.986   8.530
26318WAT      O79195   6.893   3.140   2.572
26318WAT     H179196   6.835   3.065   2.540
26318WAT     H279197   6.867   3.225   2.525
26319WAT      O79198   8.143   8.122   8.682
26319WAT     H179199   8.075   8.152   8.614
26319WAT     H279200   8.170   8.201   8.738
26320WAT      O79201   5.368   8.051   9.348
26320WAT     H179202   5.369   8.107   9.430
26320WAT     H279203   5.319   7.965   9.366
26321WAT      O79204   0.121   3.586   7.252
26321WAT     H179205   0.106   3.624   7.161
26321WAT     H279206   0.085   3.493   7.256
26322WAT      O79207   8.258   8.907   6.139
26322WAT     H179208   8.332   8.889   6.204
26322WAT     H279209   8.170   8.884   6.181
26323WAT      O79210   9.768   8.675   6.232
26323WAT     H179211   9.709   8.745   6.192
26323WAT     H279212   9.807   8.619   6.160
26324WAT      O79213   5.216   8.580   5.003
26324WAT     H179214   5.239   8.591   5.100
26324WAT     H279215   5.268   8.503   4.965
26325WAT      O79216   7.668   4.121   2.215
26325WAT     H179217   7.611   4.156   2.289
26325WAT     H279218   7.627   4.147   2.127
26326WAT      O79219   0.745   9.781   1.898
26326WAT     H179220   0.669   9.730   1.858
26326WAT     H279221   0.832   9.747   1.861
26327WAT      O79222   5.465   5.291   3.456
26327WAT     H179223   5.440   5.287   3.359
26327WAT     H279224   5.550   5.343   3.466
26328WAT      O79225   6.226   3.049   9.042
26328WAT     H179226   6.209   3.146   9.061
26328WAT     H279227   6.295   3.013   9.105
26329WAT      O79228   3.564   5.561   1.332
26329WAT     H179229   3.512   5.564   1.246
26329WAT     H279230   3.661   5.555   1.311
26330WAT      O79231   9.743   8.497   2.192
26330WAT     H179232   9.673   8.505   2.263
26330WAT     H279233   9.702   8.515   2.103
26331WAT      O79234   8.996   9.485   8.769
26331WAT     H179235   9.083   9.466   8.722
26331WAT     H279236   9.003   9.574   8.815
26332WAT      O79237   8.390   2.572   1.283
26332WAT     H179238   8.307   2.549   1.334
26332WAT     H279239   8.449   2.629   1.340
26333WAT      O79240   0.819   2.508   5.138
26333WAT     H179241   0.841   2.597   5.097
26333WAT     H279242   0.761   2.521   5.218
26334WAT      O79243   0.293   0.156   8.599
26334WAT     H179244   0.285   0.243   8.550
26334WAT     H279245   0.386   0.120   8.588
26335WAT      O79246   1.734   0.314   8.577
26335WAT     H179247   1.780   0.380   8.519
26335WAT     H279248   1.685   0.362   8.651
26336WAT      O79249   0.820   0.091   8.148
26336WAT     H179250   0.869   0.128   8.069
26336WAT     H279251   0.733   0.051   8.118
26337WAT      O79252   1.074   2.310   0.024
26337WAT     H179253   1.141   2.296   0.097
26337WAT     H279254   1.026   2.224   0.006
26338WAT      O79255   8.490   6.455   4.290
26338WAT     H179256   8.539   6.516   4.353
26338WAT     H279257   8.432   6.510   4.230
26339WAT      O79258   1.462   7.063   0.242
26339WAT     H179259   1.473   7.140   0.180
26339WAT     H279260   1.552   7.030   0.271
26340WAT      O79261   3.473   9.017   3.052
26340WAT     H179262   3.412   9.086   3.091
26340WAT     H279263   3.557   9.011   3.107
26341WAT      O79264   6.664   2.603   3.240
26341WAT     H179265   6.573   2.627   3.273
26341WAT     H279266   6.677   2.641   3.148
26342WAT      O79267   9.108   1.754   2.747
26342WAT     H179268   9.193   1.793   2.713
26342WAT     H279269   9.031   1.810   2.715
26343WAT      O79270   0.242   5.667   8.852
26343WAT     H179271   0.307   5.669   8.928
26343WAT     H279272   0.153   5.698   8.884
26344WAT      O79273   1.848   5.840   6.611
26344WAT     H179274   1.788   5.841   6.531
26344WAT     H279275   1.940   5.869   6.585
26345WAT      O79276   1.477   7.501   7.632
26345WAT     H179277   1.469   7.403   7.645
26345WAT     H279278   1.494   7.521   7.535
26346WAT      O79279   5.485   4.297   4.188
26346WAT     H179280   5.421   4.254   4.124
26346WAT     H279281   5.438   4.367   4.240
26347WAT      O79282   9.428   3.881   3.068
26347WAT     H179283   9.437   3.791   3.112
26347WAT     H279284   9.360   3.936   3.117
26348WAT      O79285   6.787   0.958   9.884
26348WAT     H179286   6.781   0.877   9.826
26348WAT     H279287   6.695   0.991   9.905
26349WAT      O79288   7.563   3.484   2.159
26349WAT     H179289   7.497   3.409   2.148
26349WAT     H279290   7.590   3.491   2.255
26350WAT      O79291   7.682   7.932   1.659
26350WAT     H179292   7.601   7.930   1.600
26350WAT     H279293   7.729   7.844   1.655
26351WAT      O79294   2.091   5.332   9.509
26351WAT     H179295   2.025   5.408   9.504
26351WAT     H279296   2.092   5.296   9.602
26352WAT      O79297   6.025   9.447   0.920
26352WAT     H179298   6.119   9.463   0.952
26352WAT     H279299   6.028   9.398   0.833
26353WAT      O79300   6.129   1.531   3.650
26353WAT     H179301   6.056   1.462   3.650
26353WAT     H279302   6.112   1.598   3.578
26354WAT      O79303   5.837   3.148   3.497
26354WAT     H179304   5.789   3.069   3.458
26354WAT     H279305   5.934   3.127   3.506
26355WAT      O79306   9.696   8.033   8.757
26355WAT     H179307   9.744   8.073   8.835
26355WAT     H279308   9.638   7.958   8.789
26356WAT      O79309   9.515   2.322   2.013
26356WAT     H179310   9.541   2.402   1.959
26356WAT     H279311   9.488   2.350   2.104
26357WAT      O79312   2.461   3.020   9.090
26357WAT     H179313   2.550   3.059   9.113
26357WAT     H279314   2.390   3.063   9.145
26358WAT      O79315   6.506   9.712   0.168
26358WAT     H179316   6.461   9.685   0.254
26358WAT     H279317   6.443   9.767   0.114
26359WAT      O79318   6.816   7.455   6.812
26359WAT     H179319   6.746   7.392   6.843
26359WAT     H279320   6.852   7.424   6.724
26360WAT      O79321   6.423   8.319   9.493
26360WAT     H179322   6.439   8.231   9.449
26360WAT     H279323   6.344   8.364   9.452
26361WAT      O79324   6.666   7.535   2.417
26361WAT     H179325   6.600   7.493   2.354
26361WAT     H279326   6.757   7.495   2.401
26362WAT      O79327   3.642   4.206   6.427
26362WAT     H179328   3.632   4.262   6.509
26362WAT     H279329   3.629   4.110   6.450
26363WAT      O79330   2.479   3.671   3.249
26363WAT     H179331   2.439   3.702   3.163
26363WAT     H279332   2.409   3.674   3.321
26364WAT      O79333   7.059   7.642   0.270
26364WAT     H179334   6.982   7.627   0.208
26364WAT     H279335   7.127   7.701   0.226
26365WAT      O79336   3.735   8.335   0.738
26365WAT     H179337   3.800   8.400   0.776
26365WAT     H279338   3.780   8.282   0.665
26366WAT      O79339   9.263   0.550   6.539
26366WAT     H179340   9.340   0.499   6.577
26366WAT     H279341   9.289   0.588   6.450
26367WAT      O79342   2.648   6.533   9.804
26367WAT     H179343   2.730   6.582   9.775
26367WAT     H279344   2.608   6.580   9.883
26368WAT      O79345   3.400   5.034   2.286
26368WAT     H179346   3.326   5.067   2.344
26368WAT     H279347   3.394   4.934   2.278
26369WAT      O79348   0.778   0.809   8.661
26369WAT     H179349   0.806   0.730   8.607
26369WAT     H279350   0.700   0.854   8.618
26370WAT      O79351   4.880   0.962   2.053
26370WAT     H179352   4.970   0.928   2.028
26370WAT     H279353   4.890   1.044   2.110
26371WAT      O79354   6.533   4.967   9.790
26371WAT     H179355   6.442   4.953   9.830
26371WAT     H279356   6.564   4.882   9.748
26372WAT      O79357   6.817   9.365   5.079
26372WAT     H179358   6.896   9.399   5.131
26372WAT     H279359   6.832   9.269   5.056
26373WAT      O79360   5.401   7.994   5.455
26373WAT     H179361   5.377   7.948   5.540
26373WAT     H279362   5.318   8.034   5.414
26374WAT      O79363   6.086   1.166   1.505
26374WAT     H179364   6.035   1.251   1.493
26374WAT     H279365   6.078   1.111   1.421
26375WAT      O79366   9.148   3.537   3.816
26375WAT     H179367   9.212   3.572   3.747
26375WAT     H279368   9.082   3.477   3.772
26376WAT      O79369   0.582   7.700   1.549
26376WAT     H179370   0.540   7.760   1.617
26376WAT     H279371   0.513   7.638   1.513
26377WAT      O79372   9.229   7.440   4.991
26377WAT     H179373   9.288   7.457   5.070
26377WAT     H279374   9.248   7.349   4.954
26378WAT      O79375   1.665   6.361   2.997
26378WAT     H179376   1.661   6.261   2.999
26378WAT     H279377   1.750   6.392   3.040
26379WAT      O79378   9.257   2.416   0.036
26379WAT     H179379   9.340   2.429  -0.018
26379WAT     H279380   9.192   2.362  -0.016
26380WAT      O79381   9.539   9.196   5.459
26380WAT     H179382   9.443   9.209   5.484
26380WAT     H279383   9.563   9.099   5.468
26381WAT      O79384   1.314   0.940   3.405
26381WAT     H179385   1.398   0.908   3.360
26381WAT     H279386   1.255   0.863   3.424
26382WAT      O79387   8.991   1.725   4.376
26382WAT     H179388   9.033   1.800   4.326
26382WAT     H279389   8.939   1.667   4.313
26383WAT      O79390   6.610   9.664   2.527
26383WAT     H179391   6.621   9.763   2.535
26383WAT     H279392   6.572   9.642   2.438
26384WAT      O79393   9.488   7.244   7.862
26384WAT     H179394   9.432   7.206   7.936
26384WAT     H279395   9.499   7.342   7.875
26385WAT      O79396   6.171   0.284   5.358
26385WAT     H179397   6.146   0.250   5.267
26385WAT     H279398   6.170   0.208   5.423
26386WAT      O79399   2.043   0.483   3.739
26386WAT     H179400   2.089   0.527   3.661
26386WAT     H279401   2.041   0.546   3.816
26387WAT      O79402   2.309   8.505   8.231
26387WAT     H179403   2.396   8.477   8.271
26387WAT     H279404   2.268   8.577   8.288
26388WAT      O79405   2.997   2.452   5.221
26388WAT     H179406   2.992   2.368   5.275
26388WAT     H279407   2.907   2.470   5.180
26389WAT      O79408   4.130   9.385   1.576
26389WAT     H179409   4.171   9.465   1.532
26389WAT     H279410   4.168   9.375   1.668
26390WAT      O79411   4.346   7.075   3.982
26390WAT     H179412   4.337   6.976   3.985
26390WAT     H279413   4.286   7.112   3.911
26391WAT      O79414   2.452   0.072   2.233
26391WAT     H179415   2.374   0.011   2.236
26391WAT     H279416   2.531   0.027   2.274
26392WAT      O79417   4.257   8.855   0.570
26392WAT     H179418   4.225   8.942   0.608
26392WAT     H279419   4.261   8.786   0.641
26393WAT      O79420   4.207   9.370   7.744
26393WAT     H179421   4.179   9.278   7.773
26393WAT     H279422   4.290   9.363   7.689
26394WAT      O79423   0.109   2.470   6.826
26394WAT     H179424   0.200   2.497   6.794
26394WAT     H279425   0.075   2.394   6.771
26395WAT      O79426   4.588   9.227   0.590
26395WAT     H179427   4.587   9.312   0.641
26395WAT     H279428   4.588   9.149   0.653
26396WAT      O79429   3.013   7.436   2.468
26396WAT     H179430   3.013   7.518   2.412
26396WAT     H279431   3.033   7.356   2.411
26397WAT      O79432   4.834   7.504   4.534
26397WAT     H179433   4.750   7.520   4.483
26397WAT     H279434   4.912   7.544   4.485
26398WAT      O79435   9.612   9.298   5.205
26398WAT     H179436   9.650   9.388   5.224
26398WAT     H279437   9.567   9.262   5.286
26399WAT      O79438   6.088   3.377   1.082
26399WAT     H179439   6.024   3.419   1.146
26399WAT     H279440   6.171   3.349   1.131
26400WAT      O79441   7.846   7.600   0.469
26400WAT     H179442   7.879   7.618   0.562
26400WAT     H279443   7.748   7.577   0.473
26401WAT      O79444   0.288   0.957   5.461
26401WAT     H179445   0.334   0.949   5.373
26401WAT     H279446   0.306   0.876   5.517
26402WAT      O79447   0.675   5.128   6.633
26402WAT     H179448   0.690   5.227   6.633
26402WAT     H279449   0.757   5.082   6.669
26403WAT      O79450   6.762   3.616   7.566
26403WAT     H179451   6.749   3.604   7.468
26403WAT     H279452   6.805   3.704   7.584
26404WAT      O79453   8.603   2.946   7.492
26404WAT     H179454   8.548   2.919   7.414
26404WAT     H279455   8.583   3.042   7.515
26405WAT      O79456   2.124   2.206   1.200
26405WAT     H179457   2.161   2.277   1.139
26405WAT     H279458   2.025   2.200   1.188
26406WAT      O79459   6.642   6.890   0.804
26406WAT     H179460   6.591   6.889   0.718
26406WAT     H279461   6.592   6.837   0.873
26407WAT      O79462   2.576   8.362   6.260
26407WAT     H179463   2.600   8.314   6.176
26407WAT     H279464   2.483   8.337   6.288
26408WAT      O79465   3.517   1.925   5.232
26408WAT     H179466   3.591   1.941   5.298
26408WAT     H279467   3.525   1.990   5.157
26409WAT      O79468   0.789   1.486   9.417
26409WAT     H179469   0.828   1.438   9.339
26409WAT     H279470   0.862   1.521   9.476
26410WAT      O79471   5.606   5.906   8.414
26410WAT     H179472   5.595   5.822   8.468
26410WAT     H279473   5.582   5.887   8.319
26411WAT      O79474   9.759   4.232   7.168
26411WAT     H179475   9.823   4.201   7.099
26411WAT     H279476   9.669   4.248   7.126
26412WAT      O79477   8.550   5.915   4.916
26412WAT     H179478   8.563   5.840   4.852
26412WAT     H279479   8.565   6.002   4.870
26413WAT      O79480   2.495   3.870   5.692
26413WAT     H179481   2.546   3.924   5.758
26413WAT     H279482   2.548   3.860   5.608
26414WAT      O79483   0.849   9.797   7.107
26414WAT     H179484   0.754   9.794   7.140
26414WAT     H279485   0.865   9.719   7.047
26415WAT      O79486   6.476   4.142   5.510
26415WAT     H179487   6.568   4.106   5.495
26415WAT     H279488   6.481   4.227   5.563
26416WAT      O79489   6.743   0.104   8.672
26416WAT     H179490   6.840   0.099   8.693
26416WAT     H279491   6.697   0.165   8.736
26417WAT      O79492   7.447   7.327   5.190
26417WAT     H179493   7.380   7.289   5.253
26417WAT     H279494   7.428   7.424   5.176
26418WAT      O79495   9.039   4.512   6.583
26418WAT     H179496   9.005   4.518   6.677
26418WAT     H279497   9.088   4.426   6.570
26419WAT      O79498   1.778   0.087   5.114
26419WAT     H179499   1.856   0.066   5.056
26419WAT     H279500   1.694   0.052   5.072
26420WAT      O79501   1.819   9.078   2.974
26420WAT     H179502   1.841   8.982   2.991
26420WAT     H279503   1.799   9.124   3.061
26421WAT      O79504   9.085   6.838   5.451
26421WAT     H179505   8.988   6.813   5.453
26421WAT     H279506   9.140   6.755   5.441
26422WAT      O79507   8.271   6.892   0.805
26422WAT     H179508   8.233   6.832   0.876
26422WAT     H279509   8.353   6.850   0.766
26423WAT      O79510   1.389   8.844   3.656
26423WAT     H179511   1.344   8.858   3.568
26423WAT     H279512   1.439   8.757   3.654
26424WAT      O79513   1.100   1.600   4.893
26424WAT     H179514   1.006   1.565   4.892
26424WAT     H279515   1.163   1.523   4.906
26425WAT      O79516   3.176   7.086   0.488
26425WAT     H179517   3.194   7.128   0.398
26425WAT     H279518   3.246   7.018   0.507
26426WAT      O79519   2.661   2.203   2.139
26426WAT     H179520   2.669   2.271   2.211
26426WAT     H279521   2.674   2.112   2.178
26427WAT      O79522   1.420   8.641   6.230
26427WAT     H179523   1.445   8.549   6.259
26427WAT     H279524   1.501   8.689   6.197
26428WAT      O79525   1.409   4.181   2.232
26428WAT     H179526   1.400   4.280   2.232
26428WAT     H279527   1.493   4.155   2.280
26429WAT      O79528   7.476   4.644   0.928
26429WAT     H179529   7.466   4.598   0.840
26429WAT     H279530   7.385   4.655   0.970
26430WAT      O79531   4.377   8.434   8.216
26430WAT     H179532   4.361   8.424   8.118
26430WAT     H279533   4.370   8.345   8.261
26431WAT      O79534   1.663   1.747   2.514
26431WAT     H179535   1.700   1.839   2.500
26431WAT     H279536   1.714   1.700   2.586
26432WAT      O79537   4.255   5.800   5.254
26432WAT     H179538   4.254   5.750   5.340
26432WAT     H279539   4.319   5.757   5.191
26433WAT      O79540   7.815   9.155   7.180
26433WAT     H179541   7.751   9.079   7.196
26433WAT     H279542   7.824   9.171   7.082
26434WAT      O79543   7.436   4.392   3.201
26434WAT     H179544   7.459   4.419   3.294
26434WAT     H279545   7.406   4.296   3.201
26435WAT      O79546   5.160   2.092   9.816
26435WAT     H179547   5.117   2.017   9.866
26435WAT     H279548   5.259   2.076   9.809
26436WAT      O79549   5.595   1.257   9.372
26436WAT     H179550   5.586   1.335   9.311
26436WAT     H279551   5.516   1.197   9.363
26437WAT      O79552   1.051   6.428   2.723
26437WAT     H179553   1.065   6.348   2.783
26437WAT     H279554   0.959   6.464   2.737
26438WAT      O79555   2.073   5.390   1.132
26438WAT     H179556   2.141   5.319   1.115
26438WAT     H279557   1.982   5.348   1.136
26439WAT      O79558   1.026   2.143   4.099
26439WAT     H179559   0.954   2.211   4.115
26439WAT     H279560   1.031   2.123   4.001
26440WAT      O79561   5.664   6.038   7.948
26440WAT     H179562   5.613   6.109   7.900
26440WAT     H279563   5.709   6.078   8.028
26441WAT      O79564   7.176   3.111   2.645
26441WAT     H179565   7.163   3.013   2.660
26441WAT     H279566   7.088   3.158   2.653
26442WAT      O79567   6.905   6.280   4.526
26442WAT     H179568   6.997   6.246   4.545
26442WAT     H279569   6.845   6.259   4.603
26443WAT      O79570   9.061   0.120   7.716
26443WAT     H179571   9.067   0.171   7.631
26443WAT     H279572   8.970   0.080   7.725
26444WAT      O79573   2.457   8.303   3.021
26444WAT     H179574   2.405   8.272   3.100
26444WAT     H279575   2.402   8.368   2.968
26445WAT      O79576   7.971   1.733   0.508
26445WAT     H179577   7.902   1.690   0.449
26445WAT     H279578   8.057   1.683   0.501
26446WAT      O79579   7.442   1.184   2.317
26446WAT     H179580   7.513   1.248   2.289
26446WAT     H279581   7.368   1.233   2.363
26447WAT      O79582   0.860   0.569   6.454
26447WAT     H179583   0.888   0.658   6.418
26447WAT     H279584   0.845   0.577   6.553
26448WAT      O79585   6.327   2.967   0.948
26448WAT     H179586   6.295   2.992   1.039
26448WAT     H279587   6.395   3.034   0.917
26449WAT      O79588   1.938   9.536   8.898
26449WAT     H179589   1.969   9.611   8.957
26449WAT     H279590   1.991   9.536   8.814
26450WAT      O79591   9.308   8.631   2.244
26450WAT     H179592   9.224   8.654   2.294
26450WAT     H279593   9.313   8.532   2.232
26451WAT      O79594   0.311   6.457   1.754
26451WAT     H179595   0.249   6.509   1.814
26451WAT     H279596   0.391   6.428   1.807
26452WAT      O79597   4.718   5.831   8.394
26452WAT     H179598   4.661   5.911   8.376
26452WAT     H279599   4.669   5.770   8.456
26453WAT      O79600   4.400   2.345   3.808
26453WAT     H179601   4.424   2.436   3.776
26453WAT     H279602   4.353   2.352   3.896
26454WAT      O79603   6.154   1.498   1.270
26454WAT     H179604   6.066   1.530   1.234
26454WAT     H279605   6.162   1.525   1.366
26455WAT      O79606   0.592   5.735   4.922
26455WAT     H179607   0.656   5.700   4.854
26455WAT     H279608   0.586   5.671   4.998
26456WAT      O79609   8.762   1.189   2.278
26456WAT     H179610   8.815   1.170   2.195
26456WAT     H279611   8.741   1.103   2.325
26457WAT      O79612   2.528   3.269   7.377
26457WAT     H179613   2.457   3.299   7.313
26457WAT     H279614   2.598   3.339   7.385
26458WAT      O79615   4.079   7.775   3.502
26458WAT     H179616   4.114   7.868   3.490
26458WAT     H279617   3.993   7.778   3.554
26459WAT      O79618   2.775   1.077   3.930
26459WAT     H179619   2.867   1.091   3.894
26459WAT     H279620   2.766   0.985   3.966
26460WAT      O79621   6.708   7.970   0.607
26460WAT     H179622   6.666   7.922   0.530
26460WAT     H279623   6.803   7.940   0.617
26461WAT      O79624   1.371   5.519   3.051
26461WAT     H179625   1.403   5.452   3.118
26461WAT     H279626   1.447   5.545   2.990
26462WAT      O79627   1.340   6.637   7.172
26462WAT     H179628   1.252   6.599   7.143
26462WAT     H279629   1.402   6.562   7.196
26463WAT      O79630   5.724   1.715   4.094
26463WAT     H179631   5.763   1.668   4.174
26463WAT     H279632   5.625   1.719   4.102
26464WAT      O79633   7.562   2.378   3.600
26464WAT     H179634   7.603   2.287   3.592
26464WAT     H279635   7.479   2.382   3.545
26465WAT      O79636   0.866   8.850   0.252
26465WAT     H179637   0.770   8.831   0.232
26465WAT     H279638   0.914   8.874   0.168
26466WAT      O79639   1.954   9.214   0.156
26466WAT     H179640   1.907   9.164   0.228
26466WAT     H279641   1.904   9.299   0.136
26467WAT      O79642   4.463   5.041   8.358
26467WAT     H179643   4.409   5.061   8.440
26467WAT     H279644   4.419   5.084   8.279
26468WAT      O79645   3.394   4.351   4.202
26468WAT     H179646   3.430   4.438   4.235
26468WAT     H279647   3.375   4.357   4.105
26469WAT      O79648   3.444   0.183   2.439
26469WAT     H179649   3.492   0.097   2.455
26469WAT     H279650   3.504   0.260   2.462
26470WAT      O79651   9.705   0.384   3.650
26470WAT     H179652   9.640   0.390   3.575
26470WAT     H279653   9.752   0.296   3.647
26471WAT      O79654   4.083   3.548   1.958
26471WAT     H179655   4.083   3.621   2.026
26471WAT     H279656   3.996   3.550   1.908
26472WAT      O79657   3.144   9.380   5.437
26472WAT     H179658   3.101   9.470   5.443
26472WAT     H279659   3.097   9.324   5.369
26473WAT      O79660   0.997   6.575   3.862
26473WAT     H179661   1.042   6.664   3.858
26473WAT     H279662   0.920   6.580   3.925
26474WAT      O79663   0.799   7.062   3.175
26474WAT     H179664   0.803   7.052   3.274
26474WAT     H279665   0.892   7.054   3.138
26475WAT      O79666   2.268   0.820   8.622
26475WAT     H179667   2.318   0.742   8.585
26475WAT     H279668   2.333   0.888   8.658
26476WAT      O79669   4.391   1.943   5.764
26476WAT     H179670   4.317   1.976   5.822
26476WAT     H279671   4.386   1.988   5.675
26477WAT      O79672   9.130   1.623   7.280
26477WAT     H179673   9.128   1.643   7.182
26477WAT     H279674   9.210   1.666   7.322
26478WAT      O79675   3.911   0.401   0.439
26478WAT     H179676   3.925   0.302   0.436
26478WAT     H279677   3.995   0.448   0.415
26479WAT      O79678   1.686   8.027   2.868
26479WAT     H179679   1.605   8.029   2.928
26479WAT     H279680   1.701   8.117   2.828
26480WAT      O79681   9.862   4.520   9.198
26480WAT     H179682   9.860   4.594   9.265
26480WAT     H279683   9.926   4.450   9.226
26481WAT      O79684   0.892   1.308   5.426
26481WAT     H179685   0.992   1.307   5.426
26481WAT     H279686   0.859   1.377   5.490
26482WAT      O79687   5.157   8.111   8.206
26482WAT     H179688   5.231   8.057   8.247
26482WAT     H279689   5.179   8.208   8.214
26483WAT      O79690   7.728   4.123   7.651
26483WAT     H179691   7.635   4.149   7.677
26483WAT     H279692   7.770   4.197   7.599
26484WAT      O79693   2.060   2.017   7.250
26484WAT     H179694   2.106   1.963   7.320
26484WAT     H279695   2.037   2.107   7.287
26485WAT      O79696   1.236   9.420   0.360
26485WAT     H179697   1.312   9.364   0.331
26485WAT     H279698   1.270   9.502   0.406
26486WAT      O79699   3.198   0.071   7.063
26486WAT     H179700   3.262   0.139   7.027
26486WAT     H279701   3.136   0.115   7.128
26487WAT      O79702   0.664   0.367   3.306
26487WAT     H179703   0.728   0.319   3.366
26487WAT     H279704   0.594   0.412   3.362
26488WAT      O79705   4.497   9.503   1.123
26488WAT     H179706   4.517   9.577   1.059
26488WAT     H279707   4.582   9.467   1.160
26489WAT      O79708   3.592   5.496   7.919
26489WAT     H179709   3.673   5.543   7.884
26489WAT     H279710   3.612   5.455   8.008
26490WAT      O79711   8.029   0.310   2.996
26490WAT     H179712   8.073   0.261   2.921
26490WAT     H279713   8.017   0.406   2.971
26491WAT      O79714   8.636   7.787   1.397
26491WAT     H179715   8.665   7.883   1.407
26491WAT     H279716   8.587   7.777   1.310
26492WAT      O79717   9.192   1.913   2.105
26492WAT     H179718   9.103   1.871   2.123
26492WAT     H279719   9.178   2.007   2.072
26493WAT      O79720   0.544   6.528   6.702
26493WAT     H179721   0.559   6.483   6.790
26493WAT     H279722   0.471   6.596   6.711
26494WAT      O79723   4.799   2.748   8.151
26494WAT     H179724   4.715   2.752   8.097
26494WAT     H279725   4.854   2.670   8.121
26495WAT      O79726   4.579   3.762   9.141
26495WAT     H179727   4.505   3.761   9.208
26495WAT     H279728   4.569   3.842   9.081
26496WAT      O79729   6.282   7.237   1.836
26496WAT     H179730   6.262   7.334   1.850
26496WAT     H279731   6.209   7.195   1.783
26497WAT      O79732   0.053   2.361   7.979
26497WAT     H179733  -0.023   2.326   7.924
26497WAT     H279734   0.049   2.461   7.980
26498WAT      O79735   5.319   3.115   7.056
26498WAT     H179736   5.377   3.166   7.120
26498WAT     H279737   5.331   3.150   6.964
26499WAT      O79738   4.642   2.919   9.151
26499WAT     H179739   4.695   2.851   9.101
26499WAT     H279740   4.546   2.888   9.157
26500WAT      O79741   5.300   0.477   0.221
26500WAT     H179742   5.209   0.516   0.232
26500WAT     H279743   5.369   0.544   0.251
26501WAT      O79744   3.508   6.609   0.491
26501WAT     H179745   3.539   6.679   0.426
26501WAT     H279746   3.548   6.521   0.466
26502WAT      O79747   8.251   7.449   5.448
26502WAT     H179748   8.178   7.518   5.440
26502WAT     H279749   8.340   7.495   5.445
26503WAT      O79750   7.828   8.162   5.472
26503WAT     H179751   7.913   8.113   5.495
26503WAT     H279752   7.759   8.096   5.444
26504WAT      O79753   9.626   7.897   7.652
26504WAT     H179754   9.706   7.882   7.709
26504WAT     H279755   9.594   7.809   7.616
26505WAT      O79756   5.259   6.301   2.428
26505WAT     H179757   5.340   6.331   2.378
26505WAT     H279758   5.266   6.330   2.524
26506WAT      O79759   8.697   7.001   0.245
26506WAT     H179760   8.739   6.912   0.265
26506WAT     H279761   8.721   7.066   0.316
26507WAT      O79762   8.299   4.463   5.079
26507WAT     H179763   8.234   4.405   5.031
26507WAT     H279764   8.317   4.545   5.025
26508WAT      O79765   7.278   8.997   3.191
26508WAT     H179766   7.270   9.096   3.181
26508WAT     H279767   7.331   8.960   3.115
26509WAT      O79768   7.274   6.828   9.136
26509WAT     H179769   7.244   6.742   9.178
26509WAT     H279770   7.345   6.869   9.193
26510WAT      O79771   0.054   5.387   8.698
26510WAT     H179772   0.040   5.479   8.660
26510WAT     H279773   0.136   5.387   8.754
26511WAT      O79774   2.588   4.893   1.136
26511WAT     H179775   2.606   4.815   1.196
26511WAT     H279776   2.638   4.973   1.170
26512WAT      O79777   2.739   4.298   0.762
26512WAT     H179778   2.693   4.259   0.842
26512WAT     H279779   2.672   4.334   0.698
26513WAT      O79780   2.763   1.304   4.858
26513WAT     H179781   2.795   1.260   4.774
26513WAT     H279782   2.828   1.284   4.932
26514WAT      O79783   5.128   4.084   0.829
26514WAT     H179784   5.163   4.157   0.888
26514WAT     H279785   5.068   4.124   0.760
26515WAT      O79786   8.004   2.010   3.860
26515WAT     H179787   8.083   1.951   3.840
26515WAT     H279788   8.024   2.104   3.833
26516WAT      O79789   0.832   0.107   5.660
26516WAT     H179790   0.789   0.153   5.582
26516WAT     H279791   0.761   0.063   5.716
26517WAT      O79792   5.268   2.600   2.761
26517WAT     H179793   5.348   2.660   2.765
26517WAT     H279794   5.240   2.575   2.854
26518WAT      O79795   0.434   9.279   1.344
26518WAT     H179796   0.355   9.229   1.308
26518WAT     H279797   0.512   9.216   1.353
26519WAT      O79798   8.329   0.021   7.473
26519WAT     H179799   8.346  -0.007   7.379
26519WAT     H279800   8.242  -0.017   7.504
26520WAT      O79801   2.151   9.130   5.014
26520WAT     H179802   2.138   9.055   5.078
26520WAT     H279803   2.142   9.217   5.062
26521WAT      O79804   4.716   7.519   3.530
26521WAT     H179805   4.805   7.480   3.508
26521WAT     H279806   4.666   7.456   3.589
26522WAT      O79807   5.008   0.166   5.373
26522WAT     H179808   4.973   0.112   5.295
26522WAT     H279809   5.007   0.109   5.455
26523WAT      O79810   3.665   7.681   3.959
26523WAT     H179811   3.755   7.656   3.924
26523WAT     H279812   3.640   7.772   3.925
26524WAT      O79813   1.133   7.869   9.453
26524WAT     H179814   1.059   7.918   9.500
26524WAT     H279815   1.095   7.797   9.396
26525WAT      O79816   6.285   4.915   7.499
26525WAT     H179817   6.211   4.859   7.536
26525WAT     H279818   6.369   4.898   7.549
26526WAT      O79819   8.075   4.734   7.949
26526WAT     H179820   7.977   4.753   7.937
26526WAT     H279821   8.086   4.646   7.997
26527WAT      O79822   1.332   5.488   4.608
26527WAT     H179823   1.273   5.434   4.668
26527WAT     H279824   1.411   5.434   4.581
26528WAT      O79825   1.512   2.735   6.546
26528WAT     H179826   1.449   2.658   6.561
26528WAT     H279827   1.459   2.817   6.526
26529WAT      O79828   5.449   4.728   8.990
26529WAT     H179829   5.500   4.643   9.002
26529WAT     H279830   5.443   4.749   8.892
26530WAT      O79831   5.630   2.830   9.360
26530WAT     H179832   5.596   2.771   9.287
26530WAT     H279833   5.700   2.891   9.323
26531WAT      O79834   4.590   9.256   4.182
26531WAT     H179835   4.554   9.188   4.245
26531WAT     H279836   4.642   9.324   4.233
26532WAT      O79837   8.201   6.490   7.215
26532WAT     H179838   8.224   6.453   7.125
26532WAT     H279839   8.283   6.499   7.270
26533WAT      O79840   4.054   8.086   4.053
26533WAT     H179841   4.116   8.024   4.006
26533WAT     H279842   4.039   8.054   4.146
26534WAT      O79843   9.734   0.721   1.247
26534WAT     H179844   9.797   0.784   1.201
26534WAT     H279845   9.712   0.646   1.184
26535WAT      O79846   0.773   5.208   4.616
26535WAT     H179847   0.699   5.152   4.652
26535WAT     H279848   0.786   5.188   4.518
26536WAT      O79849   7.173   0.685   4.152
26536WAT     H179850   7.212   0.775   4.132
26536WAT     H279851   7.092   0.696   4.210
26537WAT      O79852   5.956   3.733   3.524
26537WAT     H179853   5.876   3.738   3.463
26537WAT     H279854   5.952   3.648   3.577
26538WAT      O79855   0.801   9.755   3.726
26538WAT     H179856   0.767   9.662   3.709
26538WAT     H279857   0.735   9.821   3.690
26539WAT      O79858   1.634   5.126   6.869
26539WAT     H179859   1.587   5.054   6.820
26539WAT     H279860   1.568   5.178   6.924
26540WAT      O79861   2.731   8.204   5.022
26540WAT     H179862   2.750   8.212   5.120
26540WAT     H279863   2.752   8.290   4.977
26541WAT      O79864   4.234   6.745   9.512
26541WAT     H179865   4.139   6.716   9.501
26541WAT     H279866   4.241   6.809   9.588
26542WAT      O79867   7.053   7.538   1.489
26542WAT     H179868   6.987   7.498   1.552
26542WAT     H279869   7.143   7.543   1.533
26543WAT      O79870   6.801   8.331   7.987
26543WAT     H179871   6.766   8.251   8.035
26543WAT     H279872   6.802   8.409   8.050
26544WAT      O79873   7.988   9.671   8.723
26544WAT     H179874   7.922   9.610   8.678
26544WAT     H279875   7.990   9.758   8.675
26545WAT      O79876   3.433   8.541   3.877
26545WAT     H179877   3.448   8.608   3.950
26545WAT     H279878   3.519   8.525   3.829
26546WAT      O79879   5.853   5.701   8.518
26546WAT     H179880   5.813   5.667   8.603
26546WAT     H279881   5.935   5.755   8.539
26547WAT      O79882   8.276   5.683   9.152
26547WAT     H179883   8.220   5.677   9.235
26547WAT     H279884   8.361   5.732   9.173
26548WAT      O79885   2.865   2.834   8.683
26548WAT     H179886   2.955   2.822   8.640
26548WAT     H279887   2.819   2.913   8.644
26549WAT      O79888   3.111   8.368   1.311
26549WAT     H179889   3.018   8.334   1.326
26549WAT     H279890   3.173   8.324   1.377
26550WAT      O79891   0.352   5.228   2.510
26550WAT     H179892   0.373   5.317   2.471
26550WAT     H279893   0.393   5.156   2.455
26551WAT      O79894   7.850   8.028   2.729
26551WAT     H179895   7.861   8.057   2.634
26551WAT     H279896   7.856   7.928   2.733
26552WAT      O79897   6.258   3.390   3.992
26552WAT     H179898   6.222   3.423   3.905
26552WAT     H279899   6.259   3.290   3.992
26553WAT      O79900   1.645   3.190   0.126
26553WAT     H179901   1.617   3.142   0.043
26553WAT     H279902   1.589   3.272   0.137
26554WAT      O79903   8.791   7.958   2.030
26554WAT     H179904   8.802   7.859   2.041
26554WAT     H279905   8.749   7.996   2.112
26555WAT      O79906   2.627   1.783   4.510
26555WAT     H179907   2.652   1.761   4.416
26555WAT     H279908   2.659   1.711   4.571
26556WAT      O79909   8.721   4.977   1.769
26556WAT     H179910   8.781   4.976   1.849
26556WAT     H279911   8.757   4.914   1.700
26557WAT      O79912   6.344   1.587   1.721
26557WAT     H179913   6.410   1.660   1.703
26557WAT     H279914   6.281   1.579   1.644
26558WAT      O79915   2.415   5.236   1.599
26558WAT     H179916   2.391   5.318   1.548
26558WAT     H279917   2.411   5.255   1.697
26559WAT      O79918   0.141   9.552   7.870
26559WAT     H179919   0.145   9.479   7.937
26559WAT     H279920   0.121   9.514   7.780
26560WAT      O79921   5.725   6.048   5.641
26560WAT     H179922   5.653   5.982   5.666
26560WAT     H279923   5.748   6.103   5.720
26561WAT      O79924   9.769   7.230   7.538
26561WAT     H179925   9.721   7.171   7.473
26561WAT     H279926   9.867   7.232   7.515
26562WAT      O79927   2.093   9.676   1.347
26562WAT     H179928   2.013   9.678   1.407
26562WAT     H279929   2.168   9.627   1.392
26563WAT      O79930   7.200   5.641   1.660
26563WAT     H179931   7.207   5.617   1.563
26563WAT     H279932   7.170   5.561   1.712
26564WAT      O79933   2.625   4.125   2.987
26564WAT     H179934   2.691   4.162   2.922
26564WAT     H279935   2.533   4.138   2.952
26565WAT      O79936   9.815   3.043   6.600
26565WAT     H179937   9.766   3.119   6.557
26565WAT     H279938   9.752   2.989   6.655
26566WAT      O79939   3.004   7.970   6.143
26566WAT     H179940   2.968   7.883   6.175
26566WAT     H279941   3.066   7.954   6.066
26567WAT      O79942   1.361   1.689   8.958
26567WAT     H179943   1.294   1.628   9.001
26567WAT     H279944   1.435   1.708   9.021
26568WAT      O79945   6.831   6.296   1.646
26568WAT     H179946   6.905   6.346   1.691
26568WAT     H279947   6.750   6.354   1.641
26569WAT      O79948   0.521   5.138   9.114
26569WAT     H179949   0.428   5.174   9.104
26569WAT     H279950   0.587   5.207   9.085
26570WAT      O79951   6.954   7.232   7.289
26570WAT     H179952   6.948   7.181   7.374
26570WAT     H279953   6.960   7.329   7.308
26571WAT      O79954   4.638   3.538   2.958
26571WAT     H179955   4.670   3.556   3.052
26571WAT     H279956   4.717   3.537   2.897
26572WAT      O79957   5.151   7.994   2.848
26572WAT     H179958   5.129   7.941   2.930
26572WAT     H279959   5.251   8.000   2.838
26573WAT      O79960   8.052   3.211   3.564
26573WAT     H179961   8.144   3.242   3.586
26573WAT     H279962   8.027   3.241   3.472
26574WAT      O79963   1.018   4.858   8.851
26574WAT     H179964   1.039   4.935   8.789
26574WAT     H279965   1.081   4.783   8.833
26575WAT      O79966   2.571   9.202   6.803
26575WAT     H179967   2.663   9.238   6.820
26575WAT     H279968   2.543   9.226   6.710
26576WAT      O79969   6.659   1.609   6.432
26576WAT     H179970   6.693   1.622   6.339
26576WAT     H279971   6.578   1.665   6.446
26577WAT      O79972   6.870   0.725   2.849
26577WAT     H179973   6.923   0.805   2.877
26577WAT     H279974   6.801   0.753   2.782
26578WAT      O79975   9.559   5.092   0.173
26578WAT     H179976   9.650   5.083   0.132
26578WAT     H279977   9.535   5.189   0.180
26579WAT      O79978   6.071   5.818   6.813
26579WAT     H179979   6.059   5.800   6.911
26579WAT     H279980   6.107   5.737   6.768
26580WAT      O79981   5.522   5.387   0.797
26580WAT     H179982   5.569   5.417   0.880
26580WAT     H279983   5.560   5.434   0.717
26581WAT      O79984   1.083   6.765   7.949
26581WAT     H179985   1.121   6.677   7.920
26581WAT     H279986   1.131   6.840   7.903
26582WAT      O79987   3.573   6.083   5.249
26582WAT     H179988   3.547   6.044   5.338
26582WAT     H279989   3.669   6.108   5.249
26583WAT      O79990   7.088   7.342   3.142
26583WAT     H179991   7.122   7.359   3.235
26583WAT     H279992   7.135   7.404   3.078
26584WAT      O79993   5.995   4.132   9.712
26584WAT     H179994   5.959   4.203   9.652
26584WAT     H279995   5.981   4.042   9.669
26585WAT      O79996   7.828   7.244   9.679
26585WAT     H179997   7.841   7.328   9.732
26585WAT     H279998   7.740   7.247   9.633
26586WAT      O79999   2.168   1.104   9.063
26586WAT     H180000   2.096   1.132   8.999
26586WAT     H280001   2.127   1.081   9.151
26587WAT      O80002   5.543   3.739   9.263
26587WAT     H180003   5.508   3.646   9.275
26587WAT     H280004   5.538   3.788   9.350
26588WAT      O80005   8.941   8.139   8.116
26588WAT     H180006   8.988   8.058   8.148
26588WAT     H280007   8.983   8.172   8.032
26589WAT      O80008   1.714   6.277   6.444
26589WAT     H180009   1.788   6.346   6.445
26589WAT     H280010   1.728   6.215   6.367
26590WAT      O80011   0.949   3.562   0.790
26590WAT     H180012   0.881   3.512   0.844
26590WAT     H280013   0.927   3.660   0.792
26591WAT      O80014   6.261   1.080   7.522
26591WAT     H180015   6.311   1.150   7.573
26591WAT     H280016   6.252   0.998   7.579
26592WAT      O80017   8.280   1.162   8.754
26592WAT     H180018   8.197   1.112   8.780
26592WAT     H280019   8.256   1.235   8.689
26593WAT      O80020   3.597   2.115   1.219
26593WAT     H180021   3.542   2.107   1.136
26593WAT     H280022   3.606   2.211   1.245
26594WAT      O80023   2.264   1.252   5.189
26594WAT     H180024   2.185   1.207   5.230
26594WAT     H280025   2.289   1.204   5.105
26595WAT      O80026   8.823   6.174   0.961
26595WAT     H180027   8.892   6.212   0.899
26595WAT     H280028   8.859   6.172   1.054
26596WAT      O80029   5.258   4.650   7.442
26596WAT     H180030   5.244   4.733   7.389
26596WAT     H280031   5.356   4.638   7.458
26597WAT      O80032   6.795   3.733   9.677
26597WAT     H180033   6.856   3.750   9.754
26597WAT     H280034   6.705   3.772   9.697
26598WAT      O80035   5.203   4.434   1.921
26598WAT     H180036   5.255   4.349   1.927
26598WAT     H280037   5.253   4.507   1.968
26599WAT      O80038   2.424   2.777   5.908
26599WAT     H180039   2.377   2.845   5.963
26599WAT     H280040   2.404   2.792   5.811
26600WAT      O80041   3.582   0.946   1.386
26600WAT     H180042   3.632   1.027   1.416
26600WAT     H280043   3.564   0.886   1.464
26601WAT      O80044   2.720   3.100   9.165
26601WAT     H180045   2.753   3.083   9.258
26601WAT     H280046   2.696   3.197   9.156
26602WAT      O80047   3.886   6.515   3.349
26602WAT     H180048   3.848   6.519   3.257
26602WAT     H280049   3.818   6.475   3.411
26603WAT      O80050   6.457   4.104   3.086
26603WAT     H180051   6.450   4.185   3.144
26603WAT     H280052   6.410   4.123   2.999
26604WAT      O80053   5.889   8.782   6.001
26604WAT     H180054   5.977   8.830   5.997
26604WAT     H280055   5.874   8.733   5.916
26605WAT      O80056   8.424   5.631   4.831
26605WAT     H180057   8.421   5.573   4.913
26605WAT     H280058   8.519   5.648   4.806
26606WAT      O80059   7.353   3.292   1.311
26606WAT     H180060   7.322   3.381   1.345
26606WAT     H280061   7.452   3.284   1.326
26607WAT      O80062   0.400   1.144   8.846
26607WAT     H180063   0.435   1.061   8.890
26607WAT     H280064   0.340   1.119   8.771
26608WAT      O80065   4.562   5.267   1.676
26608WAT     H180066   4.518   5.187   1.636
26608WAT     H280067   4.654   5.243   1.708
26609WAT      O80068   7.400   4.568   7.529
26609WAT     H180069   7.326   4.611   7.581
26609WAT     H280070   7.361   4.513   7.455
26610WAT      O80071   0.348   4.684   2.214
26610WAT     H180072   0.349   4.784   2.226
26610WAT     H280073   0.415   4.658   2.146
26611WAT      O80074   6.431   6.979   7.497
26611WAT     H180075   6.356   7.018   7.549
26611WAT     H280076   6.434   7.021   7.406
26612WAT      O80077   2.004   5.738   3.791
26612WAT     H180078   1.968   5.741   3.884
26612WAT     H280079   2.094   5.781   3.788
26613WAT      O80080   3.356   3.485   0.616
26613WAT     H180081   3.455   3.473   0.611
26613WAT     H280082   3.326   3.549   0.545
26614WAT      O80083   7.287   8.545   0.178
26614WAT     H180084   7.332   8.617   0.231
26614WAT     H280085   7.211   8.585   0.126
26615WAT      O80086   1.089   7.467   0.772
26615WAT     H180087   1.118   7.558   0.800
26615WAT     H280088   1.127   7.399   0.835
26616WAT      O80089   6.390   1.706   1.984
26616WAT     H180090   6.379   1.659   1.897
26616WAT     H280091   6.472   1.763   1.981
26617WAT      O80092   9.376   6.029   4.607
26617WAT     H180093   9.347   6.083   4.529
26617WAT     H280094   9.474   6.013   4.602
26618WAT      O80095   8.071   7.742   2.207
26618WAT     H180096   7.980   7.729   2.167
26618WAT     H280097   8.131   7.670   2.173
26619WAT      O80098   5.983   1.326   7.525
26619WAT     H180099   6.016   1.295   7.615
26619WAT     H280100   5.958   1.423   7.530
26620WAT      O80101   4.106   0.800   7.584
26620WAT     H180102   4.171   0.826   7.512
26620WAT     H280103   4.081   0.882   7.637
26621WAT      O80104   3.217   3.482   2.822
26621WAT     H180105   3.151   3.454   2.752
26621WAT     H280106   3.191   3.442   2.910
26622WAT      O80107   8.948   4.153   7.296
26622WAT     H180108   9.038   4.159   7.253
26622WAT     H280109   8.889   4.225   7.260
26623WAT      O80110   1.769   4.696   7.214
26623WAT     H180111   1.823   4.627   7.167
26623WAT     H280112   1.745   4.769   7.150
26624WAT      O80113   9.401   3.244   4.842
26624WAT     H180114   9.363   3.281   4.757
26624WAT     H280115   9.328   3.236   4.910
26625WAT      O80116   4.463   5.032   6.538
26625WAT     H180117   4.479   4.959   6.604
26625WAT     H280118   4.550   5.069   6.506
26626WAT      O80119   0.978   4.981   9.109
26626WAT     H180120   0.997   4.918   9.033
26626WAT     H280121   0.938   5.065   9.072
26627WAT      O80122   3.914   8.175   1.971
26627WAT     H180123   4.000   8.220   1.947
26627WAT     H280124   3.876   8.130   1.890
26628WAT      O80125   3.173   0.002   0.737
26628WAT     H180126   3.215  -0.062   0.672
26628WAT     H280127   3.091   0.041   0.696
26629WAT      O80128   0.381   8.615   5.222
26629WAT     H180129   0.395   8.611   5.123
26629WAT     H280130   0.321   8.540   5.250
26630WAT      O80131   8.083   9.575   0.528
26630WAT     H180132   8.098   9.592   0.431
26630WAT     H280133   7.992   9.607   0.554
26631WAT      O80134   9.067   8.963   0.308
26631WAT     H180135   9.030   8.974   0.216
26631WAT     H280136   9.079   9.053   0.350
26632WAT      O80137   5.057   2.498   2.632
26632WAT     H180138   4.971   2.546   2.614
26632WAT     H280139   5.124   2.562   2.669
26633WAT      O80140   4.594   3.949   8.606
26633WAT     H180141   4.560   4.042   8.596
26633WAT     H280142   4.552   3.907   8.687
26634WAT      O80143   9.346   3.937   5.274
26634WAT     H180144   9.378   3.891   5.357
26634WAT     H280145   9.353   4.036   5.287
26635WAT      O80146   1.126   0.129   6.131
26635WAT     H180147   1.038   0.158   6.093
26635WAT     H280148   1.113   0.096   6.225
26636WAT      O80149   3.391   6.741   8.551
26636WAT     H180150   3.308   6.748   8.495
26636WAT     H280151   3.471   6.736   8.492
26637WAT      O80152   7.427   2.357   6.494
26637WAT     H180153   7.358   2.429   6.494
26637WAT     H280154   7.426   2.309   6.582
26638WAT      O80155   8.900   9.410   7.659
26638WAT     H180156   8.874   9.433   7.565
26638WAT     H280157   8.861   9.478   7.721
26639WAT      O80158   3.166   5.474   5.974
26639WAT     H180159   3.100   5.509   6.041
26639WAT     H280160   3.240   5.427   6.021
26640WAT      O80161   4.476   2.014   7.197
26640WAT     H180162   4.396   2.001   7.256
26640WAT     H280163   4.560   2.005   7.252
26641WAT      O80164   3.732   2.871   7.254
26641WAT     H180165   3.678   2.955   7.265
26641WAT     H280166   3.677   2.793   7.283
26642WAT      O80167   8.752   1.913   7.217
26642WAT     H180168   8.701   1.877   7.139
26642WAT     H280169   8.848   1.923   7.191
26643WAT      O80170   4.245   0.079   2.990
26643WAT     H180171   4.209   0.067   2.897
26643WAT     H280172   4.291  -0.005   3.019
26644WAT      O80173   1.526   1.116   8.103
26644WAT     H180174   1.436   1.146   8.137
26644WAT     H280175   1.542   1.021   8.132
26645WAT      O80176   0.495   2.440   9.665
26645WAT     H180177   0.589   2.472   9.657
26645WAT     H280178   0.446   2.461   9.580
26646WAT      O80179   7.594   2.366   0.882
26646WAT     H180180   7.692   2.378   0.865
26646WAT     H280181   7.568   2.418   0.964
26647WAT      O80182   5.923   2.080   5.934
26647WAT     H180183   5.922   2.136   6.018
26647WAT     H280184   6.017   2.070   5.903
26648WAT      O80185   7.184   9.270   5.390
26648WAT     H180186   7.129   9.326   5.328
26648WAT     H280187   7.135   9.256   5.476
26649WAT      O80188   2.169   0.386   4.398
26649WAT     H180189   2.099   0.326   4.359
26649WAT     H280190   2.259   0.356   4.367
26650WAT      O80191   1.212   1.767   7.119
26650WAT     H180192   1.219   1.670   7.098
26650WAT     H280193   1.177   1.779   7.212
26651WAT      O80194   7.970   8.166   2.212
26651WAT     H180195   8.007   8.108   2.139
26651WAT     H280196   8.043   8.189   2.276
26652WAT      O80197   1.465   3.292   8.768
26652WAT     H180198   1.502   3.248   8.850
26652WAT     H280199   1.394   3.234   8.728
26653WAT      O80200   0.326   1.432   0.176
26653WAT     H180201   0.367   1.369   0.242
26653WAT     H280202   0.283   1.380   0.102
26654WAT      O80203   7.282   1.488   3.693
26654WAT     H180204   7.243   1.397   3.681
26654WAT     H280205   7.359   1.484   3.756
26655WAT      O80206   0.128   6.211   6.858
26655WAT     H180207   0.084   6.123   6.876
26655WAT     H280208   0.076   6.283   6.903
26656WAT      O80209   9.490   0.187   4.049
26656WAT     H180210   9.471   0.148   3.959
26656WAT     H280211   9.531   0.278   4.038
26657WAT      O80212   4.088   1.948   7.980
26657WAT     H180213   4.159   1.917   8.044
26657WAT     H280214   4.048   2.033   8.014
26658WAT      O80215   9.636   4.802   5.620
26658WAT     H180216   9.730   4.823   5.594
26658WAT     H280217   9.606   4.719   5.571
26659WAT      O80218   8.722   3.118   5.644
26659WAT     H180219   8.809   3.089   5.685
26659WAT     H280220   8.736   3.201   5.591
26660WAT      O80221   1.940   3.241   6.825
26660WAT     H180222   1.996   3.167   6.785
26660WAT     H280223   1.897   3.293   6.751
26661WAT      O80224   8.774   8.673   6.722
26661WAT     H180225   8.818   8.584   6.732
26661WAT     H280226   8.675   8.660   6.712
26662WAT      O80227   5.831   9.472   4.257
26662WAT     H180228   5.774   9.485   4.177
26662WAT     H280229   5.783   9.414   4.323
26663WAT      O80230   7.342   9.378   6.498
26663WAT     H180231   7.377   9.287   6.522
26663WAT     H280232   7.416   9.432   6.457
26664WAT      O80233   9.690   5.598   0.929
26664WAT     H180234   9.714   5.604   1.026
26664WAT     H280235   9.636   5.678   0.903
26665WAT      O80236   9.301   9.408   2.882
26665WAT     H180237   9.262   9.449   2.799
26665WAT     H280238   9.395   9.441   2.893
26666WAT      O80239   9.529   0.784   4.171
26666WAT     H180240   9.596   0.858   4.185
26666WAT     H280241   9.446   0.805   4.222
26667WAT      O80242   2.668   7.094   5.343
26667WAT     H180243   2.694   7.161   5.413
26667WAT     H280244   2.682   7.134   5.252
26668WAT      O80245   1.366   3.340   3.477
26668WAT     H180246   1.354   3.422   3.533
26668WAT     H280247   1.323   3.262   3.523
26669WAT      O80248   6.164   7.011   6.564
26669WAT     H180249   6.151   7.062   6.649
26669WAT     H280250   6.113   7.056   6.490
26670WAT      O80251   3.726   5.903   9.638
26670WAT     H180252   3.643   5.882   9.689
26670WAT     H280253   3.731   5.845   9.557
26671WAT      O80254   8.193   9.029   8.214
26671WAT     H180255   8.186   8.934   8.185
26671WAT     H280256   8.118   9.082   8.174
26672WAT      O80257   5.185   2.763   5.279
26672WAT     H180258   5.138   2.825   5.342
26672WAT     H280259   5.120   2.730   5.211
26673WAT      O80260   9.174   4.294   8.687
26673WAT     H180261   9.082   4.303   8.725
26673WAT     H280262   9.241   4.321   8.756
26674WAT      O80263   2.332   3.023   7.003
26674WAT     H180264   2.312   3.100   6.943
26674WAT     H280265   2.315   2.937   6.954
26675WAT      O80266   1.139   5.861   0.644
26675WAT     H180267   1.107   5.807   0.566
26675WAT     H280268   1.066   5.923   0.673
26676WAT      O80269   0.497   6.858   1.179
26676WAT     H180270   0.417   6.869   1.238
26676WAT     H280271   0.493   6.769   1.134
26677WAT      O80272   8.887   6.066   0.539
26677WAT     H180273   8.937   6.061   0.625
26677WAT     H280274   8.936   6.126   0.476
26678WAT      O80275   2.892   0.026   8.836
26678WAT     H180276   2.877   0.118   8.799
26678WAT     H280277   2.853  -0.042   8.774
26679WAT      O80278   3.471   8.183   6.120
26679WAT     H180279   3.498   8.143   6.032
26679WAT     H280280   3.375   8.161   6.138
26680WAT      O80281   2.782   0.079   6.542
26680WAT     H180282   2.753  -0.006   6.586
26680WAT     H280283   2.881   0.077   6.528
26681WAT      O80284   5.445   4.999   2.936
26681WAT     H180285   5.345   4.993   2.946
26681WAT     H280286   5.473   4.948   2.854
26682WAT      O80287   6.450   3.839   6.281
26682WAT     H180288   6.395   3.880   6.209
26682WAT     H280289   6.505   3.910   6.325
26683WAT      O80290   3.490   4.576   4.711
26683WAT     H180291   3.568   4.526   4.750
26683WAT     H280292   3.518   4.619   4.625
26684WAT      O80293   5.899   2.110   7.332
26684WAT     H180294   5.919   2.191   7.387
26684WAT     H280295   5.815   2.126   7.280
26685WAT      O80296   5.444   5.797   2.688
26685WAT     H180297   5.527   5.783   2.741
26685WAT     H280298   5.465   5.793   2.591
26686WAT      O80299   9.717   2.293   1.503
26686WAT     H180300   9.733   2.207   1.453
26686WAT     H280301   9.764   2.368   1.457
26687WAT      O80302   7.481   0.179   3.977
26687WAT     H180303   7.434   0.218   3.897
26687WAT     H280304   7.551   0.115   3.945
26688WAT      O80305   0.440   3.401   5.453
26688WAT     H180306   0.411   3.463   5.380
26688WAT     H280307   0.423   3.444   5.542
26689WAT      O80308   0.191   8.376   9.272
26689WAT     H180309   0.224   8.327   9.353
26689WAT     H280310   0.146   8.460   9.300
26690WAT      O80311   7.179   8.825   5.067
26690WAT     H180312   7.110   8.792   5.132
26690WAT     H280313   7.257   8.861   5.117
26691WAT      O80314   2.242   4.962   9.496
26691WAT     H180315   2.218   4.867   9.475
26691WAT     H280316   2.266   5.009   9.411
26692WAT      O80317   9.276   6.174   4.354
26692WAT     H180318   9.230   6.257   4.322
26692WAT     H280319   9.346   6.148   4.288
26693WAT      O80320   9.420   5.112   9.269
26693WAT     H180321   9.489   5.181   9.291
26693WAT     H280322   9.374   5.138   9.184
26694WAT      O80323   8.069   0.043   7.579
26694WAT     H180324   8.015  -0.014   7.516
26694WAT     H280325   8.029   0.134   7.583
26695WAT      O80326   1.569   6.091   1.825
26695WAT     H180327   1.529   6.072   1.736
26695WAT     H280328   1.515   6.047   1.896
26696WAT      O80329   0.726   9.636   2.271
26696WAT     H180330   0.695   9.713   2.214
26696WAT     H280331   0.753   9.670   2.361
26697WAT      O80332   6.803   7.560   5.748
26697WAT     H180333   6.839   7.565   5.654
26697WAT     H280334   6.878   7.574   5.813
26698WAT      O80335   0.533   0.274   1.323
26698WAT     H180336   0.467   0.215   1.277
26698WAT     H280337   0.502   0.369   1.318
26699WAT      O80338   5.594   2.645   9.135
26699WAT     H180339   5.659   2.569   9.142
26699WAT     H280340   5.525   2.623   9.066
26700WAT      O80341   4.228   8.211   2.241
26700WAT     H180342   4.198   8.292   2.191
26700WAT     H280343   4.187   8.129   2.201
26701WAT      O80344   1.522   9.043   5.361
26701WAT     H180345   1.520   9.037   5.461
26701WAT     H280346   1.571   8.964   5.324
26702WAT      O80347   3.760   2.344   7.038
26702WAT     H180348   3.662   2.359   7.028
26702WAT     H280349   3.781   2.247   7.028
26703WAT      O80350   8.681   8.227   4.806
26703WAT     H180351   8.759   8.278   4.841
26703WAT     H280352   8.686   8.132   4.836
26704WAT      O80353   0.991   8.159   3.320
26704WAT     H180354   1.015   8.154   3.417
26704WAT     H280355   0.891   8.150   3.310
26705WAT      O80356   1.378   7.450   5.484
26705WAT     H180357   1.422   7.390   5.551
26705WAT     H280358   1.367   7.541   5.523
26706WAT      O80359   5.999   0.162   9.097
26706WAT     H180360   6.007   0.210   9.010
26706WAT     H280361   5.954   0.074   9.083
26707WAT      O80362   5.376   8.428   7.069
26707WAT     H180363   5.474   8.430   7.086
26707WAT     H280364   5.338   8.341   7.100
26708WAT      O80365   6.689   6.065   2.705
26708WAT     H180366   6.732   6.087   2.618
26708WAT     H280367   6.750   6.091   2.780
26709WAT      O80368   7.515   1.570   0.460
26709WAT     H180369   7.418   1.545   0.467
26709WAT     H280370   7.531   1.654   0.511
26710WAT      O80371   7.320   6.383   6.881
26710WAT     H180372   7.359   6.389   6.973
26710WAT     H280373   7.334   6.290   6.846
26711WAT      O80374   3.270   5.361   0.987
26711WAT     H180375   3.190   5.395   1.036
26711WAT     H280376   3.272   5.399   0.895
26712WAT      O80377   8.920   5.648   0.234
26712WAT     H180378   8.971   5.729   0.203
26712WAT     H280379   8.867   5.611   0.157
26713WAT      O80380   5.116   7.555   2.015
26713WAT     H180381   5.151   7.601   2.097
26713WAT     H280382   5.105   7.457   2.034
26714WAT      O80383   6.164   2.702   2.330
26714WAT     H180384   6.194   2.797   2.321
26714WAT     H280385   6.131   2.669   2.241
26715WAT      O80386   5.573   3.449   9.112
26715WAT     H180387   5.530   3.428   9.025
26715WAT     H280388   5.504   3.447   9.185
26716WAT      O80389   4.953   9.470   9.324
26716WAT     H180390   4.855   9.465   9.305
26716WAT     H280391   4.981   9.390   9.378
26717WAT      O80392   9.140   6.969   3.757
26717WAT     H180393   9.196   6.955   3.839
26717WAT     H280394   9.044   6.977   3.783
26718WAT      O80395   5.858   6.264   6.938
26718WAT     H180396   5.824   6.184   6.888
26718WAT     H280397   5.786   6.333   6.945
26719WAT      O80398   7.276   1.850   8.227
26719WAT     H180399   7.257   1.898   8.312
26719WAT     H280400   7.229   1.895   8.152
26720WAT      O80401   7.439   6.216   3.658
26720WAT     H180402   7.437   6.230   3.757
26720WAT     H280403   7.403   6.297   3.612
26721WAT      O80404   2.672   0.428   9.728
26721WAT     H180405   2.629   0.429   9.818
26721WAT     H280406   2.769   0.449   9.737
26722WAT      O80407   2.600   4.745   4.395
26722WAT     H180408   2.640   4.739   4.486
26722WAT     H280409   2.502   4.726   4.400
26723WAT      O80410   2.701   6.952   7.634
26723WAT     H180411   2.801   6.957   7.635
26723WAT     H280412   2.666   6.958   7.728
26724WAT      O80413   8.974   2.746   1.034
26724WAT     H180414   8.985   2.760   1.133
26724WAT     H280415   8.939   2.830   0.992
26725WAT      O80416   5.854   5.261   2.908
26725WAT     H180417   5.844   5.307   2.821
26725WAT     H280418   5.842   5.162   2.895
26726WAT      O80419   5.946   4.701   1.096
26726WAT     H180420   6.029   4.708   1.040
26726WAT     H280421   5.968   4.658   1.183
26727WAT      O80422   8.517   9.576   5.765
26727WAT     H180423   8.458   9.607   5.840
26727WAT     H280424   8.480   9.493   5.725
26728WAT      O80425   4.340   3.360   6.102
26728WAT     H180426   4.289   3.333   6.020
26728WAT     H280427   4.410   3.427   6.077
26729WAT      O80428   1.136   8.834   3.105
26729WAT     H180429   1.052   8.793   3.141
26729WAT     H280430   1.208   8.764   3.102
26730WAT      O80431   7.123   0.131   5.111
26730WAT     H180432   7.112   0.086   5.199
26730WAT     H280433   7.191   0.203   5.118
26731WAT      O80434   9.029   9.745   5.042
26731WAT     H180435   8.969   9.781   5.114
26731WAT     H280436   8.994   9.657   5.010
26732WAT      O80437   1.832   4.119   8.839
26732WAT     H180438   1.869   4.068   8.761
26732WAT     H280439   1.876   4.086   8.923
26733WAT      O80440   0.744   5.510   4.422
26733WAT     H180441   0.657   5.469   4.448
26733WAT     H280442   0.733   5.609   4.414
26734WAT      O80443   6.241   6.770   5.411
26734WAT     H180444   6.152   6.812   5.391
26734WAT     H280445   6.311   6.812   5.354
26735WAT      O80446   0.366   4.119   6.948
26735WAT     H180447   0.366   4.117   6.848
26735WAT     H280448   0.284   4.072   6.983
26736WAT      O80449   6.167   5.545   0.779
26736WAT     H180450   6.223   5.611   0.730
26736WAT     H280451   6.098   5.594   0.833
26737WAT      O80452   1.390   1.105   6.298
26737WAT     H180453   1.456   1.031   6.306
26737WAT     H280454   1.372   1.145   6.388
26738WAT      O80455   3.180   7.396   6.899
26738WAT     H180456   3.147   7.464   6.833
26738WAT     H280457   3.236   7.328   6.851
26739WAT      O80458   7.712   0.899   7.477
26739WAT     H180459   7.723   0.998   7.465
26739WAT     H280460   7.700   0.879   7.575
26740WAT      O80461   4.511   0.880   5.495
26740WAT     H180462   4.532   0.800   5.440
26740WAT     H280463   4.413   0.882   5.516
26741WAT      O80464   6.171   6.175   2.274
26741WAT     H180465   6.134   6.126   2.195
26741WAT     H280466   6.210   6.262   2.244
26742WAT      O80467   9.819   2.824   1.023
26742WAT     H180468   9.812   2.730   1.056
26742WAT     H280469   9.734   2.850   0.977
26743WAT      O80470   8.090   5.387   6.340
26743WAT     H180471   8.172   5.333   6.359
26743WAT     H280472   8.064   5.375   6.244
26744WAT      O80473   1.256   6.407   2.509
26744WAT     H180474   1.193   6.422   2.585
26744WAT     H280475   1.346   6.381   2.545
26745WAT      O80476   1.739   1.434   8.509
26745WAT     H180477   1.747   1.374   8.589
26745WAT     H280478   1.817   1.497   8.506
26746WAT      O80479   3.272   3.969   2.020
26746WAT     H180480   3.270   3.998   1.924
26746WAT     H280481   3.303   3.874   2.024
26747WAT      O80482   5.978   5.997   5.525
26747WAT     H180483   6.006   6.093   5.517
26747WAT     H280484   5.884   5.993   5.561
26748WAT      O80485   2.544   5.185   1.217
26748WAT     H180486   2.501   5.274   1.232
26748WAT     H280487   2.639   5.198   1.187
26749WAT      O80488   6.510   4.415   1.547
26749WAT     H180489   6.556   4.504   1.548
26749WAT     H280490   6.474   4.396   1.638
26750WAT      O80491   4.879   2.757   9.323
26750WAT     H180492   4.779   2.755   9.318
26750WAT     H280493   4.917   2.742   9.232
26751WAT      O80494   0.808   6.665   5.637
26751WAT     H180495   0.762   6.596   5.581
26751WAT     H280496   0.765   6.670   5.727
26752WAT      O80497   2.824   5.276   4.483
26752WAT     H180498   2.879   5.195   4.503
26752WAT     H280499   2.825   5.294   4.385
26753WAT      O80500   7.802   9.203   4.928
26753WAT     H180501   7.836   9.169   4.840
26753WAT     H280502   7.703   9.213   4.924
26754WAT      O80503   5.119   1.747   6.296
26754WAT     H180504   5.065   1.739   6.380
26754WAT     H280505   5.204   1.797   6.315
26755WAT      O80506   7.449   6.288   4.197
26755WAT     H180507   7.356   6.310   4.226
26755WAT     H280508   7.509   6.366   4.215
26756WAT      O80509   8.960   9.041   8.553
26756WAT     H180510   8.877   9.094   8.535
26756WAT     H280511   9.008   9.024   8.466
26757WAT      O80512   2.032   8.495   7.346
26757WAT     H180513   2.085   8.558   7.289
26757WAT     H280514   1.937   8.492   7.314
26758WAT      O80515   9.533   3.766   8.510
26758WAT     H180516   9.621   3.742   8.469
26758WAT     H280517   9.548   3.826   8.588
26759WAT      O80518   0.193   2.915   2.407
26759WAT     H180519   0.240   2.839   2.363
26759WAT     H280520   0.205   2.910   2.506
26760WAT      O80521   1.658   2.057   0.909
26760WAT     H180522   1.658   2.130   0.977
26760WAT     H280523   1.617   2.090   0.824
26761WAT      O80524   7.990   9.706   3.049
26761WAT     H180525   8.072   9.761   3.033
26761WAT     H280526   7.949   9.732   3.136
26762WAT      O80527   9.840   8.717   7.567
26762WAT     H180528   9.843   8.634   7.511
26762WAT     H280529   9.901   8.706   7.646
26763WAT      O80530   1.560   6.303   6.937
26763WAT     H180531   1.603   6.355   7.011
26763WAT     H280532   1.461   6.308   6.945
26764WAT      O80533   7.584   3.569   3.304
26764WAT     H180534   7.544   3.534   3.389
26764WAT     H280535   7.520   3.634   3.262
26765WAT      O80536   1.651   6.710   5.760
26765WAT     H180537   1.612   6.738   5.672
26765WAT     H280538   1.666   6.791   5.816
26766WAT      O80539   3.340   7.934   1.161
26766WAT     H180540   3.367   7.861   1.098
26766WAT     H280541   3.300   7.894   1.243
26767WAT      O80542   6.845   4.096   3.588
26767WAT     H180543   6.801   4.068   3.503
26767WAT     H280544   6.794   4.172   3.629
26768WAT      O80545   1.298   9.092   6.789
26768WAT     H180546   1.360   9.046   6.726
26768WAT     H280547   1.312   9.191   6.784
26769WAT      O80548   8.999   4.308   3.409
26769WAT     H180549   9.073   4.371   3.386
26769WAT     H280550   9.036   4.233   3.465
26770WAT      O80551   6.950   0.587   7.381
26770WAT     H180552   7.015   0.510   7.376
26770WAT     H280553   6.972   0.653   7.309
26771WAT      O80554   7.668   9.732   6.474
26771WAT     H180555   7.729   9.776   6.409
26771WAT     H280556   7.606   9.670   6.426
26772WAT      O80557   8.818   1.638   8.718
26772WAT     H180558   8.872   1.636   8.634
26772WAT     H280559   8.725   1.607   8.698
26773WAT      O80560   8.700   5.438   1.532
26773WAT     H180561   8.780   5.379   1.544
26773WAT     H280562   8.621   5.383   1.507
26774WAT      O80563   2.904   0.564   7.442
26774WAT     H180564   2.820   0.546   7.493
26774WAT     H280565   2.886   0.634   7.373
26775WAT      O80566   4.007   3.090   2.593
26775WAT     H180567   4.048   3.157   2.655
26775WAT     H280568   3.956   3.138   2.521
26776WAT      O80569   1.898   8.286   4.062
26776WAT     H180570   1.839   8.367   4.056
26776WAT     H280571   1.952   8.279   3.978
26777WAT      O80572   0.981   6.791   0.709
26777WAT     H180573   0.945   6.875   0.750
26777WAT     H280574   0.909   6.721   0.707
26778WAT      O80575   7.331   6.184   2.550
26778WAT     H180576   7.259   6.128   2.507
26778WAT     H280577   7.288   6.253   2.608
26779WAT      O80578   3.977   0.985   0.679
26779WAT     H180579   4.052   1.031   0.726
26779WAT     H280580   3.921   0.936   0.745
26780WAT      O80581   8.013   4.882   4.724
26780WAT     H180582   8.065   4.903   4.641
26780WAT     H280583   7.916   4.899   4.709
26781WAT      O80584   7.180   2.307   6.919
26781WAT     H180585   7.137   2.218   6.937
26781WAT     H280586   7.170   2.330   6.822
26782WAT      O80587   8.287   6.042   8.591
26782WAT     H180588   8.212   6.083   8.539
26782WAT     H280589   8.370   6.041   8.535
26783WAT      O80590   7.853   5.299   6.689
26783WAT     H180591   7.835   5.293   6.787
26783WAT     H280592   7.910   5.380   6.670
26784WAT      O80593   8.294   1.245   3.678
26784WAT     H180594   8.356   1.258   3.601
26784WAT     H280595   8.293   1.328   3.734
26785WAT      O80596   6.410   0.221   0.303
26785WAT     H180597   6.500   0.236   0.344
26785WAT     H280598   6.419   0.165   0.221
26786WAT      O80599   2.868   3.982   4.693
26786WAT     H180600   2.853   3.918   4.769
26786WAT     H280601   2.867   4.075   4.728
26787WAT      O80602   5.314   1.446   6.360
26787WAT     H180603   5.239   1.475   6.301
26787WAT     H280604   5.283   1.445   6.455
26788WAT      O80605   1.623   5.934   7.067
26788WAT     H180606   1.640   5.836   7.081
26788WAT     H280607   1.686   5.988   7.123
26789WAT      O80608   1.088   8.392   9.664
26789WAT     H180609   1.059   8.301   9.633
26789WAT     H280610   1.049   8.410   9.754
26790WAT      O80611   9.562   5.459   4.312
26790WAT     H180612   9.614   5.437   4.230
26790WAT     H280613   9.538   5.556   4.311
26791WAT      O80614   2.829   2.261   2.480
26791WAT     H180615   2.840   2.170   2.438
26791WAT     H280616   2.894   2.271   2.554
26792WAT      O80617   9.515   0.479   6.682
26792WAT     H180618   9.562   0.410   6.627
26792WAT     H280619   9.472   0.436   6.761
26793WAT      O80620   3.002   9.709   2.266
26793WAT     H180621   3.075   9.703   2.197
26793WAT     H280622   2.963   9.801   2.265
26794WAT      O80623   5.691   0.906   6.660
26794WAT     H180624   5.750   0.849   6.719
26794WAT     H280625   5.747   0.957   6.596
26795WAT      O80626   6.837   5.437   7.936
26795WAT     H180627   6.871   5.521   7.893
26795WAT     H280628   6.852   5.360   7.874
26796WAT      O80629   1.096   2.726   8.068
26796WAT     H180630   1.123   2.734   8.163
26796WAT     H280631   1.149   2.790   8.012
26797WAT      O80632   5.779   5.268   3.175
26797WAT     H180633   5.823   5.295   3.090
26797WAT     H280634   5.692   5.223   3.155
26798WAT      O80635   5.053   1.308   9.503
26798WAT     H180636   5.002   1.262   9.575
26798WAT     H280637   5.048   1.407   9.518
26799WAT      O80638   6.803   2.931   9.562
26799WAT     H180639   6.886   2.934   9.617
26799WAT     H280640   6.764   3.023   9.555
26800WAT      O80641   0.007   9.330   9.788
26800WAT     H180642  -0.036   9.403   9.735
26800WAT     H280643   0.017   9.249   9.731
26801WAT      O80644   4.921   7.520   3.255
26801WAT     H180645   4.944   7.423   3.264
26801WAT     H280646   4.955   7.569   3.335
26802WAT      O80647   0.610   2.246   9.447
26802WAT     H180648   0.663   2.321   9.406
26802WAT     H280649   0.572   2.276   9.534
26803WAT      O80650   8.679   8.199   8.941
26803WAT     H180651   8.739   8.131   8.897
26803WAT     H280652   8.622   8.242   8.871
26804WAT      O80653   8.588   1.168   6.319
26804WAT     H180654   8.550   1.254   6.284
26804WAT     H280655   8.636   1.185   6.405
26805WAT      O80656   9.714   4.704   6.909
26805WAT     H180657   9.653   4.695   6.987
26805WAT     H280658   9.660   4.720   6.826
26806WAT      O80659   7.407   2.244   6.198
26806WAT     H180660   7.440   2.267   6.290
26806WAT     H280661   7.483   2.244   6.134
26807WAT      O80662   9.710   3.401   8.311
26807WAT     H180663   9.686   3.489   8.270
26807WAT     H280664   9.806   3.401   8.338
26808WAT      O80665   5.402   9.463   6.570
26808WAT     H180666   5.418   9.370   6.536
26808WAT     H280667   5.355   9.458   6.659
26809WAT      O80668   6.066   9.105   3.815
26809WAT     H180669   6.065   9.022   3.759
26809WAT     H280670   6.024   9.180   3.764
26810WAT      O80671   3.992   7.717   9.287
26810WAT     H180672   4.028   7.670   9.206
26810WAT     H280673   3.930   7.655   9.336
26811WAT      O80674   8.314   1.926   0.163
26811WAT     H180675   8.322   2.025   0.159
26811WAT     H280676   8.217   1.900   0.163
26812WAT      O80677   9.112   8.773   2.442
26812WAT     H180678   9.188   8.835   2.418
26812WAT     H280679   9.073   8.801   2.529
26813WAT      O80680   3.582   4.733   8.105
26813WAT     H180681   3.636   4.651   8.121
26813WAT     H280682   3.608   4.803   8.172
26814WAT      O80683   9.231   4.223   1.425
26814WAT     H180684   9.143   4.246   1.466
26814WAT     H280685   9.285   4.306   1.412
26815WAT      O80686   4.194   7.852   7.314
26815WAT     H180687   4.125   7.802   7.262
26815WAT     H280688   4.272   7.793   7.331
26816WAT      O80689   6.621   3.410   9.438
26816WAT     H180690   6.572   3.356   9.370
26816WAT     H280691   6.556   3.459   9.496
26817WAT      O80692   3.252   5.089   8.712
26817WAT     H180693   3.222   5.013   8.770
26817WAT     H280694   3.337   5.126   8.748
26818WAT      O80695   0.060   6.596   2.752
26818WAT     H180696   0.053   6.666   2.823
26818WAT     H280697   0.157   6.576   2.735
26819WAT      O80698   4.866   5.357   9.231
26819WAT     H180699   4.935   5.414   9.188
26819WAT     H280700   4.895   5.261   9.227
26820WAT      O80701   2.616   2.692   2.467
26820WAT     H180702   2.709   2.658   2.459
26820WAT     H280703   2.614   2.770   2.530
26821WAT      O80704   6.757   8.429   2.073
26821WAT     H180705   6.694   8.428   2.151
26821WAT     H280706   6.807   8.342   2.070
26822WAT      O80707   9.014   1.920   7.108
26822WAT     H180708   8.992   1.981   7.033
26822WAT     H280709   9.039   1.830   7.072
26823WAT      O80710   8.379   7.298   9.783
26823WAT     H180711   8.435   7.263   9.858
26823WAT     H280712   8.425   7.376   9.740
26824WAT      O80713   7.073   3.942   7.529
26824WAT     H180714   7.119   3.853   7.535
26824WAT     H280715   7.141   4.015   7.536
26825WAT      O80716   2.254   1.048   6.747
26825WAT     H180717   2.269   1.030   6.844
26825WAT     H280718   2.298   0.977   6.693
26826WAT      O80719   2.039   8.982   5.682
26826WAT     H180720   2.087   8.932   5.754
26826WAT     H280721   1.943   8.993   5.707
26827WAT      O80722   9.479   2.926   7.916
26827WAT     H180723   9.407   2.973   7.967
26827WAT     H280724   9.564   2.926   7.969
26828WAT      O80725   2.495   2.761   3.552
26828WAT     H180726   2.429   2.835   3.565
26828WAT     H280727   2.466   2.703   3.477
26829WAT      O80728   8.812   5.299   5.137
26829WAT     H180729   8.787   5.390   5.171
26829WAT     H280730   8.736   5.259   5.087
26830WAT      O80731   6.880   0.073   5.599
26830WAT     H180732   6.895   0.075   5.698
26830WAT     H280733   6.948   0.012   5.556
26831WAT      O80734   8.932   3.999   4.998
26831WAT     H180735   8.872   4.077   5.014
26831WAT     H280736   8.964   3.963   5.086
26832WAT      O80737   3.764   3.184   4.192
26832WAT     H180738   3.713   3.200   4.276
26832WAT     H280739   3.800   3.271   4.159
26833WAT      O80740   8.933   4.842   3.198
26833WAT     H180741   8.887   4.831   3.110
26833WAT     H280742   8.883   4.908   3.254
26834WAT      O80743   1.910   5.325   2.676
26834WAT     H180744   1.995   5.356   2.633
26834WAT     H280745   1.931   5.275   2.760
26835WAT      O80746   8.529   6.284   0.341
26835WAT     H180747   8.561   6.209   0.399
26835WAT     H280748   8.430   6.290   0.346
26836WAT      O80749   5.293   2.340   3.000
26836WAT     H180750   5.273   2.304   3.092
26836WAT     H280751   5.208   2.348   2.949
26837WAT      O80752   3.774   8.531   0.020
26837WAT     H180753   3.805   8.508   0.113
26837WAT     H280754   3.797   8.456  -0.042
26838WAT      O80755   0.190   1.683   8.716
26838WAT     H180756   0.104   1.720   8.681
26838WAT     H280757   0.183   1.584   8.727
26839WAT      O80758   4.012   6.700   6.035
26839WAT     H180759   4.038   6.635   5.964
26839WAT     H280760   4.063   6.786   6.022
26840WAT      O80761   2.873   6.465   1.653
26840WAT     H180762   2.784   6.426   1.676
26840WAT     H280763   2.868   6.565   1.656
26841WAT      O80764   9.297   5.483   6.103
26841WAT     H180765   9.292   5.431   6.189
26841WAT     H280766   9.229   5.448   6.039
26842WAT      O80767   0.553   6.461   6.966
26842WAT     H180768   0.488   6.396   7.005
26842WAT     H280769   0.535   6.552   7.005
26843WAT      O80770   4.525   5.899   9.839
26843WAT     H180771   4.479   5.969   9.785
26843WAT     H280772   4.612   5.935   9.873
26844WAT      O80773   0.328   9.620   3.176
26844WAT     H180774   0.238   9.584   3.151
26844WAT     H280775   0.388   9.617   3.096
26845WAT      O80776   5.089   8.722   1.935
26845WAT     H180777   5.131   8.646   1.985
26845WAT     H280778   5.128   8.808   1.967
26846WAT      O80779   6.569   5.302   2.082
26846WAT     H180780   6.650   5.357   2.062
26846WAT     H280781   6.597   5.217   2.126
26847WAT      O80782   2.710   4.534   6.224
26847WAT     H180783   2.653   4.455   6.202
26847WAT     H280784   2.651   4.614   6.237
26848WAT      O80785   9.424   8.576   0.179
26848WAT     H180786   9.340   8.620   0.150
26848WAT     H280787   9.402   8.494   0.232
26849WAT      O80788   6.745   7.789   8.904
26849WAT     H180789   6.715   7.701   8.941
26849WAT     H280790   6.666   7.850   8.896
26850WAT      O80791   0.062   7.228   5.646
26850WAT     H180792   0.128   7.179   5.588
26850WAT     H280793   0.102   7.313   5.678
26851WAT      O80794   8.093   1.784   5.663
26851WAT     H180795   8.129   1.779   5.570
26851WAT     H280796   8.038   1.702   5.681
26852WAT      O80797   7.842   9.607   4.033
26852WAT     H180798   7.917   9.652   4.082
26852WAT     H280799   7.878   9.529   3.981
26853WAT      O80800   8.293   8.112   0.344
26853WAT     H180801   8.366   8.162   0.389
26853WAT     H280802   8.317   8.015   0.340
26854WAT      O80803   3.757   8.479   6.075
26854WAT     H180804   3.752   8.399   6.134
26854WAT     H280805   3.784   8.451   5.983
26855WAT      O80806   0.220   3.106   7.383
26855WAT     H180807   0.267   3.038   7.326
26855WAT     H280808   0.266   3.194   7.374
26856WAT      O80809   4.086   7.661   2.011
26856WAT     H180810   4.063   7.653   1.914
26856WAT     H280811   4.005   7.690   2.063
26857WAT      O80812   2.798   7.657   4.363
26857WAT     H180813   2.760   7.568   4.388
26857WAT     H280814   2.795   7.718   4.443
26858WAT      O80815   8.127   8.292   0.522
26858WAT     H180816   8.116   8.240   0.437
26858WAT     H280817   8.093   8.237   0.599
26859WAT      O80818   3.953   8.830   9.569
26859WAT     H180819   3.882   8.855   9.635
26859WAT     H280820   3.957   8.730   9.561
26860WAT      O80821   6.718   6.586   4.514
26860WAT     H180822   6.797   6.584   4.453
26860WAT     H280823   6.750   6.594   4.609
26861WAT      O80824   4.508   8.523   2.150
26861WAT     H180825   4.475   8.429   2.165
26861WAT     H280826   4.585   8.522   2.086
26862WAT      O80827   1.639   6.539   8.293
26862WAT     H180828   1.592   6.602   8.232
26862WAT     H280829   1.676   6.589   8.371
26863WAT      O80830   2.430   2.520   3.100
26863WAT     H180831   2.454   2.436   3.149
26863WAT     H280832   2.445   2.507   3.002
26864WAT      O80833   1.429   2.222   2.524
26864WAT     H180834   1.482   2.300   2.492
26864WAT     H280835   1.453   2.141   2.470
26865WAT      O80836   1.640   9.526   2.006
26865WAT     H180837   1.695   9.447   2.034
26865WAT     H280838   1.581   9.554   2.082
26866WAT      O80839   1.017   8.151   0.058
26866WAT     H180840   0.937   8.092   0.066
26866WAT     H280841   0.997   8.241   0.096
26867WAT      O80842   0.717   5.494   2.132
26867WAT     H180843   0.622   5.474   2.107
26867WAT     H280844   0.758   5.551   2.060
26868WAT      O80845   6.962   3.861   2.028
26868WAT     H180846   7.033   3.919   1.986
26868WAT     H280847   7.004   3.776   2.061
26869WAT      O80848   7.386   2.640   4.218
26869WAT     H180849   7.456   2.632   4.147
26869WAT     H280850   7.431   2.655   4.307
26870WAT      O80851   7.777   2.880   9.152
26870WAT     H180852   7.870   2.896   9.183
26870WAT     H280853   7.758   2.936   9.071
26871WAT      O80854   6.756   5.743   3.710
26871WAT     H180855   6.816   5.667   3.687
26871WAT     H280856   6.785   5.825   3.660
26872WAT      O80857   9.358   1.123   5.615
26872WAT     H180858   9.269   1.158   5.585
26872WAT     H280859   9.344   1.059   5.690
26873WAT      O80860   8.679   3.701   0.578
26873WAT     H180861   8.604   3.755   0.538
26873WAT     H280862   8.665   3.604   0.558
26874WAT      O80863   1.082   1.269   6.825
26874WAT     H180864   1.103   1.285   6.729
26874WAT     H280865   1.163   1.232   6.871
26875WAT      O80866   7.661   6.859   1.910
26875WAT     H180867   7.706   6.770   1.914
26875WAT     H280868   7.573   6.855   1.958
26876WAT      O80869   3.954   8.781   8.524
26876WAT     H180870   3.891   8.734   8.586
26876WAT     H280871   3.923   8.875   8.510
26877WAT      O80872   9.202   5.223   9.895
26877WAT     H180873   9.284   5.234   9.838
26877WAT     H280874   9.126   5.274   9.855
26878WAT      O80875   6.462   8.026   6.605
26878WAT     H180876   6.421   7.999   6.518
26878WAT     H280877   6.547   7.975   6.619
26879WAT      O80878   0.775   1.097   0.164
26879WAT     H180879   0.716   1.111   0.243
26879WAT     H280880   0.835   1.176   0.152
26880WAT      O80881   2.196   8.143   0.685
26880WAT     H180882   2.171   8.139   0.781
26880WAT     H280883   2.149   8.069   0.636
26881WAT      O80884   5.702   9.829   9.879
26881WAT     H180885   5.768   9.879   9.935
26881WAT     H280886   5.613   9.874   9.884
26882WAT      O80887   3.207   8.351   1.809
26882WAT     H180888   3.304   8.334   1.796
26882WAT     H280889   3.193   8.442   1.846
26883WAT      O80890   3.659   7.641   0.504
26883WAT     H180891   3.588   7.687   0.557
26883WAT     H280892   3.620   7.565   0.453
26884WAT      O80893   8.789   0.989   5.726
26884WAT     H180894   8.831   0.990   5.816
26884WAT     H280895   8.690   0.975   5.735
26885WAT      O80896   4.076   4.959   7.687
26885WAT     H180897   4.029   5.042   7.719
26885WAT     H280898   4.011   4.883   7.687
26886WAT      O80899   7.959   4.356   1.241
26886WAT     H180900   7.953   4.257   1.235
26886WAT     H280901   8.025   4.390   1.173
26887WAT      O80902   0.250   8.163   7.134
26887WAT     H180903   0.224   8.234   7.069
26887WAT     H280904   0.349   8.148   7.128
26888WAT      O80905   3.170   6.875   3.277
26888WAT     H180906   3.200   6.780   3.280
26888WAT     H280907   3.171   6.908   3.183
26889WAT      O80908   5.543   6.055   2.254
26889WAT     H180909   5.498   6.145   2.263
26889WAT     H280910   5.630   6.057   2.304
26890WAT      O80911   0.054   7.592   0.956
26890WAT     H180912   0.056   7.666   0.890
26890WAT     H280913   0.137   7.536   0.946
26891WAT      O80914   3.700   3.691   0.009
26891WAT     H180915   3.800   3.680   0.014
26891WAT     H280916   3.674   3.722  -0.082
26892WAT      O80917   5.244   0.598   3.920
26892WAT     H180918   5.199   0.633   4.002
26892WAT     H280919   5.342   0.618   3.925
26893WAT      O80920   1.663   1.284   9.336
26893WAT     H180921   1.596   1.308   9.266
26893WAT     H280922   1.670   1.185   9.343
26894WAT      O80923   2.488   4.112   0.498
26894WAT     H180924   2.422   4.130   0.426
26894WAT     H280925   2.531   4.197   0.527
26895WAT      O80926   2.599   6.000   9.277
26895WAT     H180927   2.558   5.921   9.231
26895WAT     H280928   2.576   5.998   9.374
26896WAT      O80929   9.750   1.806   4.787
26896WAT     H180930   9.664   1.775   4.747
26896WAT     H280931   9.731   1.875   4.857
26897WAT      O80932   2.728   8.330   5.711
26897WAT     H180933   2.659   8.390   5.670
26897WAT     H280934   2.812   8.381   5.725
26898WAT      O80935   2.585   3.569   0.878
26898WAT     H180936   2.490   3.558   0.908
26898WAT     H280937   2.596   3.528   0.788
26899WAT      O80938   1.971   7.563   2.277
26899WAT     H180939   1.946   7.586   2.371
26899WAT     H280940   1.989   7.465   2.270
26900WAT      O80941   7.556   7.122   8.219
26900WAT     H180942   7.614   7.058   8.270
26900WAT     H280943   7.613   7.178   8.159
26901WAT      O80944   6.195   7.056   7.655
26901WAT     H180945   6.148   7.139   7.684
26901WAT     H280946   6.131   6.979   7.655
26902WAT      O80947   4.748   9.350   8.395
26902WAT     H180948   4.654   9.381   8.405
26902WAT     H280949   4.799   9.415   8.339
26903WAT      O80950   5.345   3.363   3.340
26903WAT     H180951   5.388   3.284   3.382
26903WAT     H280952   5.322   3.430   3.411
26904WAT      O80953   5.842   4.675   6.939
26904WAT     H180954   5.743   4.666   6.928
26904WAT     H280955   5.888   4.603   6.887
26905WAT      O80956   3.227   5.669   4.508
26905WAT     H180957   3.256   5.612   4.585
26905WAT     H280958   3.137   5.639   4.477
26906WAT      O80959   1.100   9.740   4.635
26906WAT     H180960   1.178   9.688   4.670
26906WAT     H280961   1.112   9.837   4.657
26907WAT      O80962   5.954   6.339   1.434
26907WAT     H180963   6.035   6.387   1.402
26907WAT     H280964   5.950   6.248   1.393
26908WAT      O80965   0.267   4.586   0.043
26908WAT     H180966   0.313   4.670   0.073
26908WAT     H280967   0.326   4.538  -0.022
26909WAT      O80968   4.284   2.393   3.378
26909WAT     H180969   4.260   2.334   3.301
26909WAT     H280970   4.220   2.377   3.453
26910WAT      O80971   9.309   6.798   9.638
26910WAT     H180972   9.363   6.848   9.705
26910WAT     H280973   9.213   6.824   9.645
26911WAT      O80974   1.996   6.023   4.416
26911WAT     H180975   1.900   6.011   4.439
26911WAT     H280976   2.049   6.040   4.499
26912WAT      O80977   2.634   9.228   8.242
26912WAT     H180978   2.579   9.310   8.226
26912WAT     H280979   2.706   9.221   8.173
26913WAT      O80980   5.841   0.069   3.636
26913WAT     H180981   5.793  -0.018   3.621
26913WAT     H280982   5.921   0.052   3.694
26914WAT      O80983   3.451   5.572   5.791
26914WAT     H180984   3.391   5.631   5.845
26914WAT     H280985   3.402   5.489   5.764
26915WAT      O80986   1.224   2.435   2.556
26915WAT     H180987   1.305   2.378   2.539
26915WAT     H280988   1.234   2.522   2.509
26916WAT      O80989   6.533   1.189   6.242
26916WAT     H180990   6.443   1.169   6.280
26916WAT     H280991   6.528   1.272   6.186
26917WAT      O80992   7.235   5.297   9.630
26917WAT     H180993   7.186   5.334   9.709
26917WAT     H280994   7.170   5.269   9.560
26918WAT      O80995   7.287   3.483   4.319
26918WAT     H180996   7.235   3.398   4.323
26918WAT     H280997   7.296   3.522   4.410
26919WAT      O80998   3.928   9.688   9.514
26919WAT     H180999   3.957   9.594   9.534
26919WAT     H281000   3.850   9.687   9.452
26920WAT      O81001   8.487   2.412   5.973
26920WAT     H181002   8.559   2.438   6.038
26920WAT     H281003   8.445   2.494   5.934
26921WAT      O81004   5.864   4.176   4.486
26921WAT     H181005   5.896   4.213   4.574
26921WAT     H281006   5.940   4.178   4.420
26922WAT      O81007   3.620   3.898   3.873
26922WAT     H181008   3.674   3.966   3.922
26922WAT     H281009   3.681   3.827   3.836
26923WAT      O81010   5.038   8.691   9.457
26923WAT     H181011   5.125   8.738   9.474
26923WAT     H281012   4.972   8.756   9.419
26924WAT      O81013   8.126   1.219   5.266
26924WAT     H181014   8.098   1.198   5.173
26924WAT     H281015   8.050   1.202   5.329
26925WAT      O81016   6.004   2.147   7.946
26925WAT     H181017   6.035   2.225   8.000
26925WAT     H281018   6.011   2.064   8.001
26926WAT      O81019   0.076   7.111   9.725
26926WAT     H181020   0.025   7.141   9.806
26926WAT     H281021   0.041   7.159   9.644
26927WAT      O81022   6.701   5.905   0.449
26927WAT     H181023   6.638   5.978   0.476
26927WAT     H281024   6.732   5.921   0.356
26928WAT      O81025   7.600   9.578   2.358
26928WAT     H181026   7.627   9.626   2.442
26928WAT     H281027   7.666   9.507   2.337
26929WAT      O81028   9.442   1.508   5.122
26929WAT     H181029   9.488   1.475   5.204
26929WAT     H281030   9.423   1.432   5.061
26930WAT      O81031   9.536   6.368   1.349
26930WAT     H181032   9.629   6.381   1.314
26930WAT     H281033   9.477   6.441   1.316
26931WAT      O81034   8.359   4.669   4.897
26931WAT     H181035   8.427   4.696   4.828
26931WAT     H281036   8.268   4.697   4.866
26932WAT      O81037   9.248   4.457   3.682
26932WAT     H181038   9.256   4.388   3.754
26932WAT     H281039   9.258   4.548   3.722
26933WAT      O81040   3.452   4.653   7.063
26933WAT     H181041   3.372   4.646   7.004
26933WAT     H281042   3.534   4.623   7.014
26934WAT      O81043   1.436   0.313   7.744
26934WAT     H181044   1.528   0.335   7.774
26934WAT     H281045   1.369   0.356   7.805
26935WAT      O81046   1.913   4.660   6.852
26935WAT     H181047   1.890   4.725   6.778
26935WAT     H281048   1.829   4.615   6.883
26936WAT      O81049   7.901   6.078   0.278
26936WAT     H181050   7.832   6.067   0.348
26936WAT     H281051   7.992   6.076   0.320
26937WAT      O81052   5.389   6.921   2.598
26937WAT     H181053   5.455   6.909   2.525
26937WAT     H281054   5.298   6.895   2.565
26938WAT      O81055   7.920   5.273   0.657
26938WAT     H181056   7.976   5.211   0.711
26938WAT     H281057   7.838   5.224   0.625
26939WAT      O81058   2.473   3.386   8.445
26939WAT     H181059   2.454   3.426   8.356
26939WAT     H281060   2.392   3.395   8.503
26940WAT      O81061   1.543   5.272   5.411
26940WAT     H181062   1.485   5.353   5.401
26940WAT     H281063   1.486   5.189   5.409
26941WAT      O81064   1.423   4.995   8.287
26941WAT     H181065   1.455   4.900   8.291
26941WAT     H281066   1.419   5.025   8.191
26942WAT      O81067   8.125   9.014   6.533
26942WAT     H181068   8.031   9.029   6.503
26942WAT     H281069   8.151   8.920   6.514
26943WAT      O81070   4.304   7.257   2.635
26943WAT     H181071   4.270   7.290   2.547
26943WAT     H281072   4.241   7.284   2.707
26944WAT      O81073   4.494   2.555   5.387
26944WAT     H181074   4.476   2.520   5.479
26944WAT     H281075   4.464   2.487   5.320
26945WAT      O81076   0.439   3.638   1.191
26945WAT     H181077   0.432   3.673   1.285
26945WAT     H281078   0.535   3.640   1.162
26946WAT      O81079   2.309   5.674   2.090
26946WAT     H181080   2.278   5.605   2.156
26946WAT     H281081   2.273   5.763   2.116
26947WAT      O81082   3.499   0.274   2.081
26947WAT     H181083   3.542   0.326   2.007
26947WAT     H281084   3.459   0.336   2.148
26948WAT      O81085   5.594   8.342   0.009
26948WAT     H181086   5.661   8.320   0.080
26948WAT     H281087   5.533   8.414   0.043
26949WAT      O81088   1.943   8.294   3.439
26949WAT     H181089   1.889   8.255   3.365
26949WAT     H281090   1.886   8.357   3.492
26950WAT      O81091   0.339   4.403   1.204
26950WAT     H181092   0.340   4.319   1.150
26950WAT     H281093   0.263   4.461   1.176
26951WAT      O81094   6.862   0.463   7.089
26951WAT     H181095   6.762   0.458   7.079
26951WAT     H281096   6.896   0.544   7.041
26952WAT      O81097   6.568   0.590   2.078
26952WAT     H181098   6.516   0.509   2.103
26952WAT     H281099   6.569   0.601   1.979
26953WAT      O81100   7.956   5.051   6.617
26953WAT     H181101   7.918   5.143   6.632
26953WAT     H281102   7.972   5.038   6.520
26954WAT      O81103   7.352   7.349   0.140
26954WAT     H181104   7.272   7.363   0.198
26954WAT     H281105   7.353   7.418   0.067
26955WAT      O81106   9.519   9.264   2.484
26955WAT     H181107   9.542   9.239   2.390
26955WAT     H281108   9.534   9.185   2.543
26956WAT      O81109   9.848   7.133   2.731
26956WAT     H181110   9.753   7.163   2.732
26956WAT     H281111   9.869   7.094   2.641
26957WAT      O81112   2.383   3.407   0.712
26957WAT     H181113   2.458   3.385   0.649
26957WAT     H281114   2.296   3.395   0.665
26958WAT      O81115   8.813   0.152   3.401
26958WAT     H181116   8.782   0.125   3.492
26958WAT     H281117   8.739   0.137   3.335
26959WAT      O81118   7.115   9.219   7.085
26959WAT     H181119   7.033   9.269   7.116
26959WAT     H281120   7.112   9.209   6.986
26960WAT      O81121   6.565   0.198   9.818
26960WAT     H181122   6.603   0.157   9.901
26960WAT     H281123   6.478   0.154   9.796
26961WAT      O81124   9.005   4.240   1.555
26961WAT     H181125   8.952   4.323   1.539
26961WAT     H281126   8.959   4.183   1.622
26962WAT      O81127   3.589   0.547   8.565
26962WAT     H181128   3.532   0.570   8.644
26962WAT     H281129   3.686   0.559   8.589
26963WAT      O81130   3.773   4.260   3.110
26963WAT     H181131   3.711   4.335   3.085
26963WAT     H281132   3.866   4.283   3.080
26964WAT      O81133   4.980   4.379   9.017
26964WAT     H181134   4.932   4.396   8.930
26964WAT     H281135   4.913   4.378   9.092
26965WAT      O81136   4.500   5.856   2.935
26965WAT     H181137   4.513   5.770   2.985
26965WAT     H281138   4.467   5.836   2.843
26966WAT      O81139   2.411   6.648   3.929
26966WAT     H181140   2.473   6.726   3.938
26966WAT     H281141   2.358   6.656   3.845
26967WAT      O81142   8.378   7.719   9.393
26967WAT     H181143   8.301   7.730   9.330
26967WAT     H281144   8.450   7.666   9.350
26968WAT      O81145   9.684   1.960   0.294
26968WAT     H181146   9.643   2.040   0.338
26968WAT     H281147   9.727   1.987   0.208
26969WAT      O81148   0.870   1.623   1.972
26969WAT     H181149   0.937   1.659   1.907
26969WAT     H281150   0.797   1.691   1.986
26970WAT      O81151   2.616   8.987   9.148
26970WAT     H181152   2.536   8.928   9.132
26970WAT     H281153   2.655   9.015   9.060
26971WAT      O81154   9.804   8.545   5.934
26971WAT     H181155   9.825   8.633   5.892
26971WAT     H281156   9.842   8.471   5.878
26972WAT      O81157   1.650   9.523   8.904
26972WAT     H181158   1.741   9.494   8.874
26972WAT     H281159   1.655   9.559   8.997
26973WAT      O81160   9.743   5.037   2.696
26973WAT     H181161   9.783   4.995   2.615
26973WAT     H281162   9.740   4.970   2.770
26974WAT      O81163   4.845   2.603   1.787
26974WAT     H181164   4.890   2.530   1.737
26974WAT     H281165   4.859   2.690   1.740
26975WAT      O81166   0.043   6.392   4.536
26975WAT     H181167   0.092   6.353   4.614
26975WAT     H281168   0.004   6.481   4.561
26976WAT      O81169   2.905   3.447   0.456
26976WAT     H181170   2.958   3.502   0.392
26976WAT     H281171   2.915   3.484   0.548
26977WAT      O81172   4.316   2.245   6.538
26977WAT     H181173   4.406   2.239   6.495
26977WAT     H281174   4.315   2.188   6.620
26978WAT      O81175   7.724   0.903   0.964
26978WAT     H181176   7.652   0.935   0.903
26978WAT     H281177   7.784   0.840   0.915
26979WAT      O81178   7.044   4.141   2.425
26979WAT     H181179   7.035   4.080   2.346
26979WAT     H281180   7.049   4.236   2.393
26980WAT      O81181   3.761   0.841   9.577
26980WAT     H181182   3.787   0.933   9.548
26980WAT     H281183   3.710   0.796   9.504
26981WAT      O81184   8.511   3.937   1.328
26981WAT     H181185   8.545   4.000   1.257
26981WAT     H281186   8.588   3.907   1.385
26982WAT      O81187   3.487   1.074   9.078
26982WAT     H181188   3.450   1.036   8.993
26982WAT     H281189   3.506   1.172   9.066
26983WAT      O81190   8.745   8.180   1.600
26983WAT     H181191   8.816   8.250   1.592
26983WAT     H281192   8.726   8.141   1.510
26984WAT      O81193   3.709   6.870   5.191
26984WAT     H181194   3.724   6.968   5.174
26984WAT     H281195   3.684   6.857   5.287
26985WAT      O81196   3.853   2.502   0.650
26985WAT     H181197   3.867   2.533   0.744
26985WAT     H281198   3.794   2.567   0.601
26986WAT      O81199   8.105   0.981   6.749
26986WAT     H181200   8.070   1.010   6.660
26986WAT     H281201   8.030   0.949   6.806
26987WAT      O81202   6.047   5.222   3.796
26987WAT     H181203   6.050   5.318   3.824
26987WAT     H281204   6.015   5.216   3.701
26988WAT      O81205   1.197   4.795   5.221
26988WAT     H181206   1.228   4.868   5.283
26988WAT     H281207   1.128   4.739   5.267
26989WAT      O81208   0.192   4.384   8.603
26989WAT     H181209   0.173   4.477   8.635
26989WAT     H281210   0.253   4.387   8.525
26990WAT      O81211   5.749   3.005   2.127
26990WAT     H181212   5.827   2.965   2.175
26990WAT     H281213   5.671   3.010   2.189
26991WAT      O81214   8.379   2.619   3.060
26991WAT     H181215   8.449   2.593   3.127
26991WAT     H281216   8.403   2.581   2.970
26992WAT      O81217   1.513   1.864   2.139
26992WAT     H181218   1.517   1.844   2.041
26992WAT     H281219   1.518   1.778   2.191
26993WAT      O81220   1.708   3.796   4.450
26993WAT     H181221   1.763   3.868   4.407
26993WAT     H281222   1.631   3.837   4.498
26994WAT      O81223   2.492   8.001   5.328
26994WAT     H181224   2.447   7.955   5.251
26994WAT     H281225   2.589   8.013   5.307
26995WAT      O81226   4.767   3.691   0.093
26995WAT     H181227   4.782   3.776   0.042
26995WAT     H281228   4.690   3.702   0.155
26996WAT      O81229   6.135   4.879   6.060
26996WAT     H181230   6.042   4.856   6.090
26996WAT     H281231   6.186   4.795   6.042
26997WAT      O81232   3.635   7.312   7.049
26997WAT     H181233   3.731   7.304   7.076
26997WAT     H281234   3.580   7.252   7.107
26998WAT      O81235   1.446   6.080   4.503
26998WAT     H181236   1.391   6.007   4.542
26998WAT     H281237   1.388   6.142   4.451
26999WAT      O81238   0.679   3.026   7.000
26999WAT     H181239   0.762   3.042   6.947
26999WAT     H281240   0.672   3.094   7.073
27000WAT      O81241   3.850   0.195   4.741
27000WAT     H181242   3.880   0.175   4.834
27000WAT     H281243   3.842   0.110   4.689
27001WAT      O81244   2.851   4.051   1.368
27001WAT     H181245   2.757   4.086   1.367
27001WAT     H281246   2.909   4.109   1.312
27002WAT      O81247   0.533   9.615   0.970
27002WAT     H181248   0.504   9.585   1.060
27002WAT     H281249   0.628   9.586   0.954
27003WAT      O81250   4.171   5.088   7.186
27003WAT     H181251   4.095   5.060   7.245
27003WAT     H281252   4.237   5.013   7.178
27004WAT      O81253   1.419   9.666   5.227
27004WAT     H181254   1.508   9.704   5.201
27004WAT     H281255   1.372   9.633   5.146
27005WAT      O81256   1.891   9.607   3.723
27005WAT     H181257   1.891   9.700   3.686
27005WAT     H281258   1.855   9.544   3.654
27006WAT      O81259   0.661   0.844   3.639
27006WAT     H181260   0.641   0.942   3.635
27006WAT     H281261   0.582   0.795   3.676
27007WAT      O81262   7.622   6.238   6.604
27007WAT     H181263   7.718   6.258   6.625
27007WAT     H281264   7.606   6.140   6.614
27008WAT      O81265   1.751   0.538   1.848
27008WAT     H181266   1.671   0.592   1.820
27008WAT     H281267   1.728   0.441   1.844
27009WAT      O81268   5.116   0.829   0.831
27009WAT     H181269   5.095   0.731   0.840
27009WAT     H281270   5.207   0.840   0.791
27010WAT      O81271   2.264   1.453   4.437
27010WAT     H181272   2.256   1.481   4.341
27010WAT     H281273   2.292   1.357   4.441
27011WAT      O81274   3.236   7.018   6.959
27011WAT     H181275   3.241   6.922   6.932
27011WAT     H281276   3.152   7.034   7.010
27012WAT      O81277   3.288   1.354   8.969
27012WAT     H181278   3.251   1.273   9.012
27012WAT     H281279   3.385   1.363   8.992
27013WAT      O81280   1.020   5.307   7.828
27013WAT     H181281   1.094   5.240   7.822
27013WAT     H281282   1.057   5.396   7.854
27014WAT      O81283   6.527   9.529   1.381
27014WAT     H181284   6.572   9.606   1.428
27014WAT     H281285   6.584   9.448   1.390
27015WAT      O81286   1.057   9.633   3.666
27015WAT     H181287   1.061   9.534   3.675
27015WAT     H281288   0.964   9.665   3.688
27016WAT      O81289   5.190   7.595   4.737
27016WAT     H181290   5.172   7.608   4.835
27016WAT     H281291   5.240   7.510   4.723
27017WAT      O81292   6.275   2.089   3.673
27017WAT     H181293   6.316   2.066   3.762
27017WAT     H281294   6.192   2.143   3.688
27018WAT      O81295   2.588   0.585   6.185
27018WAT     H181296   2.606   0.681   6.160
27018WAT     H281297   2.513   0.549   6.130
27019WAT      O81298   8.744   8.627   0.528
27019WAT     H181299   8.676   8.672   0.585
27019WAT     H281300   8.799   8.697   0.481
27020WAT      O81301   1.095   6.531   4.895
27020WAT     H181302   1.141   6.523   4.983
27020WAT     H281303   0.998   6.509   4.905
27021WAT      O81304   7.338   7.722   3.288
27021WAT     H181305   7.365   7.698   3.195
27021WAT     H281306   7.240   7.741   3.291
27022WAT      O81307   9.817   8.346   5.575
27022WAT     H181308   9.865   8.352   5.487
27022WAT     H281309   9.721   8.323   5.558
27023WAT      O81310   4.372   7.617   8.699
27023WAT     H181311   4.303   7.690   8.701
27023WAT     H281312   4.345   7.549   8.631
27024WAT      O81313   1.671   7.330   2.045
27024WAT     H181314   1.704   7.344   1.951
27024WAT     H281315   1.660   7.419   2.089
27025WAT      O81316   5.410   9.501   3.246
27025WAT     H181317   5.493   9.558   3.251
27025WAT     H281318   5.335   9.547   3.293
27026WAT      O81319   0.452   9.039   5.147
27026WAT     H181320   0.380   9.094   5.105
27026WAT     H281321   0.411   8.972   5.209
27027WAT      O81322   3.592   2.150   2.945
27027WAT     H181323   3.643   2.082   2.893
27027WAT     H281324   3.495   2.145   2.921
27028WAT      O81325   4.736   7.222   6.704
27028WAT     H181326   4.825   7.201   6.744
27028WAT     H281327   4.725   7.172   6.618
27029WAT      O81328   5.397   9.610   8.099
27029WAT     H181329   5.462   9.566   8.160
27029WAT     H281330   5.407   9.709   8.106
27030WAT      O81331   3.306   8.556   1.144
27030WAT     H181332   3.232   8.537   1.208
27030WAT     H281333   3.283   8.636   1.089
27031WAT      O81334   3.879   6.154   5.752
27031WAT     H181335   3.855   6.098   5.831
27031WAT     H281336   3.802   6.214   5.729
27032WAT      O81337   8.767   2.347   5.790
27032WAT     H181338   8.693   2.283   5.807
27032WAT     H281339   8.748   2.399   5.706
27033WAT      O81340   1.266   2.420   0.505
27033WAT     H181341   1.341   2.387   0.562
27033WAT     H281342   1.256   2.360   0.425
27034WAT      O81343   0.029   4.949   4.296
27034WAT     H181344   0.116   4.969   4.252
27034WAT     H281345  -0.045   4.996   4.248
27035WAT      O81346   7.070   5.074   2.353
27035WAT     H181347   7.085   5.160   2.402
27035WAT     H281348   7.158   5.035   2.327
27036WAT      O81349   4.111   0.804   2.541
27036WAT     H181350   4.149   0.723   2.496
27036WAT     H281351   4.132   0.885   2.487
27037WAT      O81352   1.391   6.921   3.148
27037WAT     H181353   1.422   6.891   3.238
27037WAT     H281354   1.470   6.927   3.086
27038WAT      O81355   4.439   7.297   2.377
27038WAT     H181356   4.381   7.252   2.309
27038WAT     H281357   4.469   7.386   2.341
27039WAT      O81358   7.089   8.443   3.495
27039WAT     H181359   7.165   8.488   3.448
27039WAT     H281360   7.046   8.378   3.432
27040WAT      O81361   5.411   9.316   1.932
27040WAT     H181362   5.506   9.293   1.913
27040WAT     H281363   5.396   9.315   2.031
27041WAT      O81364   7.275   7.917   1.941
27041WAT     H181365   7.310   7.873   1.857
27041WAT     H281366   7.195   7.971   1.919
27042WAT      O81367   6.935   0.013   9.351
27042WAT     H181368   6.883  -0.071   9.364
27042WAT     H281369   7.021   0.007   9.401
27043WAT      O81370   7.378   3.269   2.157
27043WAT     H181371   7.338   3.253   2.247
27043WAT     H281372   7.409   3.182   2.118
27044WAT      O81373   9.401   4.494   4.630
27044WAT     H181374   9.302   4.511   4.631
27044WAT     H281375   9.424   4.435   4.553
27045WAT      O81376   0.742   7.776   3.832
27045WAT     H181377   0.693   7.786   3.919
27045WAT     H281378   0.839   7.795   3.845
27046WAT      O81379   9.528   6.965   8.448
27046WAT     H181380   9.561   6.927   8.534
27046WAT     H281381   9.464   7.040   8.466
27047WAT      O81382   1.861   6.696   7.019
27047WAT     H181383   1.892   6.729   7.108
27047WAT     H281384   1.810   6.610   7.031
27048WAT      O81385   6.613   5.084   9.155
27048WAT     H181386   6.602   5.183   9.153
27048WAT     H281387   6.619   5.053   9.249
27049WAT      O81388   7.816   3.651   6.848
27049WAT     H181389   7.769   3.573   6.807
27049WAT     H281390   7.754   3.696   6.913
27050WAT      O81391   7.739   5.577   1.762
27050WAT     H181392   7.770   5.609   1.672
27050WAT     H281393   7.792   5.496   1.787
27051WAT      O81394   5.624   5.429   4.658
27051WAT     H181395   5.608   5.528   4.650
27051WAT     H281396   5.552   5.388   4.714
27052WAT      O81397   3.493   2.090   4.682
27052WAT     H181398   3.446   2.176   4.667
27052WAT     H281399   3.589   2.099   4.657
27053WAT      O81400   8.907   7.130   2.809
27053WAT     H181401   8.894   7.097   2.716
27053WAT     H281402   9.004   7.147   2.826
27054WAT      O81403   5.195   1.635   8.099
27054WAT     H181404   5.162   1.701   8.031
27054WAT     H281405   5.212   1.547   8.055
27055WAT      O81406   9.438   3.975   7.048
27055WAT     H181407   9.365   3.937   7.105
27055WAT     H281408   9.415   3.961   6.951
27056WAT      O81409   4.859   1.249   7.571
27056WAT     H181410   4.926   1.229   7.643
27056WAT     H281411   4.794   1.316   7.604
27057WAT      O81412   0.608   3.802   5.761
27057WAT     H181413   0.703   3.787   5.732
27057WAT     H281414   0.604   3.880   5.823
27058WAT      O81415   1.419   6.862   6.636
27058WAT     H181416   1.497   6.799   6.634
27058WAT     H281417   1.336   6.813   6.610
27059WAT      O81418   2.988   8.129   3.287
27059WAT     H181419   3.000   8.034   3.257
27059WAT     H281420   2.963   8.186   3.210
27060WAT      O81421   2.598   1.328   7.547
27060WAT     H181422   2.506   1.365   7.535
27060WAT     H281423   2.659   1.366   7.477
27061WAT      O81424   5.840   2.995   1.422
27061WAT     H181425   5.890   3.078   1.445
27061WAT     H281426   5.781   3.012   1.343
27062WAT      O81427   9.192   2.758   1.842
27062WAT     H181428   9.110   2.717   1.802
27062WAT     H281429   9.269   2.746   1.779
27063WAT      O81430   9.373   0.983   1.977
27063WAT     H181431   9.369   1.076   1.941
27063WAT     H281432   9.288   0.962   2.026
27064WAT      O81433   5.977   0.580   5.311
27064WAT     H181434   5.971   0.649   5.383
27064WAT     H281435   6.063   0.591   5.262
27065WAT      O81436   4.211   0.159   4.492
27065WAT     H181437   4.276   0.225   4.455
27065WAT     H281438   4.222   0.072   4.444
27066WAT      O81439   2.070   2.576   8.599
27066WAT     H181440   2.140   2.647   8.593
27066WAT     H281441   2.076   2.517   8.519
27067WAT      O81442   0.945   4.425   5.292
27067WAT     H181443   0.866   4.366   5.273
27067WAT     H281444   1.027   4.385   5.250
27068WAT      O81445   9.381   8.701   1.410
27068WAT     H181446   9.438   8.783   1.414
27068WAT     H281447   9.407   8.639   1.484
27069WAT      O81448   5.480   2.889   4.736
27069WAT     H181449   5.457   2.958   4.667
27069WAT     H281450   5.399   2.869   4.791
27070WAT      O81451   4.071   1.971   0.590
27070WAT     H181452   4.142   1.984   0.659
27070WAT     H281453   4.114   1.958   0.500
27071WAT      O81454   3.337   5.498   0.743
27071WAT     H181455   3.296   5.576   0.790
27071WAT     H281456   3.284   5.477   0.660
27072WAT      O81457   4.901   4.110   9.052
27072WAT     H181458   4.904   4.170   9.132
27072WAT     H281459   4.874   4.162   8.972
27073WAT      O81460   1.037   6.888   2.721
27073WAT     H181461   1.126   6.875   2.676
27073WAT     H281462   1.049   6.882   2.820
27074WAT      O81463   1.290   6.304   6.963
27074WAT     H181464   1.217   6.241   6.935
27074WAT     H281465   1.258   6.358   7.041
27075WAT      O81466   1.725   5.500   2.594
27075WAT     H181467   1.771   5.422   2.636
27075WAT     H281468   1.646   5.526   2.650
27076WAT      O81469   7.906   1.513   2.073
27076WAT     H181470   7.836   1.450   2.040
27076WAT     H281471   7.940   1.568   1.996
27077WAT      O81472   5.867   1.186   0.188
27077WAT     H181473   5.873   1.181   0.288
27077WAT     H281474   5.927   1.259   0.155
27078WAT      O81475   1.721   9.576   7.137
27078WAT     H181476   1.663   9.632   7.078
27078WAT     H281477   1.811   9.619   7.147
27079WAT      O81478   1.980   0.535   9.839
27079WAT     H181479   1.887   0.568   9.857
27079WAT     H281480   2.010   0.475   9.913
27080WAT      O81481   6.538   2.114   2.036
27080WAT     H181482   6.448   2.157   2.047
27080WAT     H281483   6.575   2.137   1.946
27081WAT      O81484   3.020   3.595   4.734
27081WAT     H181485   3.023   3.538   4.652
27081WAT     H281486   2.969   3.547   4.806
27082WAT      O81487   5.896   2.302   7.508
27082WAT     H181488   5.988   2.319   7.541
27082WAT     H281489   5.837   2.379   7.532
27083WAT      O81490   1.803   4.453   2.235
27083WAT     H181491   1.805   4.528   2.170
27083WAT     H281492   1.736   4.472   2.307
27084WAT      O81493   6.636   0.068   2.851
27084WAT     H181494   6.543   0.034   2.866
27084WAT     H281495   6.702  -0.001   2.881
27085WAT      O81496   5.163   5.027   1.091
27085WAT     H181497   5.223   5.090   1.140
27085WAT     H281498   5.187   5.027   0.994
27086WAT      O81499   5.307   1.555   0.969
27086WAT     H181500   5.212   1.553   0.939
27086WAT     H281501   5.321   1.486   1.040
27087WAT      O81502   1.745   4.237   0.460
27087WAT     H181503   1.719   4.141   0.468
27087WAT     H281504   1.665   4.295   0.477
27088WAT      O81505   7.383   2.491   8.872
27088WAT     H181506   7.371   2.393   8.857
27088WAT     H281507   7.448   2.527   8.805
27089WAT      O81508   6.319   2.009   9.754
27089WAT     H181509   6.245   1.966   9.701
27089WAT     H281510   6.321   2.107   9.734
27090WAT      O81511   7.802   4.160   4.562
27090WAT     H181512   7.847   4.218   4.495
27090WAT     H281513   7.731   4.213   4.609
27091WAT      O81514   2.422   7.738   5.934
27091WAT     H181515   2.442   7.818   5.878
27091WAT     H281516   2.496   7.724   6.001
27092WAT      O81517   3.654   0.690   5.469
27092WAT     H181518   3.723   0.634   5.423
27092WAT     H281519   3.570   0.636   5.481
27093WAT      O81520   3.061   3.242   4.048
27093WAT     H181521   3.043   3.231   4.146
27093WAT     H281522   3.145   3.294   4.035
27094WAT      O81523   4.964   5.852   9.749
27094WAT     H181524   4.916   5.907   9.681
27094WAT     H281525   4.996   5.767   9.706
27095WAT      O81526   0.055   8.017   7.041
27095WAT     H181527  -0.027   8.065   7.071
27095WAT     H281528   0.135   8.059   7.084
27096WAT      O81529   0.104   6.931   2.562
27096WAT     H181530   0.184   6.987   2.584
27096WAT     H281531   0.106   6.847   2.616
27097WAT      O81532   5.777   9.680   5.425
27097WAT     H181533   5.733   9.593   5.404
27097WAT     H281534   5.722   9.755   5.388
27098WAT      O81535   4.614   3.808   3.768
27098WAT     H181536   4.651   3.718   3.789
27098WAT     H281537   4.534   3.826   3.826
27099WAT      O81538   6.671   0.808   2.659
27099WAT     H181539   6.697   0.905   2.657
27099WAT     H281540   6.572   0.801   2.662
27100WAT      O81541   2.362   9.717   5.650
27100WAT     H181542   2.342   9.813   5.669
27100WAT     H281543   2.393   9.672   5.733
27101WAT      O81544   4.701   2.843   2.810
27101WAT     H181545   4.613   2.878   2.843
27101WAT     H281546   4.702   2.844   2.710
27102WAT      O81547   1.277   2.355   5.263
27102WAT     H181548   1.303   2.417   5.337
27102WAT     H281549   1.180   2.334   5.271
27103WAT      O81550   2.508   2.463   1.906
27103WAT     H181551   2.465   2.510   1.829
27103WAT     H281552   2.465   2.374   1.920
27104WAT      O81553   7.558   9.332   6.009
27104WAT     H181554   7.611   9.290   5.935
27104WAT     H281555   7.520   9.260   6.067
27105WAT      O81556   3.826   3.126   7.680
27105WAT     H181557   3.779   3.167   7.759
27105WAT     H281558   3.761   3.119   7.604
27106WAT      O81559   6.055   2.313   9.271
27106WAT     H181560   5.985   2.297   9.339
27106WAT     H281561   6.025   2.384   9.207
27107WAT      O81562   0.648   1.019   5.256
27107WAT     H181563   0.666   1.009   5.158
27107WAT     H281564   0.641   1.116   5.279
27108WAT      O81565   0.550   5.593   1.011
27108WAT     H181566   0.561   5.546   1.099
27108WAT     H281567   0.596   5.540   0.940
27109WAT      O81568   2.526   9.774   3.891
27109WAT     H181569   2.448   9.799   3.833
27109WAT     H281570   2.493   9.740   3.979
27110WAT      O81571   1.586   1.813   3.905
27110WAT     H181572   1.539   1.828   3.817
27110WAT     H281573   1.560   1.723   3.941
27111WAT      O81574   4.994   3.969   8.000
27111WAT     H181575   4.955   3.925   7.919
27111WAT     H281576   5.012   3.901   8.070
27112WAT      O81577   4.995   8.639   2.814
27112WAT     H181578   4.915   8.579   2.824
27112WAT     H281579   5.033   8.628   2.723
27113WAT      O81580   4.076   0.350   3.590
27113WAT     H181581   4.077   0.324   3.493
27113WAT     H281582   4.170   0.357   3.624
27114WAT      O81583   4.307   3.310   8.892
27114WAT     H181584   4.241   3.235   8.905
27114WAT     H281585   4.283   3.362   8.810
27115WAT      O81586   7.946   5.511   2.387
27115WAT     H181587   7.991   5.597   2.362
27115WAT     H281588   7.882   5.485   2.315
27116WAT      O81589   5.774   1.431   0.823
27116WAT     H181590   5.772   1.435   0.723
27116WAT     H281591   5.866   1.404   0.853
27117WAT      O81592   3.639   1.125   7.386
27117WAT     H181593   3.635   1.221   7.360
27117WAT     H281594   3.734   1.100   7.405
27118WAT      O81595   3.169   2.579   9.362
27118WAT     H181596   3.226   2.659   9.345
27118WAT     H281597   3.073   2.606   9.366
27119WAT      O81598   8.761   1.233   7.817
27119WAT     H181599   8.762   1.220   7.916
27119WAT     H281600   8.854   1.249   7.784
27120WAT      O81601   7.172   1.688   8.869
27120WAT     H181602   7.200   1.664   8.962
27120WAT     H281603   7.206   1.780   8.847
27121WAT      O81604   8.069   7.695   6.006
27121WAT     H181605   8.011   7.677   5.927
27121WAT     H281606   8.163   7.667   5.986
27122WAT      O81607   4.093   0.096   6.127
27122WAT     H181608   4.003   0.111   6.086
27122WAT     H281609   4.128   0.181   6.165
27123WAT      O81610   4.324   4.468   0.708
27123WAT     H181611   4.411   4.474   0.660
27123WAT     H281612   4.269   4.394   0.669
27124WAT      O81613   0.903   5.398   5.882
27124WAT     H181614   0.995   5.396   5.921
27124WAT     H281615   0.896   5.332   5.808
27125WAT      O81616   1.719   0.223   0.853
27125WAT     H181617   1.629   0.246   0.890
27125WAT     H281618   1.748   0.134   0.889
27126WAT      O81619   0.734   2.109   6.486
27126WAT     H181620   0.639   2.141   6.495
27126WAT     H281621   0.768   2.079   6.575
27127WAT      O81622   3.189   6.292   0.002
27127WAT     H181623   3.094   6.322  -0.001
27127WAT     H281624   3.243   6.356   0.056
27128WAT      O81625   4.930   4.021   4.189
27128WAT     H181626   4.993   4.020   4.266
27128WAT     H281627   4.847   4.070   4.215
27129WAT      O81628   5.660   4.453   1.280
27129WAT     H181629   5.662   4.360   1.318
27129WAT     H281630   5.666   4.448   1.180
27130WAT      O81631   8.469   8.473   4.118
27130WAT     H181632   8.406   8.527   4.063
27130WAT     H281633   8.494   8.525   4.200
27131WAT      O81634   1.516   1.441   3.570
27131WAT     H181635   1.555   1.415   3.658
27131WAT     H281636   1.417   1.449   3.578
27132WAT      O81637   0.040   2.537   7.234
27132WAT     H181638   0.094   2.475   7.291
27132WAT     H281639  -0.057   2.514   7.242
27133WAT      O81640   6.113   6.306   4.800
27133WAT     H181641   6.049   6.232   4.776
27133WAT     H281642   6.072   6.362   4.872
27134WAT      O81643   2.519   9.467   9.831
27134WAT     H181644   2.457   9.418   9.893
27134WAT     H281645   2.614   9.442   9.853
27135WAT      O81646   0.510   4.171   8.238
27135WAT     H181647   0.571   4.250   8.244
27135WAT     H281648   0.520   4.115   8.320
27136WAT      O81649   2.406   7.181   5.306
27136WAT     H181650   2.348   7.255   5.340
27136WAT     H281651   2.454   7.138   5.382
27137WAT      O81652   6.140   2.599   5.110
27137WAT     H181653   6.092   2.551   5.037
27137WAT     H281654   6.082   2.671   5.146
27138WAT      O81655   7.725   1.174   2.986
27138WAT     H181656   7.809   1.210   3.027
27138WAT     H281657   7.662   1.249   2.966
27139WAT      O81658   9.530   6.513   7.408
27139WAT     H181659   9.536   6.470   7.498
27139WAT     H281660   9.592   6.468   7.345
27140WAT      O81661   8.990   7.152   4.952
27140WAT     H181662   8.891   7.164   4.961
27140WAT     H281663   9.018   7.177   4.859
27141WAT      O81664   0.323   1.922   0.703
27141WAT     H181665   0.243   1.926   0.762
27141WAT     H281666   0.395   1.870   0.748
27142WAT      O81667   2.382   5.847   1.556
27142WAT     H181668   2.406   5.876   1.464
27142WAT     H281669   2.394   5.923   1.619
27143WAT      O81670   1.202   2.254   6.957
27143WAT     H181671   1.120   2.216   6.914
27143WAT     H281672   1.235   2.192   7.028
27144WAT      O81673   2.668   9.563   2.001
27144WAT     H181674   2.763   9.540   1.984
27144WAT     H281675   2.661   9.660   2.024
27145WAT      O81676   0.441   3.754   9.656
27145WAT     H181677   0.499   3.701   9.594
27145WAT     H281678   0.385   3.818   9.603
27146WAT      O81679   1.750   8.194   4.275
27146WAT     H181680   1.810   8.204   4.195
27146WAT     H281681   1.795   8.235   4.354
27147WAT      O81682   2.757   7.999   5.890
27147WAT     H181683   2.713   8.013   5.801
27147WAT     H281684   2.814   8.078   5.913
27148WAT      O81685   2.646   1.830   0.130
27148WAT     H181686   2.667   1.771   0.052
27148WAT     H281687   2.664   1.781   0.215
27149WAT      O81688   4.180   4.298   0.561
27149WAT     H181689   4.085   4.302   0.529
27149WAT     H281690   4.227   4.222   0.516
27150WAT      O81691   3.803   9.014   0.300
27150WAT     H181692   3.901   9.032   0.304
27150WAT     H281693   3.782   8.931   0.352
27151WAT      O81694   4.470   0.186   4.843
27151WAT     H181695   4.407   0.226   4.776
27151WAT     H281696   4.485   0.090   4.822
27152WAT      O81697   1.255   1.680   1.984
27152WAT     H181698   1.209   1.742   1.921
27152WAT     H281699   1.332   1.636   1.939
27153WAT      O81700   4.186   7.200   4.707
27153WAT     H181701   4.229   7.186   4.617
27153WAT     H281702   4.098   7.153   4.709
27154WAT      O81703   2.583   8.502   2.493
27154WAT     H181704   2.608   8.460   2.580
27154WAT     H281705   2.484   8.512   2.488
27155WAT      O81706   0.845   2.380   3.960
27155WAT     H181707   0.820   2.421   4.047
27155WAT     H281708   0.921   2.432   3.920
27156WAT      O81709   8.956   4.624   9.196
27156WAT     H181710   8.991   4.595   9.285
27156WAT     H281711   8.990   4.715   9.174
27157WAT      O81712   5.008   1.085   5.139
27157WAT     H181713   4.942   1.152   5.173
27157WAT     H281714   4.959   1.010   5.094
27158WAT      O81715   8.292   7.368   4.511
27158WAT     H181716   8.311   7.422   4.429
27158WAT     H281717   8.271   7.274   4.485
27159WAT      O81718   7.927   4.169   3.024
27159WAT     H181719   7.954   4.197   2.932
27159WAT     H281720   7.992   4.206   3.090
27160WAT      O81721   0.421   6.209   5.480
27160WAT     H181722   0.460   6.189   5.570
27160WAT     H281723   0.325   6.181   5.479
27161WAT      O81724   2.876   5.740   0.663
27161WAT     H181725   2.851   5.698   0.575
27161WAT     H281726   2.874   5.671   0.735
27162WAT      O81727   8.665   8.710   6.228
27162WAT     H181728   8.632   8.782   6.167
27162WAT     H281729   8.759   8.687   6.204
27163WAT      O81730   8.240   1.215   1.276
27163WAT     H181731   8.178   1.240   1.202
27163WAT     H281732   8.302   1.292   1.294
27164WAT      O81733   5.541   6.433   0.520
27164WAT     H181734   5.558   6.514   0.463
27164WAT     H281735   5.467   6.379   0.481
27165WAT      O81736   1.848   3.310   7.759
27165WAT     H181737   1.803   3.397   7.779
27165WAT     H281738   1.946   3.319   7.776
27166WAT      O81739   6.826   3.082   3.220
27166WAT     H181740   6.747   3.127   3.260
27166WAT     H281741   6.797   3.000   3.170
27167WAT      O81742   8.767   3.680   6.140
27167WAT     H181743   8.845   3.624   6.168
27167WAT     H281744   8.684   3.624   6.141
27168WAT      O81745   5.115   3.190   9.164
27168WAT     H181746   5.042   3.125   9.186
27168WAT     H281747   5.202   3.141   9.155
27169WAT      O81748   0.087   9.646   5.325
27169WAT     H181749   0.163   9.641   5.260
27169WAT     H281750   0.059   9.742   5.336
27170WAT      O81751   8.918   8.759   8.593
27170WAT     H181752   8.954   8.852   8.596
27170WAT     H281753   8.870   8.744   8.506
27171WAT      O81754   7.565   3.642   7.216
27171WAT     H181755   7.556   3.695   7.300
27171WAT     H281756   7.555   3.703   7.137
27172WAT      O81757   4.769   2.598   5.333
27172WAT     H181758   4.824   2.596   5.417
27172WAT     H281759   4.672   2.593   5.358
27173WAT      O81760   5.633   5.201   9.126
27173WAT     H181761   5.561   5.269   9.113
27173WAT     H281762   5.599   5.110   9.102
27174WAT      O81763   8.281   6.662   1.303
27174WAT     H181764   8.322   6.616   1.382
27174WAT     H281765   8.203   6.608   1.270
27175WAT      O81766   5.497   2.138   8.047
27175WAT     H181767   5.523   2.060   8.104
27175WAT     H281768   5.566   2.152   7.976
27176WAT      O81769   8.614   0.058   7.515
27176WAT     H181770   8.612   0.071   7.614
27176WAT     H281771   8.521   0.059   7.479
27177WAT      O81772   6.772   1.285   4.109
27177WAT     H181773   6.734   1.216   4.048
27177WAT     H281774   6.817   1.357   4.055
27178WAT      O81775   4.899   0.685   3.051
27178WAT     H181776   4.958   0.758   3.085
27178WAT     H281777   4.941   0.644   2.970
27179WAT      O81778   6.090   9.533   2.873
27179WAT     H181779   6.013   9.594   2.893
27179WAT     H281780   6.099   9.521   2.775
27180WAT      O81781   6.015   6.491   9.042
27180WAT     H181782   5.965   6.508   8.957
27180WAT     H281783   6.085   6.421   9.026
27181WAT      O81784   7.785   2.804   3.985
27181WAT     H181785   7.814   2.787   4.079
27181WAT     H281786   7.742   2.894   3.978
27182WAT      O81787   4.506   0.606   8.430
27182WAT     H181788   4.560   0.624   8.513
27182WAT     H281789   4.467   0.514   8.436
27183WAT      O81790   9.455   3.678   5.053
27183WAT     H181791   9.434   3.753   4.990
27183WAT     H281792   9.483   3.715   5.141
27184WAT      O81793   4.739   7.588   2.228
27184WAT     H181794   4.808   7.540   2.283
27184WAT     H281795   4.726   7.540   2.141
27185WAT      O81796   3.735   7.337   2.650
27185WAT     H181797   3.804   7.288   2.597
27185WAT     H281798   3.698   7.277   2.721
27186WAT      O81799   0.805   1.622   7.713
27186WAT     H181800   0.731   1.555   7.702
27186WAT     H281801   0.812   1.650   7.808
27187WAT      O81802   4.791   0.525   1.682
27187WAT     H181803   4.807   0.546   1.585
27187WAT     H281804   4.709   0.468   1.690
27188WAT      O81805   5.271   9.689   7.719
27188WAT     H181806   5.304   9.767   7.666
27188WAT     H281807   5.325   9.608   7.697
27189WAT      O81808   9.717   3.552   4.668
27189WAT     H181809   9.648   3.624   4.664
27189WAT     H281810   9.675   3.464   4.645
27190WAT      O81811   5.298   1.178   7.074
27190WAT     H181812   5.230   1.202   7.005
27190WAT     H281813   5.356   1.105   7.039
27191WAT      O81814   1.674   0.888   6.709
27191WAT     H181815   1.763   0.907   6.751
27191WAT     H281816   1.658   0.953   6.635
27192WAT      O81817   0.040   3.621   8.530
27192WAT     H181818  -0.025   3.645   8.457
27192WAT     H281819   0.044   3.521   8.538
27193WAT      O81820   3.709   9.751   1.601
27193WAT     H181821   3.697   9.652   1.604
27193WAT     H281822   3.806   9.774   1.606
27194WAT      O81823   6.001   1.090   3.129
27194WAT     H181824   6.067   1.049   3.066
27194WAT     H281825   5.934   1.022   3.157
27195WAT      O81826   2.551   6.341   3.533
27195WAT     H181827   2.636   6.337   3.480
27195WAT     H281828   2.573   6.355   3.630
27196WAT      O81829   0.345   1.721   7.884
27196WAT     H181830   0.405   1.660   7.935
27196WAT     H281831   0.338   1.809   7.932
27197WAT      O81832   2.181   9.216   0.339
27197WAT     H181833   2.144   9.294   0.390
27197WAT     H281834   2.124   9.199   0.259
27198WAT      O81835   6.826   7.459   7.484
27198WAT     H181836   6.773   7.541   7.461
27198WAT     H281837   6.854   7.463   7.580
27199WAT      O81838   8.165   5.634   1.601
27199WAT     H181839   8.194   5.602   1.511
27199WAT     H281840   8.236   5.694   1.639
27200WAT      O81841   8.911   8.153   7.430
27200WAT     H181842   8.877   8.234   7.477
27200WAT     H281843   8.903   8.073   7.490
27201WAT      O81844   8.439   4.628   2.603
27201WAT     H181845   8.471   4.700   2.542
27201WAT     H281846   8.517   4.584   2.647
27202WAT      O81847   9.300   5.459   2.161
27202WAT     H181848   9.301   5.541   2.218
27202WAT     H281849   9.359   5.472   2.082
27203WAT      O81850   1.389   4.871   7.614
27203WAT     H181851   1.447   4.845   7.537
27203WAT     H281852   1.380   4.971   7.617
27204WAT      O81853   4.450   1.898   6.056
27204WAT     H181854   4.368   1.847   6.080
27204WAT     H281855   4.450   1.918   5.958
27205WAT      O81856   7.034   5.397   9.016
27205WAT     H181857   6.947   5.356   8.988
27205WAT     H281858   7.037   5.493   8.986
27206WAT      O81859   5.936   1.595   9.694
27206WAT     H181860   5.996   1.624   9.769
27206WAT     H281861   5.982   1.525   9.641
27207WAT      O81862   3.181   1.117   3.538
27207WAT     H181863   3.261   1.059   3.556
27207WAT     H281864   3.188   1.154   3.446
27208WAT      O81865   9.254   3.812   0.138
27208WAT     H181866   9.230   3.860   0.054
27208WAT     H281867   9.196   3.730   0.147
27209WAT      O81868   2.935   9.479   0.820
27209WAT     H181869   2.901   9.485   0.914
27209WAT     H281870   2.870   9.524   0.759
27210WAT      O81871   2.439   1.218   9.883
27210WAT     H181872   2.536   1.206   9.908
27210WAT     H281873   2.405   1.303   9.923
27211WAT      O81874   6.586   8.171   7.327
27211WAT     H181875   6.618   8.077   7.324
27211WAT     H281876   6.663   8.232   7.350
27212WAT      O81877   8.355   4.666   5.987
27212WAT     H181878   8.335   4.724   6.066
27212WAT     H281879   8.307   4.580   5.996
27213WAT      O81880   8.813   9.758   1.896
27213WAT     H181881   8.880   9.734   1.826
27213WAT     H281882   8.724   9.772   1.853
27214WAT      O81883   3.817   8.458   0.302
27214WAT     H181884   3.852   8.389   0.366
27214WAT     H281885   3.724   8.485   0.330
27215WAT      O81886   5.763   0.469   3.685
27215WAT     H181887   5.856   0.436   3.700
27215WAT     H281888   5.698   0.408   3.730
27216WAT      O81889   8.634   2.264   1.768
27216WAT     H181890   8.707   2.286   1.832
27216WAT     H281891   8.626   2.337   1.700
27217WAT      O81892   6.043   2.626   0.392
27217WAT     H181893   6.107   2.603   0.466
27217WAT     H281894   6.077   2.705   0.342
27218WAT      O81895   4.144   1.158   4.504
27218WAT     H181896   4.099   1.175   4.416
27218WAT     H281897   4.238   1.192   4.501
27219WAT      O81898   9.464   1.794   1.478
27219WAT     H181899   9.477   1.698   1.499
27219WAT     H281900   9.505   1.850   1.550
27220WAT      O81901   3.582   4.339   7.006
27220WAT     H181902   3.614   4.434   7.006
27220WAT     H281903   3.482   4.339   7.006
27221WAT      O81904   8.908   9.181   4.028
27221WAT     H181905   8.894   9.273   4.065
27221WAT     H281906   8.845   9.166   3.952
27222WAT      O81907   1.989   1.882   4.580
27222WAT     H181908   2.022   1.787   4.574
27222WAT     H281909   1.905   1.884   4.634
27223WAT      O81910   0.569   7.161   1.471
27223WAT     H181911   0.537   7.225   1.402
27223WAT     H281912   0.498   7.093   1.489
27224WAT      O81913   3.762   7.939   6.186
27224WAT     H181914   3.817   7.939   6.269
27224WAT     H281915   3.703   7.858   6.185
27225WAT      O81916   8.009   9.636   3.549
27225WAT     H181917   8.094   9.601   3.587
27225WAT     H281918   7.941   9.562   3.545
27226WAT      O81919   0.825   1.466   5.639
27226WAT     H181920   0.887   1.511   5.703
27226WAT     H281921   0.744   1.432   5.688
27227WAT      O81922   5.970   1.575   8.580
27227WAT     H181923   5.925   1.657   8.616
27227WAT     H281924   5.951   1.498   8.641
27228WAT      O81925   9.409   8.119   1.789
27228WAT     H181926   9.439   8.036   1.741
27228WAT     H281927   9.382   8.188   1.722
27229WAT      O81928   8.756   0.543   3.418
27229WAT     H181929   8.701   0.522   3.338
27229WAT     H281930   8.853   0.541   3.392
27230WAT      O81931   2.964   2.221   0.168
27230WAT     H181932   2.985   2.215   0.070
27230WAT     H281933   3.049   2.228   0.220
27231WAT      O81934   1.822   3.365   6.591
27231WAT     H181935   1.726   3.345   6.609
27231WAT     H281936   1.846   3.334   6.499
27232WAT      O81937   4.454   3.350   8.464
27232WAT     H181938   4.514   3.301   8.527
27232WAT     H281939   4.363   3.309   8.466
27233WAT      O81940   0.651   6.339   2.573
27233WAT     H181941   0.627   6.268   2.639
27233WAT     H281942   0.592   6.332   2.493
27234WAT      O81943   3.543   0.278   0.273
27234WAT     H181944   3.446   0.262   0.257
27234WAT     H281945   3.557   0.309   0.367
27235WAT      O81946   0.550   6.083   7.977
27235WAT     H181947   0.502   6.142   7.912
27235WAT     H281948   0.605   6.016   7.926
27236WAT      O81949   7.208   6.171   9.182
27236WAT     H181950   7.264   6.211   9.255
27236WAT     H281951   7.111   6.177   9.207
27237WAT      O81952   5.947   7.787   7.523
27237WAT     H181953   6.042   7.754   7.521
27237WAT     H281954   5.885   7.710   7.504
27238WAT      O81955   0.476   0.796   5.974
27238WAT     H181956   0.433   0.886   5.970
27238WAT     H281957   0.409   0.726   5.948
27239WAT      O81958   4.389   3.121   3.552
27239WAT     H181959   4.485   3.148   3.548
27239WAT     H281960   4.346   3.137   3.463
27240WAT      O81961   9.752   7.619   7.702
27240WAT     H181962   9.753   7.646   7.798
27240WAT     H281963   9.845   7.598   7.672
27241WAT      O81964   9.411   3.825   6.488
27241WAT     H181965   9.414   3.849   6.585
27241WAT     H281966   9.341   3.754   6.474
27242WAT      O81967   5.251   3.089   7.528
27242WAT     H181968   5.171   3.053   7.482
27242WAT     H281969   5.244   3.072   7.627
27243WAT      O81970   5.744   3.712   5.971
27243WAT     H181971   5.823   3.669   5.928
27243WAT     H281972   5.671   3.723   5.904
27244WAT      O81973   7.236   9.421   4.058
27244WAT     H181974   7.289   9.449   4.137
27244WAT     H281975   7.226   9.321   4.058
27245WAT      O81976   6.382   1.099   5.836
27245WAT     H181977   6.387   1.196   5.809
27245WAT     H281978   6.462   1.076   5.891
27246WAT      O81979   6.031   3.227   1.446
27246WAT     H181980   6.007   3.250   1.540
27246WAT     H281981   6.130   3.211   1.439
27247WAT      O81982   5.257   3.042   1.443
27247WAT     H181983   5.189   3.113   1.463
27247WAT     H281984   5.235   2.960   1.496
27248WAT      O81985   1.663   8.784   4.568
27248WAT     H181986   1.590   8.809   4.632
27248WAT     H281987   1.641   8.698   4.524
27249WAT      O81988   6.359   8.895   9.332
27249WAT     H181989   6.276   8.841   9.319
27249WAT     H281990   6.425   8.843   9.387
27250WAT      O81991   3.701   5.577   9.274
27250WAT     H181992   3.699   5.521   9.356
27250WAT     H281993   3.649   5.532   9.201
27251WAT      O81994   4.279   4.707   6.223
27251WAT     H181995   4.273   4.623   6.277
27251WAT     H281996   4.375   4.733   6.212
27252WAT      O81997   1.165   8.746   1.734
27252WAT     H181998   1.134   8.658   1.700
27252WAT     H281999   1.228   8.732   1.810
27253WAT      O82000   6.087   0.937   4.843
27253WAT     H182001   6.099   1.033   4.869
27253WAT     H282002   6.090   0.929   4.743
27254WAT      O82003   6.098   0.281   3.038
27254WAT     H182004   6.070   0.294   2.943
27254WAT     H282005   6.078   0.187   3.066
27255WAT      O82006   6.545   3.275   8.987
27255WAT     H182007   6.453   3.313   8.979
27255WAT     H282008   6.572   3.235   8.899
27256WAT      O82009   1.482   3.380   9.256
27256WAT     H182010   1.557   3.340   9.309
27256WAT     H282011   1.518   3.451   9.196
27257WAT      O82012   4.101   3.265   9.560
27257WAT     H182013   4.080   3.223   9.471
27257WAT     H282014   4.029   3.331   9.583
27258WAT      O82015   1.750   8.955   7.790
27258WAT     H182016   1.803   8.875   7.763
27258WAT     H282017   1.783   9.035   7.739
27259WAT      O82018   7.231   8.443   6.551
27259WAT     H182019   7.253   8.453   6.454
27259WAT     H282020   7.141   8.401   6.561
27260WAT      O82021   1.115   3.910   3.304
27260WAT     H182022   1.200   3.930   3.254
27260WAT     H282023   1.064   3.995   3.318
27261WAT      O82024   9.665   3.145   4.746
27261WAT     H182025   9.618   3.201   4.678
27261WAT     H282026   9.631   3.168   4.837
27262WAT      O82027   3.751   2.935   2.607
27262WAT     H182028   3.716   2.981   2.525
27262WAT     H282029   3.831   2.984   2.641
27263WAT      O82030   6.889   8.227   3.621
27263WAT     H182031   6.983   8.257   3.608
27263WAT     H282032   6.848   8.204   3.533
27264WAT      O82033   1.754   0.037   8.562
27264WAT     H182034   1.728   0.133   8.566
27264WAT     H282035   1.673  -0.019   8.548
27265WAT      O82036   4.780   2.692   4.929
27265WAT     H182037   4.781   2.779   4.878
27265WAT     H282038   4.874   2.667   4.953
27266WAT      O82039   6.046   8.509   3.435
27266WAT     H182040   6.071   8.525   3.339
27266WAT     H282041   5.975   8.440   3.440
27267WAT      O82042   7.922   3.297   8.838
27267WAT     H182043   7.972   3.384   8.830
27267WAT     H282044   7.837   3.311   8.888
27268WAT      O82045   1.558   8.042   5.131
27268WAT     H182046   1.494   8.024   5.206
27268WAT     H282047   1.643   7.993   5.147
27269WAT      O82048   5.361   2.485   7.883
27269WAT     H182049   5.437   2.473   7.818
27269WAT     H282050   5.275   2.492   7.833
27270WAT      O82051   1.343   6.754   7.591
27270WAT     H182052   1.291   6.745   7.506
27270WAT     H282053   1.440   6.736   7.573
27271WAT      O82054   8.091   2.055   2.043
27271WAT     H182055   8.014   1.997   2.067
27271WAT     H282056   8.089   2.138   2.097
27272WAT      O82057   4.471   5.557   2.824
27272WAT     H182058   4.375   5.578   2.804
27272WAT     H282059   4.482   5.542   2.922
27273WAT      O82060   5.521   3.310   5.932
27273WAT     H182061   5.573   3.322   6.017
27273WAT     H282062   5.540   3.386   5.870
27274WAT      O82063   9.209   4.802   8.878
27274WAT     H182064   9.172   4.835   8.792
27274WAT     H282065   9.306   4.783   8.868
27275WAT      O82066   4.783   9.274   6.797
27275WAT     H182067   4.740   9.350   6.846
27275WAT     H282068   4.722   9.194   6.798
27276WAT      O82069   1.397   8.476   6.706
27276WAT     H182070   1.411   8.569   6.673
27276WAT     H282071   1.312   8.439   6.668
27277WAT      O82072   2.162   6.851   0.214
27277WAT     H182073   2.193   6.757   0.227
27277WAT     H282074   2.095   6.875   0.285
27278WAT      O82075   1.641   8.883   4.245
27278WAT     H182076   1.667   8.935   4.327
27278WAT     H282077   1.695   8.799   4.241
27279WAT      O82078   2.489   0.973   7.112
27279WAT     H182079   2.459   0.926   7.195
27279WAT     H282080   2.565   0.923   7.071
27280WAT      O82081   3.171   1.819   5.883
27280WAT     H182082   3.196   1.905   5.838
27280WAT     H282083   3.181   1.828   5.982
27281WAT      O82084   5.671   0.479   8.376
27281WAT     H182085   5.615   0.527   8.444
27281WAT     H282086   5.737   0.542   8.337
27282WAT      O82087   2.256   7.796   2.231
27282WAT     H182088   2.225   7.814   2.324
27282WAT     H282089   2.177   7.776   2.173
27283WAT      O82090   8.563   6.069   9.470
27283WAT     H182091   8.547   6.084   9.373
27283WAT     H282092   8.476   6.068   9.519
27284WAT      O82093   7.894   6.728   6.684
27284WAT     H182094   7.972   6.674   6.654
27284WAT     H282095   7.907   6.755   6.780
27285WAT      O82096   6.466   0.134   6.311
27285WAT     H182097   6.519   0.053   6.335
27285WAT     H282098   6.409   0.115   6.231
27286WAT      O82099   9.545   7.743   0.495
27286WAT     H182100   9.621   7.693   0.536
27286WAT     H282101   9.475   7.678   0.463
27287WAT      O82102   0.744   9.473   2.613
27287WAT     H182103   0.839   9.456   2.638
27287WAT     H282104   0.685   9.444   2.688
27288WAT      O82105   0.950   4.393   9.310
27288WAT     H182106   0.872   4.454   9.317
27288WAT     H282107   0.930   4.320   9.244
27289WAT      O82108   6.599   7.656   5.328
27289WAT     H182109   6.579   7.560   5.347
27289WAT     H282110   6.575   7.711   5.408
27290WAT      O82111   2.513   6.863   5.045
27290WAT     H182112   2.606   6.871   5.081
27290WAT     H282113   2.447   6.893   5.115
27291WAT      O82114   2.740   4.252   9.650
27291WAT     H182115   2.819   4.194   9.634
27291WAT     H282116   2.711   4.293   9.563
27292WAT      O82117   7.053   0.951   0.583
27292WAT     H182118   6.978   0.936   0.519
27292WAT     H282119   7.044   1.042   0.624
27293WAT      O82120   9.530   1.058   8.262
27293WAT     H182121   9.546   1.101   8.173
27293WAT     H282122   9.443   1.009   8.259
27294WAT      O82123   6.372   4.504   6.133
27294WAT     H182124   6.359   4.405   6.137
27294WAT     H282125   6.434   4.532   6.207
27295WAT      O82126   6.357   3.637   7.531
27295WAT     H182127   6.361   3.547   7.488
27295WAT     H282128   6.342   3.626   7.629
27296WAT      O82129   8.022   2.915   5.708
27296WAT     H182130   8.122   2.911   5.708
27296WAT     H282131   7.985   2.835   5.662
27297WAT      O82132   3.456   9.232   4.232
27297WAT     H182133   3.545   9.228   4.187
27297WAT     H282134   3.383   9.225   4.164
27298WAT      O82135   8.957   3.174   3.368
27298WAT     H182136   9.044   3.187   3.416
27298WAT     H282137   8.940   3.252   3.308
27299WAT      O82138   9.391   0.386   0.527
27299WAT     H182139   9.350   0.324   0.594
27299WAT     H282140   9.481   0.414   0.558
27300WAT      O82141   3.571   8.152   6.773
27300WAT     H182142   3.532   8.244   6.785
27300WAT     H282143   3.546   8.095   6.852
27301WAT      O82144   9.794   8.868   1.853
27301WAT     H182145   9.780   8.963   1.882
27301WAT     H282146   9.718   8.840   1.793
27302WAT      O82147   2.615   0.185   7.538
27302WAT     H182148   2.550   0.222   7.605
27302WAT     H282149   2.684   0.132   7.586
27303WAT      O82150   1.973   9.658   2.769
27303WAT     H182151   1.904   9.587   2.756
27303WAT     H282152   2.025   9.671   2.685
27304WAT      O82153   6.732   0.497   3.829
27304WAT     H182154   6.760   0.575   3.885
27304WAT     H282155   6.679   0.433   3.885
27305WAT      O82156   4.366   6.539   6.039
27305WAT     H182157   4.342   6.633   6.066
27305WAT     H282158   4.334   6.475   6.109
27306WAT      O82159   8.143   3.504   4.846
27306WAT     H182160   8.079   3.434   4.813
27306WAT     H282161   8.113   3.593   4.814
27307WAT      O82162   2.442   5.146   0.776
27307WAT     H182163   2.432   5.049   0.798
27307WAT     H282164   2.357   5.181   0.737
27308WAT      O82165   7.280   4.239   3.850
27308WAT     H182166   7.264   4.183   3.932
27308WAT     H282167   7.377   4.262   3.844
27309WAT      O82168   4.819   4.210   3.494
27309WAT     H182169   4.872   4.127   3.514
27309WAT     H282170   4.787   4.207   3.399
27310WAT      O82171   8.486   5.281   1.152
27310WAT     H182172   8.505   5.379   1.148
27310WAT     H282173   8.532   5.235   1.076
27311WAT      O82174   3.316   7.712   9.884
27311WAT     H182175   3.283   7.712   9.979
27311WAT     H282176   3.331   7.806   9.854
27312WAT      O82177   1.060   2.229   8.774
27312WAT     H182178   0.968   2.256   8.802
27312WAT     H282179   1.054   2.157   8.704
27313WAT      O82180   7.451   7.179   6.945
27313WAT     H182181   7.390   7.219   6.877
27313WAT     H282182   7.415   7.090   6.974
27314WAT      O82183   0.937   4.630   4.281
27314WAT     H182184   0.893   4.547   4.316
27314WAT     H282185   0.904   4.710   4.331
27315WAT      O82186   9.686   1.288   2.709
27315WAT     H182187   9.590   1.261   2.716
27315WAT     H282188   9.701   1.370   2.764
27316WAT      O82189   9.256   6.498   3.971
27316WAT     H182190   9.305   6.585   3.975
27316WAT     H282191   9.288   6.445   3.893
27317WAT      O82192   4.589   1.133   5.451
27317WAT     H182193   4.588   1.037   5.478
27317WAT     H282194   4.573   1.139   5.352
27318WAT      O82195   8.756   3.989   5.253
27318WAT     H182196   8.852   4.002   5.277
27318WAT     H282197   8.702   3.980   5.336
27319WAT      O82198   0.648   7.449   0.001
27319WAT     H182199   0.645   7.482   0.096
27319WAT     H282200   0.565   7.478  -0.047
27320WAT      O82201   5.815   1.858   1.375
27320WAT     H182202   5.850   1.871   1.468
27320WAT     H282203   5.784   1.946   1.338
27321WAT      O82204   9.115   8.955   0.788
27321WAT     H182205   9.093   8.878   0.729
27321WAT     H282206   9.031   8.991   0.829
27322WAT      O82207   1.006   1.712   9.664
27322WAT     H182208   1.104   1.729   9.660
27322WAT     H282209   0.972   1.690   9.573
27323WAT      O82210   6.582   4.404   5.353
27323WAT     H182211   6.520   4.333   5.385
27323WAT     H282212   6.540   4.453   5.277
27324WAT      O82213   0.181   3.942   4.172
27324WAT     H182214   0.199   3.858   4.122
27324WAT     H282215   0.088   3.939   4.209
27325WAT      O82216   0.166   5.612   2.021
27325WAT     H182217   0.085   5.574   1.977
27325WAT     H282218   0.145   5.704   2.055
27326WAT      O82219   6.766   9.800   2.164
27326WAT     H182220   6.838   9.837   2.106
27326WAT     H282221   6.794   9.806   2.260
27327WAT      O82222   8.939   8.436   5.282
27327WAT     H182223   8.876   8.496   5.332
27327WAT     H282224   9.032   8.472   5.290
27328WAT      O82225   4.044   0.900   6.353
27328WAT     H182226   3.989   0.898   6.436
27328WAT     H282227   3.985   0.909   6.273
27329WAT      O82228   7.946   2.670   9.048
27329WAT     H182229   8.013   2.600   9.024
27329WAT     H282230   7.922   2.663   9.145
27330WAT      O82231   3.085   1.445   0.254
27330WAT     H182232   3.060   1.540   0.237
27330WAT     H282233   3.033   1.410   0.332
27331WAT      O82234   5.726   1.115   1.739
27331WAT     H182235   5.708   1.164   1.824
27331WAT     H282236   5.823   1.091   1.734
27332WAT      O82237   1.288   4.573   3.602
27332WAT     H182238   1.195   4.585   3.637
27332WAT     H282239   1.324   4.485   3.631
27333WAT      O82240   1.784   1.262   2.079
27333WAT     H182241   1.860   1.198   2.071
27333WAT     H282242   1.787   1.329   2.005
27334WAT      O82243   8.321   0.537   9.534
27334WAT     H182244   8.357   0.587   9.613
27334WAT     H282245   8.387   0.469   9.504
27335WAT      O82246   0.344   6.195   9.016
27335WAT     H182247   0.309   6.111   9.058
27335WAT     H282248   0.432   6.218   9.058
27336WAT      O82249   2.584   3.893   0.293
27336WAT     H182250   2.507   3.943   0.252
27336WAT     H282251   2.668   3.945   0.279
27337WAT      O82252   9.254   4.194   6.913
27337WAT     H182253   9.317   4.153   6.848
27337WAT     H282254   9.261   4.294   6.907
27338WAT      O82255   9.419   6.883   2.548
27338WAT     H182256   9.493   6.847   2.605
27338WAT     H282257   9.336   6.828   2.563
27339WAT      O82258   0.273   1.179   2.388
27339WAT     H182259   0.352   1.119   2.399
27339WAT     H282260   0.284   1.234   2.305
27340WAT      O82261   0.732   2.743   9.273
27340WAT     H182262   0.724   2.655   9.321
27340WAT     H282263   0.649   2.796   9.286
27341WAT      O82264   7.971   4.777   7.021
27341WAT     H182265   7.932   4.825   6.942
27341WAT     H282266   7.979   4.679   7.000
27342WAT      O82267   1.409   5.344   6.957
27342WAT     H182268   1.475   5.391   7.016
27342WAT     H282269   1.368   5.268   7.007
27343WAT      O82270   5.152   9.636   1.685
27343WAT     H182271   5.211   9.590   1.751
27343WAT     H282272   5.169   9.599   1.594
27344WAT      O82273   3.250   4.020   5.680
27344WAT     H182274   3.210   4.111   5.692
27344WAT     H282275   3.345   4.029   5.650
27345WAT      O82276   4.809   7.416   2.872
27345WAT     H182277   4.861   7.347   2.821
27345WAT     H282278   4.873   7.470   2.927
27346WAT      O82279   2.816   1.911   9.236
27346WAT     H182280   2.844   1.831   9.290
27346WAT     H282281   2.789   1.985   9.298
27347WAT      O82282   2.865   0.945   5.234
27347WAT     H182283   2.847   1.020   5.298
27347WAT     H282284   2.956   0.955   5.195
27348WAT      O82285   8.771   8.774   7.108
27348WAT     H182286   8.735   8.685   7.137
27348WAT     H282287   8.699   8.843   7.114
27349WAT      O82288   4.087   7.907   8.483
27349WAT     H182289   4.026   7.981   8.510
27349WAT     H282290   4.117   7.858   8.565
27350WAT      O82291   6.643   9.106   8.766
27350WAT     H182292   6.706   9.184   8.766
27350WAT     H282293   6.686   9.028   8.722
27351WAT      O82294   0.777   7.814   6.984
27351WAT     H182295   0.756   7.910   6.963
27351WAT     H282296   0.776   7.761   6.899
27352WAT      O82297   5.998   7.270   5.256
27352WAT     H182298   6.034   7.234   5.170
27352WAT     H282299   6.066   7.257   5.328
27353WAT      O82300   8.429   7.859   0.315
27353WAT     H182301   8.497   7.893   0.380
27353WAT     H282302   8.431   7.759   0.314
27354WAT      O82303   4.796   4.209   6.335
27354WAT     H182304   4.869   4.268   6.303
27354WAT     H282305   4.762   4.153   6.260
27355WAT      O82306   1.825   1.766   0.773
27355WAT     H182307   1.816   1.865   0.768
27355WAT     H282308   1.745   1.728   0.819
27356WAT      O82309   1.987   4.712   8.071
27356WAT     H182310   1.967   4.740   8.165
27356WAT     H282311   2.067   4.652   8.070
27357WAT      O82312   4.908   0.898   8.880
27357WAT     H182313   4.942   0.893   8.786
27357WAT     H282314   4.982   0.875   8.943
27358WAT      O82315   1.229   1.471   8.072
27358WAT     H182316   1.200   1.474   7.976
27358WAT     H282317   1.187   1.547   8.121
27359WAT      O82318   7.164   9.593   6.614
27359WAT     H182319   7.187   9.505   6.655
27359WAT     H282320   7.142   9.659   6.687
27360WAT      O82321   1.188   9.644   9.064
27360WAT     H182322   1.275   9.642   9.114
27360WAT     H282323   1.180   9.730   9.015
27361WAT      O82324   3.328   8.157   0.689
27361WAT     H182325   3.362   8.173   0.782
27361WAT     H282326   3.404   8.155   0.625
27362WAT      O82327   5.054   9.773   6.853
27362WAT     H182328   5.050   9.673   6.848
27362WAT     H282329   4.962   9.810   6.868
27363WAT      O82330   5.194   0.898   5.826
27363WAT     H182331   5.200   0.866   5.920
27363WAT     H282332   5.098   0.901   5.798
27364WAT      O82333   6.911   2.034   5.812
27364WAT     H182334   6.923   2.123   5.855
27364WAT     H282335   6.928   2.042   5.714
27365WAT      O82336   6.182   7.578   8.738
27365WAT     H182337   6.207   7.514   8.811
27365WAT     H282338   6.239   7.660   8.744
27366WAT      O82339   1.049   7.196   1.506
27366WAT     H182340   0.958   7.233   1.490
27366WAT     H282341   1.099   7.256   1.569
27367WAT      O82342   8.815   0.153   9.856
27367WAT     H182343   8.752   0.129   9.782
27367WAT     H282344   8.764   0.199   9.929
27368WAT      O82345   6.581   6.380   2.219
27368WAT     H182346   6.631   6.348   2.138
27368WAT     H282347   6.597   6.317   2.295
27369WAT      O82348   0.796   5.643   8.554
27369WAT     H182349   0.723   5.614   8.492
27369WAT     H282350   0.831   5.732   8.524
27370WAT      O82351   0.555   6.004   7.368
27370WAT     H182352   0.587   5.916   7.402
27370WAT     H282353   0.460   6.017   7.394
27371WAT      O82354   3.327   7.654   1.800
27371WAT     H182355   3.380   7.570   1.810
27371WAT     H282356   3.335   7.708   1.884
27372WAT      O82357   4.309   2.139   3.654
27372WAT     H182358   4.228   2.162   3.599
27372WAT     H282359   4.343   2.221   3.699
27373WAT      O82360   8.308   2.815   8.474
27373WAT     H182361   8.283   2.894   8.418
27373WAT     H282362   8.232   2.791   8.535
27374WAT      O82363   1.810   6.943   8.434
27374WAT     H182364   1.837   7.022   8.489
27374WAT     H282365   1.711   6.931   8.439
27375WAT      O82366   5.503   7.578   0.817
27375WAT     H182367   5.473   7.603   0.725
27375WAT     H282368   5.495   7.479   0.829
27376WAT      O82369   3.177   0.447   8.450
27376WAT     H182370   3.239   0.389   8.502
27376WAT     H282371   3.185   0.542   8.480
27377WAT      O82372   4.183   3.448   2.970
27377WAT     H182373   4.183   3.541   2.931
27377WAT     H282374   4.128   3.447   3.053
27378WAT      O82375   8.017   5.329   6.091
27378WAT     H182376   8.047   5.322   5.996
27378WAT     H282377   7.933   5.382   6.096
27379WAT      O82378   9.001   2.339   8.425
27379WAT     H182379   8.920   2.366   8.477
27379WAT     H282380   9.054   2.421   8.402
27380WAT      O82381   5.185   0.065   8.140
27380WAT     H182382   5.274   0.050   8.183
27380WAT     H282383   5.187   0.149   8.087
27381WAT      O82384   2.758   5.678   0.155
27381WAT     H182385   2.731   5.741   0.082
27381WAT     H282386   2.678   5.628   0.187
27382WAT      O82387   5.464   6.958   3.225
27382WAT     H182388   5.485   6.861   3.218
27382WAT     H282389   5.539   7.012   3.187
27383WAT      O82390   7.572   7.930   8.431
27383WAT     H182391   7.596   8.013   8.480
27383WAT     H282392   7.610   7.851   8.480
27384WAT      O82393   6.052   6.604   4.322
27384WAT     H182394   6.066   6.533   4.391
27384WAT     H282395   6.138   6.653   4.307
27385WAT      O82396   4.672   8.796   9.182
27385WAT     H182397   4.643   8.890   9.168
27385WAT     H282398   4.616   8.754   9.254
27386WAT      O82399   0.633   6.430   0.420
27386WAT     H182400   0.728   6.414   0.394
27386WAT     H282401   0.576   6.354   0.387
27387WAT      O82402   8.505   4.655   3.917
27387WAT     H182403   8.411   4.637   3.886
27387WAT     H282404   8.541   4.735   3.868
27388WAT      O82405   4.727   5.728   4.411
27388WAT     H182406   4.769   5.734   4.320
27388WAT     H282407   4.668   5.807   4.425
27389WAT      O82408   0.605   4.569   1.695
27389WAT     H182409   0.635   4.661   1.668
27389WAT     H282410   0.509   4.557   1.670
27390WAT      O82411   3.748   6.205   6.214
27390WAT     H182412   3.818   6.134   6.211
27390WAT     H282413   3.743   6.251   6.125
27391WAT      O82414   7.259   2.310   9.713
27391WAT     H182415   7.270   2.408   9.725
27391WAT     H282416   7.163   2.285   9.727
27392WAT      O82417   6.460   9.351   3.325
27392WAT     H182418   6.497   9.259   3.338
27392WAT     H282419   6.365   9.354   3.357
27393WAT      O82420   6.177   0.079   5.521
27393WAT     H182421   6.163   0.102   5.617
27393WAT     H282422   6.138  -0.011   5.503
27394WAT      O82423   9.374   5.208   8.983
27394WAT     H182424   9.284   5.192   8.944
27394WAT     H282425   9.397   5.305   8.979
27395WAT      O82426   7.799   0.169   6.027
27395WAT     H182427   7.845   0.114   5.957
27395WAT     H282428   7.865   0.200   6.094
27396WAT      O82429   3.375   3.568   5.048
27396WAT     H182430   3.286   3.604   5.019
27396WAT     H282431   3.443   3.642   5.045
27397WAT      O82432   2.888   7.393   1.473
27397WAT     H182433   2.949   7.471   1.484
27397WAT     H282434   2.916   7.341   1.392
27398WAT      O82435   8.132   8.386   0.165
27398WAT     H182436   8.191   8.323   0.115
27398WAT     H282437   8.159   8.480   0.146
27399WAT      O82438   6.654   4.216   1.396
27399WAT     H182439   6.608   4.287   1.449
27399WAT     H282440   6.752   4.237   1.390
27400WAT      O82441   2.493   3.181   6.319
27400WAT     H182442   2.536   3.249   6.260
27400WAT     H282443   2.527   3.090   6.295
27401WAT      O82444   7.459   0.417   1.202
27401WAT     H182445   7.421   0.435   1.292
27401WAT     H282446   7.544   0.468   1.190
27402WAT      O82447   6.158   3.438   3.674
27402WAT     H182448   6.165   3.339   3.676
27402WAT     H282449   6.064   3.466   3.691
27403WAT      O82450   1.494   5.082   0.732
27403WAT     H182451   1.534   5.115   0.818
27403WAT     H282452   1.557   5.098   0.657
27404WAT      O82453   2.278   3.290   5.893
27404WAT     H182454   2.225   3.296   5.978
27404WAT     H282455   2.353   3.225   5.906
27405WAT      O82456   0.046   6.582   9.755
27405WAT     H182457   0.055   6.658   9.819
27405WAT     H282458   0.113   6.511   9.778
27406WAT      O82459   8.816   4.215   0.958
27406WAT     H182460   8.736   4.155   0.954
27406WAT     H282461   8.786   4.308   0.977
27407WAT      O82462   4.750   3.100   0.028
27407WAT     H182463   4.726   3.033   0.099
27407WAT     H282464   4.832   3.069  -0.021
27408WAT      O82465   3.512   2.542   2.569
27408WAT     H182466   3.591   2.510   2.620
27408WAT     H282467   3.449   2.466   2.554
27409WAT      O82468   5.067   0.807   4.592
27409WAT     H182469   5.074   0.856   4.505
27409WAT     H282470   4.997   0.737   4.585
27410WAT      O82471   6.680   0.344   1.933
27410WAT     H182472   6.611   0.339   2.005
27410WAT     H282473   6.685   0.256   1.886
27411WAT      O82474   0.489   6.158   0.064
27411WAT     H182475   0.574   6.209   0.071
27411WAT     H282476   0.463   6.124   0.155
27412WAT      O82477   2.026   6.363   6.971
27412WAT     H182478   1.938   6.378   6.926
27412WAT     H282479   2.090   6.433   6.943
27413WAT      O82480   6.863   9.296   3.974
27413WAT     H182481   6.904   9.355   4.043
27413WAT     H282482   6.803   9.229   4.019
27414WAT      O82483   0.752   3.099   1.099
27414WAT     H182484   0.669   3.152   1.120
27414WAT     H282485   0.817   3.157   1.050
27415WAT      O82486   4.647   1.896   4.171
27415WAT     H182487   4.564   1.854   4.135
27415WAT     H282488   4.625   1.983   4.214
27416WAT      O82489   1.357   9.276   1.048
27416WAT     H182490   1.279   9.219   1.075
27416WAT     H282491   1.379   9.260   0.952
27417WAT      O82492   5.824   1.915   3.426
27417WAT     H182493   5.864   1.991   3.375
27417WAT     H282494   5.794   1.947   3.516
27418WAT      O82495   2.283   6.426   0.449
27418WAT     H182496   2.343   6.437   0.528
27418WAT     H282497   2.319   6.356   0.388
27419WAT      O82498   1.342   8.018   9.450
27419WAT     H182499   1.253   7.972   9.445
27419WAT     H282500   1.381   8.026   9.358
27420WAT      O82501   0.108   3.595   1.170
27420WAT     H182502   0.021   3.595   1.219
27420WAT     H282503   0.171   3.530   1.213
27421WAT      O82504   2.740   0.593   0.381
27421WAT     H182505   2.838   0.596   0.366
27421WAT     H282506   2.715   0.662   0.450
27422WAT      O82507   3.707   3.839   2.454
27422WAT     H182508   3.686   3.917   2.514
27422WAT     H282509   3.800   3.850   2.418
27423WAT      O82510   8.433   5.654   8.351
27423WAT     H182511   8.391   5.613   8.271
27423WAT     H282512   8.373   5.643   8.430
27424WAT      O82513   7.738   8.279   4.450
27424WAT     H182514   7.710   8.357   4.395
27424WAT     H282515   7.782   8.311   4.534
27425WAT      O82516   5.348   8.184   1.742
27425WAT     H182517   5.373   8.119   1.814
27425WAT     H282518   5.387   8.153   1.655
27426WAT      O82519   1.240   0.332   9.366
27426WAT     H182520   1.267   0.395   9.294
27426WAT     H282521   1.233   0.382   9.453
27427WAT      O82522   2.809   2.418   3.552
27427WAT     H182523   2.835   2.460   3.639
27427WAT     H282524   2.739   2.348   3.569
27428WAT      O82525   3.003   1.997   2.530
27428WAT     H182526   3.048   1.916   2.569
27428WAT     H282527   2.926   1.968   2.474
27429WAT      O82528   6.568   7.706   8.013
27429WAT     H182529   6.621   7.678   7.933
27429WAT     H282530   6.630   7.743   8.083
27430WAT      O82531   6.592   8.050   4.652
27430WAT     H182532   6.536   8.130   4.631
27430WAT     H282533   6.648   8.027   4.573
27431WAT      O82534   4.989   2.703   9.058
27431WAT     H182535   5.044   2.773   9.013
27431WAT     H282536   5.013   2.613   9.022
27432WAT      O82537   3.968   0.137   1.084
27432WAT     H182538   4.031   0.122   1.009
27432WAT     H282539   3.941   0.048   1.123
27433WAT      O82540   7.119   6.988   4.890
27433WAT     H182541   7.161   7.044   4.961
27433WAT     H282542   7.183   6.916   4.862
27434WAT      O82543   1.009   2.262   8.391
27434WAT     H182544   0.918   2.305   8.390
27434WAT     H282545   1.014   2.196   8.466
27435WAT      O82546   3.363   7.539   8.590
27435WAT     H182547   3.425   7.608   8.552
27435WAT     H282548   3.366   7.457   8.534
27436WAT      O82549   7.196   8.055   4.136
27436WAT     H182550   7.296   8.052   4.129
27436WAT     H282551   7.159   8.104   4.058
27437WAT      O82552   5.683   6.459   1.397
27437WAT     H182553   5.605   6.401   1.424
27437WAT     H282554   5.765   6.403   1.390
27438WAT      O82555   5.531   5.760   3.512
27438WAT     H182556   5.467   5.698   3.466
27438WAT     H282557   5.596   5.706   3.565
27439WAT      O82558   6.912   4.110   5.858
27439WAT     H182559   6.903   4.032   5.796
27439WAT     H282560   6.947   4.078   5.947
27440WAT      O82561   3.752   8.915   9.727
27440WAT     H182562   3.680   8.985   9.719
27440WAT     H282563   3.712   8.825   9.714
27441WAT      O82564   0.697   1.756   9.374
27441WAT     H182565   0.708   1.656   9.382
27441WAT     H282566   0.639   1.789   9.448
27442WAT      O82567   4.915   5.349   0.688
27442WAT     H182568   4.984   5.408   0.646
27442WAT     H282569   4.904   5.375   0.784
27443WAT      O82570   0.838   9.319   9.048
27443WAT     H182571   0.907   9.383   9.083
27443WAT     H282572   0.811   9.256   9.121
27444WAT      O82573   3.517   1.287   5.653
27444WAT     H182574   3.536   1.243   5.741
27444WAT     H282575   3.443   1.238   5.607
27445WAT      O82576   4.466   7.643   4.874
27445WAT     H182577   4.566   7.638   4.878
27445WAT     H282578   4.427   7.558   4.907
27446WAT      O82579   8.904   8.380   1.520
27446WAT     H182580   8.827   8.409   1.463
27446WAT     H282581   8.928   8.454   1.583
27447WAT      O82582   3.505   6.692   0.019
27447WAT     H182583   3.518   6.764   0.087
27447WAT     H282584   3.584   6.689  -0.042
27448WAT      O82585   5.543   5.711   1.117
27448WAT     H182586   5.580   5.804   1.112
27448WAT     H282587   5.476   5.705   1.191
27449WAT      O82588   1.393   0.880   6.597
27449WAT     H182589   1.489   0.860   6.613
27449WAT     H282590   1.345   0.887   6.684
27450WAT      O82591   1.269   9.657   0.529
27450WAT     H182592   1.236   9.633   0.620
27450WAT     H282593   1.367   9.676   0.534
27451WAT      O82594   6.699   9.053   9.454
27451WAT     H182595   6.646   9.055   9.369
27451WAT     H282596   6.722   9.147   9.480
27452WAT      O82597   6.953   8.216   7.779
27452WAT     H182598   6.983   8.123   7.799
27452WAT     H282599   6.906   8.254   7.859
27453WAT      O82600   7.228   1.210   1.354
27453WAT     H182601   7.132   1.223   1.380
27453WAT     H282602   7.242   1.117   1.321
27454WAT      O82603   1.867   5.443   1.885
27454WAT     H182604   1.932   5.381   1.930
27454WAT     H282605   1.778   5.399   1.877
27455WAT      O82606   6.881   2.555   9.343
27455WAT     H182607   6.931   2.617   9.282
27455WAT     H282608   6.915   2.462   9.329
27456WAT      O82609   7.506   2.205   1.924
27456WAT     H182610   7.555   2.198   2.011
27456WAT     H282611   7.561   2.163   1.852
27457WAT      O82612   1.048   8.990   6.666
27457WAT     H182613   1.098   8.931   6.603
27457WAT     H282614   1.095   9.077   6.675
27458WAT      O82615   1.747   7.443   8.293
27458WAT     H182616   1.804   7.525   8.281
27458WAT     H282617   1.692   7.453   8.376
27459WAT      O82618   6.929   1.624   1.039
27459WAT     H182619   6.863   1.582   1.101
27459WAT     H282620   7.009   1.565   1.029
27460WAT      O82621   5.313   1.167   6.571
27460WAT     H182622   5.362   1.248   6.605
27460WAT     H282623   5.215   1.184   6.576
27461WAT      O82624   7.687   4.992   7.636
27461WAT     H182625   7.631   4.975   7.554
27461WAT     H282626   7.782   4.968   7.617
27462WAT      O82627   8.400   6.445   6.629
27462WAT     H182628   8.413   6.509   6.553
27462WAT     H282629   8.394   6.496   6.715
27463WAT      O82630   1.003   8.988   5.366
27463WAT     H182631   1.020   9.079   5.329
27463WAT     H282632   0.961   8.997   5.457
27464WAT      O82633   1.324   6.603   8.039
27464WAT     H182634   1.397   6.653   8.086
27464WAT     H282635   1.350   6.590   7.943
27465WAT      O82636   0.132   7.614   2.027
27465WAT     H182637   0.115   7.632   2.124
27465WAT     H282638   0.045   7.595   1.982
27466WAT      O82639   3.362   2.001   7.494
27466WAT     H182640   3.383   1.923   7.553
27466WAT     H282641   3.298   2.062   7.542
27467WAT      O82642   5.385   6.452   7.503
27467WAT     H182643   5.445   6.466   7.424
27467WAT     H282644   5.306   6.512   7.496
27468WAT      O82645   9.873   4.186   6.175
27468WAT     H182646   9.909   4.242   6.250
27468WAT     H282647   9.841   4.247   6.101
27469WAT      O82648   7.938   2.846   7.185
27469WAT     H182649   7.983   2.849   7.096
27469WAT     H282650   7.974   2.919   7.243
27470WAT      O82651   2.331   6.704   1.004
27470WAT     H182652   2.316   6.799   1.030
27470WAT     H282653   2.340   6.648   1.086
27471WAT      O82654   6.132   7.230   7.146
27471WAT     H182655   6.197   7.154   7.142
27471WAT     H282656   6.076   7.222   7.229
27472WAT      O82657   9.303   4.542   8.356
27472WAT     H182658   9.221   4.580   8.311
27472WAT     H282659   9.341   4.611   8.418
27473WAT      O82660   1.234   4.299   6.497
27473WAT     H182661   1.265   4.275   6.589
27473WAT     H282662   1.251   4.222   6.435
27474WAT      O82663   1.008   7.678   2.313
27474WAT     H182664   1.064   7.755   2.282
27474WAT     H282665   0.953   7.644   2.236
27475WAT      O82666   7.491   0.445   9.842
27475WAT     H182667   7.420   0.394   9.793
27475WAT     H282668   7.544   0.382   9.899
27476WAT      O82669   2.095   3.957   3.928
27476WAT     H182670   2.063   3.864   3.913
27476WAT     H282671   2.020   4.013   3.962
27477WAT      O82672   7.044   8.680   3.637
27477WAT     H182673   7.059   8.600   3.579
27477WAT     H282674   7.084   8.760   3.594
27478WAT      O82675   3.817   0.670   7.834
27478WAT     H182676   3.827   0.745   7.768
27478WAT     H282677   3.858   0.587   7.797
27479WAT      O82678   4.464   7.815   3.338
27479WAT     H182679   4.547   7.793   3.389
27479WAT     H282680   4.443   7.741   3.275
27480WAT      O82681   7.248   7.580   7.486
27480WAT     H182682   7.320   7.521   7.450
27480WAT     H282683   7.196   7.529   7.555
27481WAT      O82684   3.764   7.661   1.847
27481WAT     H182685   3.855   7.637   1.815
27481WAT     H282686   3.705   7.580   1.844
27482WAT      O82687   8.698   2.861   3.826
27482WAT     H182688   8.692   2.944   3.882
27482WAT     H282689   8.690   2.885   3.729
27483WAT      O82690   4.315   0.292   0.138
27483WAT     H182691   4.333   0.217   0.074
27483WAT     H282692   4.342   0.378   0.096
27484WAT      O82693   9.297   4.668   7.141
27484WAT     H182694   9.237   4.705   7.070
27484WAT     H282695   9.281   4.716   7.227
27485WAT      O82696   5.536   8.103   2.234
27485WAT     H182697   5.448   8.067   2.203
27485WAT     H282698   5.566   8.054   2.315
27486WAT      O82699   5.801   2.287   9.498
27486WAT     H182700   5.826   2.264   9.592
27486WAT     H282701   5.823   2.382   9.480
27487WAT      O82702   5.737   6.343   0.680
27487WAT     H182703   5.665   6.389   0.627
27487WAT     H282704   5.802   6.300   0.618
27488WAT      O82705   9.527   0.290   9.545
27488WAT     H182706   9.496   0.261   9.635
27488WAT     H282707   9.584   0.372   9.554
27489WAT      O82708   0.864   2.192   3.644
27489WAT     H182709   0.879   2.220   3.549
27489WAT     H282710   0.766   2.177   3.659
27490WAT      O82711   5.537   6.723   0.441
27490WAT     H182712   5.450   6.705   0.488
27490WAT     H282713   5.598   6.773   0.503
27491WAT      O82714   4.276   9.819   0.482
27491WAT     H182715   4.222   9.890   0.527
27491WAT     H282716   4.237   9.799   0.393
27492WAT      O82717   4.797   6.687   9.086
27492WAT     H182718   4.737   6.733   9.020
27492WAT     H282719   4.769   6.591   9.094
27493WAT      O82720   9.307   6.285   8.407
27493WAT     H182721   9.215   6.258   8.436
27493WAT     H282722   9.320   6.260   8.311
27494WAT      O82723   3.642   1.381   0.970
27494WAT     H182724   3.678   1.470   0.941
27494WAT     H282725   3.684   1.355   1.057
27495WAT      O82726   7.863   7.042   7.106
27495WAT     H182727   7.882   6.951   7.068
27495WAT     H282728   7.949   7.085   7.133
27496WAT      O82729   8.089   6.074   5.444
27496WAT     H182730   8.174   6.064   5.495
27496WAT     H282731   8.024   6.128   5.497
27497WAT      O82732   3.501   1.546   9.299
27497WAT     H182733   3.554   1.555   9.215
27497WAT     H282734   3.501   1.451   9.329
27498WAT      O82735   3.465   6.873   5.437
27498WAT     H182736   3.367   6.856   5.428
27498WAT     H282737   3.515   6.787   5.424
27499WAT      O82738   0.553   5.486   1.267
27499WAT     H182739   0.475   5.504   1.328
27499WAT     H282740   0.565   5.387   1.258
27500WAT      O82741   1.818   1.374   8.761
27500WAT     H182742   1.739   1.319   8.789
27500WAT     H282743   1.806   1.468   8.793
27501WAT      O82744   8.747   0.744   1.405
27501WAT     H182745   8.674   0.727   1.470
27501WAT     H282746   8.728   0.828   1.354
27502WAT      O82747   2.409   6.846   4.244
27502WAT     H182748   2.444   6.770   4.298
27502WAT     H282749   2.469   6.861   4.165
27503WAT      O82750   4.122   3.875   2.045
27503WAT     H182751   4.171   3.865   1.959
27503WAT     H282752   4.179   3.924   2.110
27504WAT      O82753   7.465   7.388   4.263
27504WAT     H182754   7.373   7.414   4.291
27504WAT     H282755   7.524   7.469   4.264
27505WAT      O82756   0.897   6.406   6.583
27505WAT     H182757   0.966   6.453   6.638
27505WAT     H282758   0.898   6.309   6.605
27506WAT      O82759   5.808   5.616   7.744
27506WAT     H182760   5.860   5.677   7.804
27506WAT     H282761   5.864   5.538   7.719
27507WAT      O82762   3.288   8.743   0.941
27507WAT     H182763   3.214   8.732   0.876
27507WAT     H282764   3.375   8.719   0.898
27508WAT      O82765   3.980   2.087   3.133
27508WAT     H182766   3.961   2.020   3.061
27508WAT     H282767   3.898   2.141   3.150
27509WAT      O82768   3.467   2.132   0.963
27509WAT     H182769   3.479   2.051   0.905
27509WAT     H282770   3.429   2.206   0.908
27510WAT      O82771   2.577   5.773   9.131
27510WAT     H182772   2.478   5.764   9.116
27510WAT     H282773   2.622   5.781   9.042
27511WAT      O82774   1.246   4.054   8.500
27511WAT     H182775   1.198   3.976   8.460
27511WAT     H282776   1.344   4.036   8.501
27512WAT      O82777   7.791   2.383   7.935
27512WAT     H182778   7.749   2.436   7.861
27512WAT     H282779   7.868   2.330   7.899
27513WAT      O82780   1.429   0.170   6.688
27513WAT     H182781   1.441   0.251   6.746
27513WAT     H282782   1.433   0.197   6.592
27514WAT      O82783   3.680   2.746   5.327
27514WAT     H182784   3.758   2.787   5.281
27514WAT     H282785   3.621   2.701   5.259
27515WAT      O82786   2.169   7.783   0.307
27515WAT     H182787   2.240   7.767   0.376
27515WAT     H282788   2.211   7.780   0.216
27516WAT      O82789   8.877   8.679   1.288
27516WAT     H182790   8.843   8.769   1.263
27516WAT     H282791   8.962   8.689   1.341
27517WAT      O82792   6.808   5.250   8.942
27517WAT     H182793   6.779   5.183   8.873
27517WAT     H282794   6.727   5.289   8.985
27518WAT      O82795   4.340   4.242   5.124
27518WAT     H182796   4.320   4.254   5.221
27518WAT     H282797   4.350   4.144   5.104
27519WAT      O82798   3.749   4.745   9.782
27519WAT     H182799   3.739   4.837   9.744
27519WAT     H282800   3.671   4.724   9.840
27520WAT      O82801   5.800   4.098   3.910
27520WAT     H182802   5.755   4.094   3.999
27520WAT     H282803   5.837   4.190   3.896
27521WAT      O82804   9.534   0.489   1.543
27521WAT     H182805   9.533   0.482   1.444
27521WAT     H282806   9.444   0.518   1.576
27522WAT      O82807   2.046   0.590   5.466
27522WAT     H182808   2.058   0.492   5.453
27522WAT     H282809   2.082   0.638   5.386
27523WAT      O82810   8.410   0.809   0.078
27523WAT     H182811   8.379   0.785   0.170
27523WAT     H282812   8.443   0.903   0.077
27524WAT      O82813   9.682   6.151   1.092
27524WAT     H182814   9.719   6.216   1.158
27524WAT     H282815   9.702   6.058   1.121
27525WAT      O82816   7.135   0.282   6.619
27525WAT     H182817   7.191   0.203   6.642
27525WAT     H282818   7.040   0.265   6.646
27526WAT      O82819   3.081   4.647   3.364
27526WAT     H182820   3.143   4.632   3.287
27526WAT     H282821   2.997   4.691   3.332
27527WAT      O82822   8.574   9.719   0.491
27527WAT     H182823   8.520   9.686   0.569
27527WAT     H282824   8.662   9.753   0.523
27528WAT      O82825   2.439   0.581   8.568
27528WAT     H182826   2.480   0.498   8.529
27528WAT     H282827   2.474   0.595   8.660
27529WAT      O82828   8.533   1.776   0.123
27529WAT     H182829   8.454   1.836   0.120
27529WAT     H282830   8.544   1.739   0.216
27530WAT      O82831   8.129   4.424   6.714
27530WAT     H182832   8.203   4.492   6.713
27530WAT     H282833   8.051   4.461   6.765
27531WAT      O82834   0.794   1.756   0.201
27531WAT     H182835   0.741   1.828   0.245
27531WAT     H282836   0.757   1.738   0.110
27532WAT      O82837   3.265   3.775   5.801
27532WAT     H182838   3.212   3.701   5.758
27532WAT     H282839   3.247   3.861   5.753
27533WAT      O82840   0.722   9.701   4.787
27533WAT     H182841   0.770   9.715   4.874
27533WAT     H282842   0.789   9.688   4.714
27534WAT      O82843   5.461   4.675   3.284
27534WAT     H182844   5.433   4.631   3.199
27534WAT     H282845   5.407   4.758   3.298
27535WAT      O82846   7.931   5.000   3.438
27535WAT     H182847   7.981   4.986   3.353
27535WAT     H282848   7.900   5.095   3.444
27536WAT      O82849   0.696   2.151   4.953
27536WAT     H182850   0.600   2.154   4.925
27536WAT     H282851   0.736   2.242   4.943
27537WAT      O82852   5.338   0.605   2.347
27537WAT     H182853   5.394   0.680   2.381
27537WAT     H282854   5.243   0.637   2.335
27538WAT      O82855   1.590   2.745   7.164
27538WAT     H182856   1.506   2.690   7.156
27538WAT     H282857   1.659   2.693   7.215
27539WAT      O82858   9.287   7.709   5.342
27539WAT     H182859   9.345   7.627   5.346
27539WAT     H282860   9.342   7.790   5.365
27540WAT      O82861   2.139   0.538   2.964
27540WAT     H182862   2.047   0.517   2.997
27540WAT     H282863   2.133   0.609   2.894
27541WAT      O82864   1.109   2.836   2.937
27541WAT     H182865   1.137   2.919   2.888
27541WAT     H282866   1.145   2.756   2.890
27542WAT      O82867   6.646   4.988   9.405
27542WAT     H182868   6.632   4.900   9.452
27542WAT     H282869   6.626   5.062   9.468
27543WAT      O82870   2.697   8.966   9.583
27543WAT     H182871   2.614   8.909   9.579
27543WAT     H282872   2.776   8.909   9.604
27544WAT      O82873   4.385   8.336   3.213
27544WAT     H182874   4.301   8.356   3.162
27544WAT     H282875   4.425   8.251   3.180
27545WAT      O82876   2.681   0.740   4.270
27545WAT     H182877   2.657   0.644   4.253
27545WAT     H282878   2.634   0.772   4.352
27546WAT      O82879   6.857   6.771   9.382
27546WAT     H182880   6.765   6.739   9.406
27546WAT     H282881   6.861   6.870   9.391
27547WAT      O82882   0.245   2.330   8.760
27547WAT     H182883   0.165   2.314   8.817
27547WAT     H282884   0.246   2.263   8.685
27548WAT      O82885   7.256   1.751   6.987
27548WAT     H182886   7.353   1.773   6.993
27548WAT     H282887   7.244   1.657   6.954
27549WAT      O82888   1.025   5.014   2.336
27549WAT     H182889   0.995   5.019   2.431
27549WAT     H282890   1.113   4.968   2.331
27550WAT      O82891   0.858   2.761   9.617
27550WAT     H182892   0.922   2.772   9.693
27550WAT     H282893   0.816   2.671   9.621
27551WAT      O82894   8.227   3.002   8.257
27551WAT     H182895   8.169   2.939   8.205
27551WAT     H282896   8.206   3.096   8.230
27552WAT      O82897   4.482   9.254   1.485
27552WAT     H182898   4.551   9.195   1.528
27552WAT     H282899   4.393   9.239   1.528
27553WAT      O82900   3.987   3.616   0.808
27553WAT     H182901   4.033   3.678   0.871
27553WAT     H282902   4.053   3.550   0.771
27554WAT      O82903   6.891   6.625   1.679
27554WAT     H182904   6.847   6.545   1.637
27554WAT     H282905   6.937   6.598   1.763
27555WAT      O82906   9.181   5.516   3.885
27555WAT     H182907   9.148   5.422   3.873
27555WAT     H282908   9.178   5.564   3.797
27556WAT      O82909   5.661   8.583   1.774
27556WAT     H182910   5.675   8.562   1.871
27556WAT     H282911   5.696   8.508   1.718
27557WAT      O82912   1.057   8.409   3.594
27557WAT     H182913   1.043   8.310   3.600
27557WAT     H282914   1.138   8.434   3.647
27558WAT      O82915   3.581   1.190   2.277
27558WAT     H182916   3.511   1.186   2.205
27558WAT     H282917   3.651   1.121   2.260
27559WAT      O82918   7.406   7.745   0.147
27559WAT     H182919   7.317   7.779   0.116
27559WAT     H282920   7.446   7.809   0.212
27560WAT      O82921   2.471   7.653   2.272
27560WAT     H182922   2.378   7.675   2.243
27560WAT     H282923   2.530   7.733   2.256
27561WAT      O82924   0.885   6.506   2.968
27561WAT     H182925   0.822   6.549   2.904
27561WAT     H282926   0.885   6.407   2.953
27562WAT      O82927   5.472   9.062   5.550
27562WAT     H182928   5.451   8.971   5.584
27562WAT     H282929   5.448   9.130   5.620
27563WAT      O82930   2.497   3.650   6.716
27563WAT     H182931   2.489   3.574   6.652
27563WAT     H282932   2.581   3.639   6.769
27564WAT      O82933   7.590   7.951   0.433
27564WAT     H182934   7.667   7.908   0.386
27564WAT     H282935   7.531   7.997   0.366
27565WAT      O82936   4.186   6.048   8.489
27565WAT     H182937   4.176   6.090   8.399
27565WAT     H282938   4.212   6.118   8.556
27566WAT      O82939   3.883   1.281   6.486
27566WAT     H182940   3.797   1.317   6.448
27566WAT     H282941   3.960   1.315   6.433
27567WAT      O82942   8.159   1.392   8.602
27567WAT     H182943   8.152   1.458   8.528
27567WAT     H282944   8.152   1.439   8.690
27568WAT      O82945   0.207   0.627   3.610
27568WAT     H182946   0.291   0.652   3.658
27568WAT     H282947   0.128   0.665   3.660
27569WAT      O82948   9.121   9.568   7.830
27569WAT     H182949   9.097   9.489   7.773
27569WAT     H282950   9.091   9.552   7.924
27570WAT      O82951   4.166   9.010   3.846
27570WAT     H182952   4.217   8.970   3.769
27570WAT     H282953   4.205   8.978   3.932
27571WAT      O82954   4.960   6.646   8.176
27571WAT     H182955   4.908   6.564   8.154
27571WAT     H282956   5.045   6.621   8.222
27572WAT      O82957   7.410   0.724   1.494
27572WAT     H182958   7.349   0.798   1.465
27572WAT     H282959   7.414   0.722   1.594
27573WAT      O82960   6.391   8.813   3.835
27573WAT     H182961   6.361   8.748   3.904
27573WAT     H282962   6.418   8.899   3.880
27574WAT      O82963   9.623   3.367   7.080
27574WAT     H182964   9.669   3.435   7.137
27574WAT     H282965   9.566   3.308   7.139
27575WAT      O82966   9.391   8.649   7.833
27575WAT     H182967   9.354   8.659   7.741
27575WAT     H282968   9.479   8.697   7.839
27576WAT      O82969   2.817   7.577   7.414
27576WAT     H182970   2.736   7.529   7.446
27576WAT     H282971   2.892   7.512   7.401
27577WAT      O82972   9.871   1.122   3.992
27577WAT     H182973   9.899   1.125   4.088
27577WAT     H282974   9.921   1.049   3.945
27578WAT      O82975   4.938   8.538   4.965
27578WAT     H182976   4.897   8.552   4.875
27578WAT     H282977   5.037   8.549   4.959
27579WAT      O82978   0.376   7.555   9.808
27579WAT     H182979   0.300   7.493   9.828
27579WAT     H282980   0.385   7.623   9.881
27580WAT      O82981   3.386   9.394   4.692
27580WAT     H182982   3.417   9.474   4.743
27580WAT     H282983   3.305   9.418   4.639
27581WAT      O82984   6.075   0.417   6.198
27581WAT     H182985   6.109   0.422   6.104
27581WAT     H282986   5.975   0.406   6.197
27582WAT      O82987   0.835   9.803   1.401
27582WAT     H182988   0.755   9.803   1.461
27582WAT     H282989   0.830   9.882   1.340
27583WAT      O82990   0.898   5.326   4.992
27583WAT     H182991   0.826   5.380   5.036
27583WAT     H282992   0.894   5.232   5.025
27584WAT      O82993   1.352   3.711   1.214
27584WAT     H182994   1.397   3.640   1.160
27584WAT     H282995   1.416   3.787   1.229
27585WAT      O82996   4.108   1.045   0.435
27585WAT     H182997   4.046   1.003   0.502
27585WAT     H282998   4.088   1.008   0.344
27586WAT      O82999   0.596   0.203   6.299
27586WAT     H183000   0.525   0.132   6.303
27586WAT     H283001   0.686   0.160   6.309
27587WAT      O83002   3.075   0.256   2.449
27587WAT     H183003   3.152   0.292   2.397
27587WAT     H283004   3.095   0.262   2.547
27588WAT      O83005   9.657   3.852   9.345
27588WAT     H183006   9.591   3.926   9.357
27588WAT     H283007   9.657   3.822   9.250
27589WAT      O83008   8.906   1.213   1.157
27589WAT     H183009   8.900   1.291   1.094
27589WAT     H283010   8.838   1.145   1.132
27590WAT      O83011   8.383   4.762   7.384
27590WAT     H183012   8.370   4.761   7.483
27590WAT     H283013   8.462   4.819   7.361
27591WAT      O83014   3.731   0.614   6.887
27591WAT     H183015   3.811   0.597   6.830
27591WAT     H283016   3.683   0.695   6.854
27592WAT      O83017   0.750   5.698   8.831
27592WAT     H183018   0.680   5.763   8.859
27592WAT     H283019   0.741   5.678   8.733
27593WAT      O83020   5.995   6.302   3.820
27593WAT     H183021   5.965   6.216   3.779
27593WAT     H283022   6.051   6.353   3.755
27594WAT      O83023   7.628   8.571   3.440
27594WAT     H183024   7.672   8.632   3.506
27594WAT     H283025   7.646   8.604   3.347
27595WAT      O83026   3.886   9.511   7.464
27595WAT     H183027   3.893   9.501   7.564
27595WAT     H283028   3.823   9.585   7.443
27596WAT      O83029   1.411   3.860   4.866
27596WAT     H183030   1.328   3.803   4.862
27596WAT     H283031   1.393   3.942   4.921
27597WAT      O83032   7.123   2.578   8.914
27597WAT     H183033   7.218   2.554   8.898
27597WAT     H283034   7.114   2.677   8.921
27598WAT      O83035   9.209   6.457   6.040
27598WAT     H183036   9.189   6.512   5.959
27598WAT     H283037   9.247   6.369   6.012
27599WAT      O83038   0.845   1.512   4.711
27599WAT     H183039   0.783   1.460   4.652
27599WAT     H283040   0.851   1.606   4.677
27600WAT      O83041   5.006   0.570   5.565
27600WAT     H183042   4.975   0.645   5.507
27600WAT     H283043   5.101   0.587   5.593
27601WAT      O83044   7.970   0.502   5.046
27601WAT     H183045   8.065   0.491   5.015
27601WAT     H283046   7.913   0.529   4.969
27602WAT      O83047   2.697   1.962   3.821
27602WAT     H183048   2.638   1.971   3.741
27602WAT     H283049   2.792   1.957   3.791
27603WAT      O83050   1.343   6.343   5.520
27603WAT     H183051   1.262   6.367   5.467
27603WAT     H283052   1.353   6.244   5.523
27604WAT      O83053   0.060   4.525   8.374
27604WAT     H183054   0.095   4.566   8.290
27604WAT     H283055   0.061   4.593   8.448
27605WAT      O83056   7.732   2.621   7.313
27605WAT     H183057   7.798   2.639   7.241
27605WAT     H283058   7.771   2.558   7.380
27606WAT      O83059   5.064   6.464   0.848
27606WAT     H183060   5.105   6.534   0.906
27606WAT     H283061   5.130   6.392   0.830
27607WAT      O83062   0.633   0.203   9.060
27607WAT     H183063   0.716   0.191   9.005
27607WAT     H283064   0.650   0.272   9.130
27608WAT      O83065   6.404   0.010   7.602
27608WAT     H183066   6.419   0.017   7.701
27608WAT     H283067   6.471   0.066   7.554
27609WAT      O83068   5.893   4.465   6.635
27609WAT     H183069   5.852   4.386   6.680
27609WAT     H283070   5.825   4.509   6.576
27610WAT      O83071   3.631   1.704   0.134
27610WAT     H183072   3.582   1.781   0.093
27610WAT     H283073   3.621   1.623   0.076
27611WAT      O83074   0.243   9.281   6.686
27611WAT     H183075   0.245   9.223   6.604
27611WAT     H283076   0.218   9.226   6.765
27612WAT      O83077   0.881   3.749   6.261
27612WAT     H183078   0.794   3.703   6.245
27612WAT     H283079   0.943   3.733   6.184
27613WAT      O83080   1.032   5.042   7.536
27613WAT     H183081   1.092   4.971   7.501
27613WAT     H283082   0.940   5.005   7.549
27614WAT      O83083   1.108   6.256   6.193
27614WAT     H183084   1.173   6.319   6.151
27614WAT     H283085   1.107   6.170   6.142
27615WAT      O83086   6.406   6.458   5.620
27615WAT     H183087   6.415   6.381   5.684
27615WAT     H283088   6.451   6.436   5.534
27616WAT      O83089   6.491   1.989   0.929
27616WAT     H183090   6.525   1.924   0.861
27616WAT     H283091   6.391   1.985   0.931
27617WAT      O83092   1.511   2.363   9.695
27617WAT     H183093   1.578   2.317   9.752
27617WAT     H283094   1.421   2.319   9.707
27618WAT      O83095   8.458   9.580   8.802
27618WAT     H183096   8.405   9.571   8.887
27618WAT     H283097   8.499   9.492   8.779
27619WAT      O83098   5.827   7.625   9.318
27619WAT     H183099   5.854   7.695   9.253
27619WAT     H283100   5.909   7.581   9.356
27620WAT      O83101   5.911   0.491   6.648
27620WAT     H183102   5.836   0.467   6.587
27620WAT     H283103   5.993   0.509   6.594
27621WAT      O83104   7.775   4.274   8.188
27621WAT     H183105   7.781   4.318   8.098
27621WAT     H283106   7.733   4.336   8.253
27622WAT      O83107   8.109   3.679   1.497
27622WAT     H183108   8.169   3.719   1.428
27622WAT     H283109   8.081   3.750   1.562
27623WAT      O83110   1.723   1.643   5.940
27623WAT     H183111   1.767   1.598   6.018
27623WAT     H283112   1.774   1.726   5.917
27624WAT      O83113   2.528   9.114   3.168
27624WAT     H183114   2.583   9.197   3.157
27624WAT     H283115   2.466   9.125   3.246
27625WAT      O83116   3.752   1.983   2.808
27625WAT     H183117   3.731   1.935   2.723
27625WAT     H283118   3.816   1.929   2.862
27626WAT      O83119   9.524   3.591   4.103
27626WAT     H183120   9.572   3.572   4.189
27626WAT     H283121   9.454   3.521   4.088
27627WAT      O83122   5.766   8.343   2.608
27627WAT     H183123   5.752   8.377   2.515
27627WAT     H283124   5.794   8.418   2.668
27628WAT      O83125   8.807   1.954   2.002
27628WAT     H183126   8.711   1.962   2.028
27628WAT     H283127   8.816   1.970   1.904
27629WAT      O83128   1.727   1.407   2.299
27629WAT     H183129   1.759   1.490   2.252
27629WAT     H283130   1.753   1.327   2.245
27630WAT      O83131   7.071   8.450   0.525
27630WAT     H183132   7.029   8.391   0.457
27630WAT     H283133   7.062   8.409   0.616
27631WAT      O83134   8.432   6.311   5.953
27631WAT     H183135   8.524   6.286   5.924
27631WAT     H283136   8.410   6.265   6.039
27632WAT      O83137   7.677   0.735   2.377
27632WAT     H183138   7.654   0.692   2.465
27632WAT     H283139   7.755   0.688   2.336
27633WAT      O83140   1.179   2.371   3.432
27633WAT     H183141   1.270   2.331   3.436
27633WAT     H283142   1.167   2.419   3.345
27634WAT      O83143   9.874   9.331   4.763
27634WAT     H183144   9.883   9.411   4.821
27634WAT     H283145   9.811   9.351   4.687
27635WAT      O83146   3.045   5.954   0.294
27635WAT     H183147   3.060   5.866   0.250
27635WAT     H283148   3.108   5.964   0.371
27636WAT      O83149   0.924   1.225   7.199
27636WAT     H183150   0.844   1.284   7.213
27636WAT     H283151   0.898   1.147   7.142
27637WAT      O83152   1.550   3.939   6.731
27637WAT     H183153   1.504   3.992   6.802
27637WAT     H283154   1.520   3.844   6.736
27638WAT      O83155   5.552   5.557   2.338
27638WAT     H183156   5.487   5.565   2.262
27638WAT     H283157   5.612   5.479   2.322
27639WAT      O83158   7.374   9.309   4.328
27639WAT     H183159   7.281   9.329   4.359
27639WAT     H283160   7.438   9.373   4.370
27640WAT      O83161   4.758   4.633   5.910
27640WAT     H183162   4.755   4.608   5.813
27640WAT     H283163   4.853   4.637   5.941
27641WAT      O83164   2.254   7.993   6.540
27641WAT     H183165   2.185   8.014   6.470
27641WAT     H283166   2.304   8.077   6.564
27642WAT      O83167   6.611   5.385   7.493
27642WAT     H183168   6.704   5.412   7.519
27642WAT     H283169   6.613   5.346   7.401
27643WAT      O83170   7.959   5.816   4.667
27643WAT     H183171   7.934   5.776   4.579
27643WAT     H283172   8.058   5.818   4.676
27644WAT      O83173   1.358   6.820   0.143
27644WAT     H183174   1.359   6.827   0.043
27644WAT     H283175   1.383   6.908   0.183
27645WAT      O83176   5.040   7.520   3.517
27645WAT     H183177   5.052   7.495   3.613
27645WAT     H283178   5.068   7.443   3.459
27646WAT      O83179   6.054   2.750   3.379
27646WAT     H183180   6.028   2.756   3.282
27646WAT     H283181   6.137   2.695   3.388
27647WAT      O83182   7.037   5.418   6.409
27647WAT     H183183   7.080   5.347   6.354
27647WAT     H283184   7.098   5.442   6.485
27648WAT      O83185   4.912   0.079   3.371
27648WAT     H183186   4.922   0.089   3.272
27648WAT     H283187   4.992   0.033   3.409
27649WAT      O83188   8.375   1.444   9.595
27649WAT     H183189   8.360   1.347   9.578
27649WAT     H283190   8.376   1.462   9.693
27650WAT      O83191   5.723   8.173   2.030
27650WAT     H183192   5.637   8.166   2.082
27650WAT     H283193   5.707   8.226   1.946
27651WAT      O83194   3.184   1.966   8.519
27651WAT     H183195   3.226   2.057   8.517
27651WAT     H283196   3.102   1.969   8.577
27652WAT      O83197   5.936   1.642   0.494
27652WAT     H183198   6.006   1.572   0.507
27652WAT     H283199   5.976   1.732   0.510
27653WAT      O83200   4.528   8.919   7.228
27653WAT     H183201   4.494   8.850   7.163
27653WAT     H283202   4.588   8.875   7.295
27654WAT      O83203   9.409   3.433   0.136
27654WAT     H183204   9.455   3.438   0.047
27654WAT     H283205   9.395   3.337   0.161
27655WAT      O83206   7.477   5.584   9.892
27655WAT     H183207   7.559   5.543   9.933
27655WAT     H283208   7.462   5.545   9.801
27656WAT      O83209   7.983   0.981   9.201
27656WAT     H183210   8.015   1.020   9.287
27656WAT     H283211   7.883   0.971   9.203
27657WAT      O83212   6.303   2.048   7.903
27657WAT     H183213   6.338   2.117   7.840
27657WAT     H283214   6.286   2.089   7.993
27658WAT      O83215   7.696   9.150   7.762
27658WAT     H183216   7.672   9.060   7.726
27658WAT     H283217   7.638   9.171   7.841
27659WAT      O83218   1.581   0.339   7.405
27659WAT     H183219   1.541   0.429   7.423
27659WAT     H283220   1.606   0.332   7.308
27660WAT      O83221   5.873   9.678   0.978
27660WAT     H183222   5.858   9.703   1.074
27660WAT     H283223   5.917   9.589   0.974
27661WAT      O83224   5.598   3.787   8.666
27661WAT     H183225   5.578   3.753   8.758
27661WAT     H283226   5.514   3.819   8.622
27662WAT      O83227   2.894   2.173   9.755
27662WAT     H183228   2.813   2.175   9.813
27662WAT     H283229   2.909   2.080   9.722
27663WAT      O83230   4.719   2.269   9.386
27663WAT     H183231   4.780   2.192   9.368
27663WAT     H283232   4.769   2.354   9.375
27664WAT      O83233   6.177   2.246   3.183
27664WAT     H183234   6.195   2.274   3.089
27664WAT     H283235   6.205   2.150   3.195
27665WAT      O83236   1.353   2.912   3.392
27665WAT     H183237   1.322   2.963   3.473
27665WAT     H283238   1.362   2.975   3.315
27666WAT      O83239   6.292   6.272   1.088
27666WAT     H183240   6.281   6.371   1.087
27666WAT     H283241   6.203   6.228   1.071
27667WAT      O83242   6.019   9.018   7.953
27667WAT     H183243   6.012   8.947   7.884
27667WAT     H283244   6.113   9.026   7.984
27668WAT      O83245   4.921   1.414   2.213
27668WAT     H183246   4.954   1.499   2.253
27668WAT     H283247   4.944   1.411   2.116
27669WAT      O83248   9.316   1.569   0.920
27669WAT     H183249   9.356   1.497   0.863
27669WAT     H283250   9.329   1.658   0.875
27670WAT      O83251   1.117   2.179   7.370
27670WAT     H183252   1.153   2.264   7.409
27670WAT     H283253   1.045   2.143   7.430
27671WAT      O83254   3.138   5.126   0.015
27671WAT     H183255   3.065   5.093   0.075
27671WAT     H283256   3.210   5.167   0.071
27672WAT      O83257   2.868   9.632   9.004
27672WAT     H183258   2.910   9.717   8.970
27672WAT     H283259   2.845   9.573   8.927
27673WAT      O83260   0.536   5.002   5.703
27673WAT     H183261   0.519   5.092   5.742
27673WAT     H283262   0.587   4.946   5.768
27674WAT      O83263   1.673   5.845   1.319
27674WAT     H183264   1.703   5.752   1.297
27674WAT     H283265   1.654   5.852   1.417
27675WAT      O83266   3.301   2.660   8.946
27675WAT     H183267   3.379   2.600   8.928
27675WAT     H283268   3.216   2.609   8.934
27676WAT      O83269   4.398   7.772   0.973
27676WAT     H183270   4.344   7.848   1.010
27676WAT     H283271   4.442   7.723   1.048
27677WAT      O83272   0.706   7.213   6.618
27677WAT     H183273   0.777   7.282   6.633
27677WAT     H283274   0.684   7.208   6.521
27678WAT      O83275   9.346   6.559   1.255
27678WAT     H183276   9.249   6.583   1.258
27678WAT     H283277   9.385   6.589   1.168
27679WAT      O83278   7.037   0.280   1.247
27679WAT     H183279   7.028   0.345   1.322
27679WAT     H283280   6.949   0.273   1.199
27680WAT      O83281   7.882   3.081   1.564
27680WAT     H183282   7.901   3.178   1.581
27680WAT     H283283   7.856   3.036   1.649
27681WAT      O83284   0.903   1.771   9.054
27681WAT     H183285   0.967   1.777   8.978
27681WAT     H283286   0.809   1.776   9.019
27682WAT      O83287   6.201   5.249   7.037
27682WAT     H183288   6.108   5.233   7.070
27682WAT     H283289   6.206   5.230   6.939
27683WAT      O83290   6.230   7.707   7.239
27683WAT     H183291   6.288   7.628   7.223
27683WAT     H283292   6.252   7.779   7.173
27684WAT      O83293   2.735   9.097   1.225
27684WAT     H183294   2.717   9.046   1.141
27684WAT     H283295   2.662   9.078   1.291
27685WAT      O83296   3.223   1.004   1.286
27685WAT     H183297   3.255   0.928   1.230
27685WAT     H283298   3.252   1.090   1.245
27686WAT      O83299   0.687   7.159   2.356
27686WAT     H183300   0.633   7.238   2.328
27686WAT     H283301   0.784   7.176   2.337
27687WAT      O83302   8.894   6.376   5.074
27687WAT     H183303   8.993   6.383   5.083
27687WAT     H283304   8.849   6.436   5.141
27688WAT      O83305   5.111   8.260   2.805
27688WAT     H183306   5.026   8.276   2.854
27688WAT     H283307   5.144   8.167   2.825
27689WAT      O83308   6.701   3.677   2.601
27689WAT     H183309   6.667   3.699   2.693
27689WAT     H283310   6.790   3.720   2.586
27690WAT      O83311   7.422   0.427   4.689
27690WAT     H183312   7.406   0.500   4.622
27690WAT     H283313   7.519   0.425   4.713
27691WAT      O83314   4.978   8.682   0.667
27691WAT     H183315   4.982   8.782   0.675
27691WAT     H283316   5.043   8.651   0.599
27692WAT      O83317   4.194   1.057   1.943
27692WAT     H183318   4.195   0.958   1.948
27692WAT     H283319   4.100   1.090   1.938
27693WAT      O83320   9.719   7.366   5.706
27693WAT     H183321   9.801   7.309   5.704
27693WAT     H283322   9.732   7.445   5.645
27694WAT      O83323   3.734   4.207   0.473
27694WAT     H183324   3.723   4.115   0.511
27694WAT     H283325   3.649   4.235   0.428
27695WAT      O83326   1.085   0.418   8.306
27695WAT     H183327   1.073   0.358   8.384
27695WAT     H283328   1.136   0.370   8.235
27696WAT      O83329   3.870   6.156   8.921
27696WAT     H183330   3.845   6.121   8.831
27696WAT     H283331   3.825   6.244   8.936
27697WAT      O83332   0.256   8.118   3.946
27697WAT     H183333   0.189   8.098   3.874
27697WAT     H283334   0.340   8.152   3.905
27698WAT      O83335   8.833   8.458   0.050
27698WAT     H183336   8.740   8.434   0.079
27698WAT     H283337   8.851   8.420  -0.041
27699WAT      O83338   2.862   7.082   9.858
27699WAT     H183339   2.885   7.180   9.859
27699WAT     H283340   2.785   7.066   9.797
27700WAT      O83341   4.368   6.982   0.579
27700WAT     H183342   4.378   6.917   0.654
27700WAT     H283343   4.380   6.935   0.492
27701WAT      O83344   7.618   6.665   6.701
27701WAT     H183345   7.616   6.589   6.635
27701WAT     H283346   7.713   6.685   6.725
27702WAT      O83347   9.730   9.102   7.894
27702WAT     H183348   9.634   9.095   7.864
27702WAT     H283349   9.774   9.013   7.886
27703WAT      O83350   6.055   9.346   7.644
27703WAT     H183351   6.009   9.389   7.567
27703WAT     H283352   6.126   9.407   7.680
27704WAT      O83353   3.981   8.683   7.134
27704WAT     H183354   4.038   8.607   7.165
27704WAT     H283355   4.028   8.769   7.152
27705WAT      O83356   8.000   4.896   5.873
27705WAT     H183357   8.063   4.850   5.936
27705WAT     H283358   7.970   4.832   5.803
27706WAT      O83359   1.146   6.829   3.966
27706WAT     H183360   1.100   6.871   4.044
27706WAT     H283361   1.134   6.887   3.885
27707WAT      O83362   8.969   6.288   3.697
27707WAT     H183363   8.964   6.202   3.647
27707WAT     H283364   8.876   6.323   3.711
27708WAT      O83365   0.493   9.592   9.333
27708WAT     H183366   0.417   9.537   9.295
27708WAT     H283367   0.574   9.578   9.276
27709WAT      O83368   4.823   7.854   2.217
27709WAT     H183369   4.801   7.757   2.223
27709WAT     H283370   4.909   7.871   2.266
27710WAT      O83371   4.230   2.482   2.943
27710WAT     H183372   4.306   2.521   2.891
27710WAT     H283373   4.193   2.552   3.004
27711WAT      O83374   6.742   6.072   0.790
27711WAT     H183375   6.799   6.017   0.729
27711WAT     H283376   6.700   6.013   0.859
27712WAT      O83377   2.561   4.313   9.066
27712WAT     H183378   2.532   4.246   8.998
27712WAT     H283379   2.490   4.383   9.077
27713WAT      O83380   2.444   3.163   6.614
27713WAT     H183381   2.378   3.232   6.586
27713WAT     H283382   2.475   3.181   6.707
27714WAT      O83383   7.625   7.310   3.656
27714WAT     H183384   7.702   7.333   3.598
27714WAT     H283385   7.655   7.249   3.730
27715WAT      O83386   8.518   1.766   3.519
27715WAT     H183387   8.538   1.828   3.595
27715WAT     H283388   8.482   1.820   3.442
27716WAT      O83389   7.780   4.479   0.784
27716WAT     H183390   7.690   4.435   0.778
27716WAT     H283391   7.798   4.503   0.879
27717WAT      O83392   5.361   3.717   7.721
27717WAT     H183393   5.311   3.662   7.788
27717WAT     H283394   5.368   3.811   7.753
27718WAT      O83395   6.442   3.416   4.631
27718WAT     H183396   6.478   3.327   4.603
27718WAT     H283397   6.344   3.408   4.648
27719WAT      O83398   8.410   1.040   1.738
27719WAT     H183399   8.413   0.969   1.669
27719WAT     H283400   8.481   1.024   1.806
27720WAT      O83401   5.747   8.618   9.702
27720WAT     H183402   5.656   8.607   9.662
27720WAT     H283403   5.744   8.593   9.799
27721WAT      O83404   6.256   7.308   2.401
27721WAT     H183405   6.262   7.382   2.468
27721WAT     H283406   6.164   7.307   2.361
27722WAT      O83407   6.679   1.808   3.123
27722WAT     H183408   6.622   1.791   3.042
27722WAT     H283409   6.697   1.721   3.169
27723WAT      O83410   4.801   1.175   0.774
27723WAT     H183411   4.823   1.078   0.787
27723WAT     H283412   4.813   1.199   0.678
27724WAT      O83413   7.327   8.346   1.301
27724WAT     H183414   7.399   8.397   1.256
27724WAT     H283415   7.251   8.407   1.324
27725WAT      O83416   9.499   6.968   3.726
27725WAT     H183417   9.478   6.872   3.709
27725WAT     H283418   9.487   7.020   3.642
27726WAT      O83419   4.375   2.947   9.169
27726WAT     H183420   4.290   2.895   9.170
27726WAT     H283421   4.382   3.001   9.253
27727WAT      O83422   1.093   8.057   0.530
27727WAT     H183423   1.169   8.086   0.588
27727WAT     H283424   1.066   7.964   0.556
27728WAT      O83425   5.380   8.312   1.136
27728WAT     H183426   5.443   8.389   1.145
27728WAT     H283427   5.431   8.228   1.120
27729WAT      O83428   3.410   6.766   7.173
27729WAT     H183429   3.422   6.673   7.207
27729WAT     H283430   3.333   6.768   7.108
27730WAT      O83431   3.272   2.062   7.958
27730WAT     H183432   3.173   2.048   7.951
27730WAT     H283433   3.299   2.060   8.054
27731WAT      O83434   6.408   8.617   1.203
27731WAT     H183435   6.465   8.586   1.127
27731WAT     H283436   6.403   8.717   1.204
27732WAT      O83437   2.230   4.073   9.420
27732WAT     H183438   2.257   4.042   9.329
27732WAT     H283439   2.140   4.118   9.414
27733WAT      O83440   9.024   6.021   4.544
27733WAT     H183441   9.088   5.954   4.581
27733WAT     H283442   8.937   6.016   4.592
27734WAT      O83443   6.621   2.419   1.348
27734WAT     H183444   6.652   2.410   1.443
27734WAT     H283445   6.652   2.506   1.311
27735WAT      O83446   7.081   1.230   8.620
27735WAT     H183447   7.179   1.231   8.640
27735WAT     H283448   7.034   1.170   8.685
27736WAT      O83449   5.186   2.233   2.045
27736WAT     H183450   5.226   2.141   2.053
27736WAT     H283451   5.171   2.270   2.137
27737WAT      O83452   3.684   1.862   4.471
27737WAT     H183453   3.610   1.922   4.441
27737WAT     H283454   3.718   1.893   4.560
27738WAT      O83455   5.478   5.582   6.226
27738WAT     H183456   5.390   5.558   6.267
27738WAT     H283457   5.540   5.614   6.297
27739WAT      O83458   1.739   4.586   5.501
27739WAT     H183459   1.701   4.499   5.532
27739WAT     H283460   1.775   4.637   5.579
27740WAT      O83461   0.842   6.472   7.151
27740WAT     H183462   0.826   6.405   7.078
27740WAT     H283463   0.854   6.424   7.238
27741WAT      O83464   0.281   5.311   4.519
27741WAT     H183465   0.194   5.283   4.479
27741WAT     H283466   0.277   5.297   4.618
27742WAT      O83467   7.340   3.404   6.487
27742WAT     H183468   7.302   3.395   6.579
27742WAT     H283469   7.379   3.496   6.476
27743WAT      O83470   7.347   7.135   7.312
27743WAT     H183471   7.338   7.056   7.373
27743WAT     H283472   7.269   7.137   7.250
27744WAT      O83473   4.799   5.395   6.323
27744WAT     H183474   4.778   5.313   6.376
27744WAT     H283475   4.717   5.451   6.315
27745WAT      O83476   2.132   4.965   0.940
27745WAT     H183477   2.160   5.023   1.016
27745WAT     H283478   2.032   4.964   0.934
27746WAT      O83479   8.149   3.364   6.701
27746WAT     H183480   8.077   3.297   6.682
27746WAT     H283481   8.109   3.456   6.703
27747WAT      O83482   9.373   0.602   9.613
27747WAT     H183483   9.350   0.697   9.593
27747WAT     H283484   9.473   0.594   9.623
27748WAT      O83485   7.189   4.297   2.973
27748WAT     H183486   7.100   4.307   3.018
27748WAT     H283487   7.204   4.375   2.912
27749WAT      O83488   6.067   6.122   1.067
27749WAT     H183489   6.009   6.110   1.148
27749WAT     H283490   6.012   6.155   0.991
27750WAT      O83491   8.759   9.792   0.868
27750WAT     H183492   8.744   9.822   0.962
27750WAT     H283493   8.758   9.871   0.807
27751WAT      O83494   5.193   9.251   2.587
27751WAT     H183495   5.264   9.203   2.640
27751WAT     H283496   5.154   9.324   2.643
27752WAT      O83497   9.492   0.676   3.681
27752WAT     H183498   9.540   0.713   3.760
27752WAT     H283499   9.504   0.577   3.677
27753WAT      O83500   9.331   3.432   4.014
27753WAT     H183501   9.380   3.347   3.997
27753WAT     H283502   9.263   3.447   3.941
27754WAT      O83503   7.792   6.218   0.648
27754WAT     H183504   7.737   6.298   0.671
27754WAT     H283505   7.745   6.163   0.580
27755WAT      O83506   6.536   5.111   1.594
27755WAT     H183507   6.514   5.045   1.522
27755WAT     H283508   6.635   5.122   1.601
27756WAT      O83509   7.221   0.467   7.776
27756WAT     H183510   7.271   0.515   7.705
27756WAT     H283511   7.210   0.371   7.750
27757WAT      O83512   0.934   1.255   0.647
27757WAT     H183513   0.936   1.274   0.549
27757WAT     H283514   0.839   1.257   0.680
27758WAT      O83515   4.589   1.827   8.177
27758WAT     H183516   4.675   1.782   8.155
27758WAT     H283517   4.557   1.879   8.098
27759WAT      O83518   2.904   3.162   9.839
27759WAT     H183519   2.814   3.117   9.843
27759WAT     H283520   2.893   3.257   9.811
27760WAT      O83521   4.166   8.239   1.915
27760WAT     H183522   4.137   8.314   1.856
27760WAT     H283523   4.260   8.213   1.893
27761WAT      O83524   2.149   3.649   1.787
27761WAT     H183525   2.161   3.746   1.804
27761WAT     H283526   2.234   3.600   1.807
27762WAT      O83527   6.115   3.512   4.414
27762WAT     H183528   6.156   3.468   4.494
27762WAT     H283529   6.077   3.601   4.441
27763WAT      O83530   5.229   1.402   5.548
27763WAT     H183531   5.206   1.339   5.475
27763WAT     H283532   5.247   1.493   5.509
27764WAT      O83533   2.470   1.429   5.264
27764WAT     H183534   2.410   1.353   5.238
27764WAT     H283535   2.543   1.438   5.196
27765WAT      O83536   9.620   7.040   6.779
27765WAT     H183537   9.553   7.101   6.821
27765WAT     H283538   9.592   6.945   6.794
27766WAT      O83539   8.391   9.806   0.056
27766WAT     H183540   8.471   9.788   0.112
27766WAT     H283541   8.355   9.719   0.020
27767WAT      O83542   1.239   6.942   8.142
27767WAT     H183543   1.202   6.856   8.175
27767WAT     H283544   1.225   6.948   8.043
27768WAT      O83545   3.939   7.598   1.323
27768WAT     H183546   3.952   7.659   1.402
27768WAT     H283547   4.012   7.613   1.256
27769WAT      O83548   4.081   0.610   6.014
27769WAT     H183549   4.139   0.671   5.960
27769WAT     H283550   4.020   0.560   5.953
27770WAT      O83551   7.185   5.907   2.649
27770WAT     H183552   7.120   5.943   2.583
27770WAT     H283553   7.210   5.813   2.623
27771WAT      O83554   5.911   5.181   9.098
27771WAT     H183555   5.959   5.170   9.012
27771WAT     H283556   5.813   5.191   9.081
27772WAT      O83557   3.876   3.973   2.096
27772WAT     H183558   3.958   3.947   2.045
27772WAT     H283559   3.899   3.989   2.192
27773WAT      O83560   9.502   8.870   3.615
27773WAT     H183561   9.438   8.946   3.600
27773WAT     H283562   9.508   8.850   3.712
27774WAT      O83563   4.023   5.748   6.840
27774WAT     H183564   4.006   5.821   6.774
27774WAT     H283565   4.100   5.692   6.808
27775WAT      O83566   0.419   6.385   3.829
27775WAT     H183567   0.510   6.361   3.794
27775WAT     H283568   0.419   6.382   3.929
27776WAT      O83569   4.218   9.399   0.940
27776WAT     H183570   4.218   9.415   1.039
27776WAT     H283571   4.235   9.302   0.922
27777WAT      O83572   4.514   8.094   3.113
27777WAT     H183573   4.453   8.015   3.106
27777WAT     H283574   4.572   8.084   3.194
27778WAT      O83575   2.595   6.451   8.594
27778WAT     H183576   2.659   6.374   8.587
27778WAT     H283577   2.507   6.425   8.555
27779WAT      O83578   7.324   7.446   6.934
27779WAT     H183579   7.406   7.410   6.979
27779WAT     H283580   7.310   7.541   6.962
27780WAT      O83581   1.276   9.540   7.942
27780WAT     H183582   1.266   9.474   8.016
27780WAT     H283583   1.202   9.607   7.948
27781WAT      O83584   5.440   3.311   3.732
27781WAT     H183585   5.486   3.248   3.670
27781WAT     H283586   5.416   3.395   3.683
27782WAT      O83587   8.564   6.691   7.016
27782WAT     H183588   8.584   6.784   6.987
27782WAT     H283589   8.644   6.652   7.062
27783WAT      O83590   3.395   6.153   7.294
27783WAT     H183591   3.305   6.148   7.251
27783WAT     H283592   3.397   6.095   7.376
27784WAT      O83593   5.908   8.105   2.576
27784WAT     H183594   5.965   8.082   2.655
27784WAT     H283595   5.843   8.176   2.602
27785WAT      O83596   0.330   1.701   9.419
27785WAT     H183597   0.292   1.657   9.500
27785WAT     H283598   0.418   1.743   9.443
27786WAT      O83599   3.710   9.316   7.042
27786WAT     H183600   3.652   9.241   7.011
27786WAT     H283601   3.652   9.390   7.077
27787WAT      O83602   7.380   0.939   7.571
27787WAT     H183603   7.373   0.913   7.667
27787WAT     H283604   7.289   0.942   7.530
27788WAT      O83605   4.254   8.331   4.404
27788WAT     H183606   4.227   8.283   4.486
27788WAT     H283607   4.233   8.429   4.413
27789WAT      O83608   9.359   5.397   9.502
27789WAT     H183609   9.330   5.483   9.544
27789WAT     H283610   9.400   5.338   9.572
27790WAT      O83611   6.390   8.431   6.211
27790WAT     H183612   6.466   8.384   6.166
27790WAT     H283613   6.309   8.372   6.209
27791WAT      O83614   2.164   5.760   6.357
27791WAT     H183615   2.213   5.675   6.337
27791WAT     H283616   2.072   5.756   6.318
27792WAT      O83617   0.181   4.412   6.829
27792WAT     H183618   0.084   4.415   6.854
27792WAT     H283619   0.201   4.324   6.785
27793WAT      O83620   4.479   4.527   9.445
27793WAT     H183621   4.419   4.598   9.482
27793WAT     H283622   4.573   4.547   9.472
27794WAT      O83623   1.322   9.359   5.807
27794WAT     H183624   1.284   9.348   5.899
27794WAT     H283625   1.261   9.417   5.753
27795WAT      O83626   4.183   2.220   1.640
27795WAT     H183627   4.143   2.309   1.620
27795WAT     H283628   4.257   2.231   1.707
27796WAT      O83629   0.455   1.621   8.837
27796WAT     H183630   0.409   1.566   8.905
27796WAT     H283631   0.392   1.644   8.763
27797WAT      O83632   6.015   9.731   2.074
27797WAT     H183633   5.968   9.819   2.075
27797WAT     H283634   5.949   9.658   2.059
27798WAT      O83635   4.442   7.108   9.698
27798WAT     H183636   4.379   7.037   9.728
27798WAT     H283637   4.445   7.110   9.598
27799WAT      O83638   5.878   4.835   6.139
27799WAT     H183639   5.815   4.890   6.194
27799WAT     H283640   5.870   4.739   6.167
27800WAT      O83641   2.581   8.928   6.831
27800WAT     H183642   2.532   8.879   6.758
27800WAT     H283643   2.564   9.026   6.822
27801WAT      O83644   2.246   2.503   6.551
27801WAT     H183645   2.186   2.496   6.472
27801WAT     H283646   2.334   2.460   6.531
27802WAT      O83647   9.005   6.130   5.365
27802WAT     H183648   8.934   6.129   5.294
27802WAT     H283649   9.093   6.154   5.323
27803WAT      O83650   7.537   1.987   5.212
27803WAT     H183651   7.441   1.968   5.234
27803WAT     H283652   7.570   1.919   5.146
27804WAT      O83653   6.040   1.227   9.139
27804WAT     H183654   6.030   1.302   9.074
27804WAT     H283655   5.974   1.237   9.213
27805WAT      O83656   0.517   8.296   4.090
27805WAT     H183657   0.522   8.295   3.990
27805WAT     H283658   0.511   8.391   4.122
27806WAT      O83659   8.921   5.073   5.925
27806WAT     H183660   8.944   5.127   5.844
27806WAT     H283661   8.929   4.976   5.903
27807WAT      O83662   7.562   9.256   0.571
27807WAT     H183663   7.571   9.157   0.562
27807WAT     H283664   7.498   9.277   0.644
27808WAT      O83665   7.729   8.480   1.788
27808WAT     H183666   7.652   8.479   1.852
27808WAT     H283667   7.726   8.566   1.736
27809WAT      O83668   8.843   1.495   4.569
27809WAT     H183669   8.748   1.468   4.556
27809WAT     H283670   8.854   1.592   4.547
27810WAT      O83671   3.092   1.411   6.456
27810WAT     H183672   3.032   1.451   6.387
27810WAT     H283673   3.146   1.338   6.415
27811WAT      O83674   0.820   7.971   8.564
27811WAT     H183675   0.900   7.935   8.515
27811WAT     H283676   0.739   7.961   8.506
27812WAT      O83677   7.158   2.323   6.307
27812WAT     H183678   7.231   2.288   6.249
27812WAT     H283679   7.141   2.419   6.284
27813WAT      O83680   3.358   4.645   3.615
27813WAT     H183681   3.359   4.546   3.632
27813WAT     H283682   3.292   4.665   3.543
27814WAT      O83683   6.984   8.238   5.996
27814WAT     H183684   6.921   8.220   5.921
27814WAT     H283685   6.938   8.292   6.066
27815WAT      O83686   2.914   9.687   6.861
27815WAT     H183687   2.914   9.771   6.915
27815WAT     H283688   2.853   9.697   6.783
27816WAT      O83689   0.734   8.946   3.763
27816WAT     H183690   0.811   8.890   3.731
27816WAT     H283691   0.762   8.995   3.846
27817WAT      O83692   2.266   4.318   9.193
27817WAT     H183693   2.297   4.345   9.285
27817WAT     H283694   2.303   4.382   9.126
27818WAT      O83695   7.278   0.691   2.995
27818WAT     H183696   7.219   0.643   3.060
27818WAT     H283697   7.274   0.789   3.013
27819WAT      O83698   1.270   5.620   8.646
27819WAT     H183699   1.355   5.643   8.599
27819WAT     H283700   1.214   5.703   8.655
27820WAT      O83701   2.904   3.855   8.683
27820WAT     H183702   2.988   3.824   8.637
27820WAT     H283703   2.833   3.786   8.674
27821WAT      O83704   3.409   3.865   3.699
27821WAT     H183705   3.480   3.869   3.769
27821WAT     H283706   3.414   3.945   3.640
27822WAT      O83707   6.699   5.466   0.416
27822WAT     H183708   6.668   5.538   0.479
27822WAT     H283709   6.797   5.451   0.430
27823WAT      O83710   9.034   7.345   3.467
27823WAT     H183711   9.123   7.380   3.437
27823WAT     H283712   9.024   7.251   3.435
27824WAT      O83713   8.345   0.943   5.174
27824WAT     H183714   8.309   1.037   5.176
27824WAT     H283715   8.271   0.880   5.152
27825WAT      O83716   1.130   1.401   1.873
27825WAT     H183717   1.101   1.392   1.969
27825WAT     H283718   1.230   1.412   1.870
27826WAT      O83719   5.660   5.508   7.407
27826WAT     H183720   5.642   5.514   7.506
27826WAT     H283721   5.609   5.580   7.360
27827WAT      O83722   1.424   8.012   4.447
27827WAT     H183723   1.512   8.003   4.494
27827WAT     H283724   1.402   7.925   4.402
27828WAT      O83725   0.557   6.794   6.483
27828WAT     H183726   0.612   6.711   6.494
27828WAT     H283727   0.470   6.771   6.440
27829WAT      O83728   8.380   5.127   3.163
27829WAT     H183729   8.350   5.071   3.086
27829WAT     H283730   8.336   5.217   3.159
27830WAT      O83731   5.678   2.114   1.652
27830WAT     H183732   5.746   2.044   1.629
27830WAT     H283733   5.589   2.071   1.664
27831WAT      O83734   9.231   8.640   3.660
27831WAT     H183735   9.240   8.685   3.572
27831WAT     H283736   9.134   8.630   3.683
27832WAT      O83737   5.761   1.488   5.297
27832WAT     H183738   5.690   1.512   5.230
27832WAT     H283739   5.718   1.460   5.382
27833WAT      O83740   7.385   4.635   7.213
27833WAT     H183741   7.428   4.624   7.123
27833WAT     H283742   7.422   4.717   7.257
27834WAT      O83743   6.056   7.833   3.700
27834WAT     H183744   5.996   7.760   3.665
27834WAT     H283745   6.132   7.792   3.750
27835WAT      O83746   6.996   1.815   7.700
27835WAT     H183747   7.054   1.787   7.777
27835WAT     H283748   7.028   1.771   7.616
27836WAT      O83749   7.945   1.382   9.849
27836WAT     H183750   7.887   1.302   9.863
27836WAT     H283751   7.892   1.465   9.867
27837WAT      O83752   7.768   6.122   5.774
27837WAT     H183753   7.676   6.094   5.801
27837WAT     H283754   7.829   6.042   5.776
27838WAT      O83755   4.321   2.857   6.055
27838WAT     H183756   4.350   2.952   6.066
27838WAT     H283757   4.281   2.844   5.965
27839WAT      O83758   9.619   1.362   3.529
27839WAT     H183759   9.520   1.354   3.540
27839WAT     H283760   9.657   1.274   3.500
27840WAT      O83761   7.277   6.514   9.039
27840WAT     H183762   7.269   6.555   8.948
27840WAT     H283763   7.327   6.427   9.033
27841WAT      O83764   2.284   2.755   8.606
27841WAT     H183765   2.376   2.731   8.637
27841WAT     H283766   2.289   2.832   8.543
27842WAT      O83767   2.923   5.347   8.199
27842WAT     H183768   2.832   5.312   8.223
27842WAT     H283769   2.914   5.417   8.128
27843WAT      O83770   3.249   7.192   7.785
27843WAT     H183771   3.349   7.199   7.783
27843WAT     H283772   3.223   7.096   7.797
27844WAT      O83773   7.657   2.099   6.073
27844WAT     H183774   7.609   2.051   6.147
27844WAT     H283775   7.710   2.033   6.020
27845WAT      O83776   3.367   2.886   9.225
27845WAT     H183777   3.287   2.876   9.166
27845WAT     H283778   3.407   2.796   9.241
27846WAT      O83779   4.251   5.938   8.947
27846WAT     H183780   4.224   5.908   9.039
27846WAT     H283781   4.215   6.030   8.931
27847WAT      O83782   1.757   8.427   6.737
27847WAT     H183783   1.759   8.425   6.637
27847WAT     H283784   1.705   8.349   6.771
27848WAT      O83785   8.534   5.621   2.565
27848WAT     H183786   8.571   5.572   2.487
27848WAT     H283787   8.599   5.616   2.642
27849WAT      O83788   1.497   1.345   1.626
27849WAT     H183789   1.435   1.414   1.587
27849WAT     H283790   1.444   1.270   1.665
27850WAT      O83791   2.082   3.781   5.327
27850WAT     H183792   2.038   3.695   5.350
27850WAT     H283793   2.016   3.841   5.281
27851WAT      O83794   9.720   2.562   4.573
27851WAT     H183795   9.627   2.597   4.557
27851WAT     H283796   9.779   2.637   4.601
27852WAT      O83797   9.819   3.872   7.602
27852WAT     H183798   9.749   3.910   7.663
27852WAT     H283799   9.804   3.906   7.509
27853WAT      O83800   0.702   9.693   5.418
27853WAT     H183801   0.708   9.792   5.428
27853WAT     H283802   0.631   9.670   5.351
27854WAT      O83803   1.270   8.799   7.234
27854WAT     H183804   1.277   8.867   7.307
27854WAT     H283805   1.294   8.840   7.147
27855WAT      O83806   9.493   6.067   4.088
27855WAT     H183807   9.564   6.060   4.159
27855WAT     H283808   9.442   5.982   4.084
27856WAT      O83809   5.849   9.042   2.243
27856WAT     H183810   5.894   8.985   2.176
27856WAT     H283811   5.881   9.019   2.335
27857WAT      O83812   0.746   8.543   9.811
27857WAT     H183813   0.784   8.590   9.731
27857WAT     H283814   0.654   8.510   9.789
27858WAT      O83815   3.563   7.216   4.293
27858WAT     H183816   3.566   7.281   4.216
27858WAT     H283817   3.483   7.234   4.349
27859WAT      O83818   8.323   4.252   9.596
27859WAT     H183819   8.317   4.234   9.694
27859WAT     H283820   8.243   4.215   9.550
27860WAT      O83821   4.512   1.797   7.475
27860WAT     H183822   4.541   1.885   7.439
27860WAT     H283823   4.506   1.801   7.574
27861WAT      O83824   8.802   1.206   0.031
27861WAT     H183825   8.888   1.248  -0.000
27861WAT     H283826   8.759   1.157  -0.044
27862WAT      O83827   4.460   1.322   7.558
27862WAT     H183828   4.541   1.351   7.608
27862WAT     H283829   4.479   1.323   7.460
27863WAT      O83830   1.747   5.265   7.541
27863WAT     H183831   1.743   5.184   7.599
27863WAT     H283832   1.667   5.266   7.480
27864WAT      O83833   4.280   0.995   7.498
27864WAT     H183834   4.368   0.968   7.537
27864WAT     H283835   4.255   1.085   7.532
27865WAT      O83836   5.574   8.009   9.652
27865WAT     H183837   5.610   8.101   9.667
27865WAT     H283838   5.623   7.965   9.577
27866WAT      O83839   0.640   8.663   1.099
27866WAT     H183840   0.568   8.698   1.039
27866WAT     H283841   0.613   8.676   1.195
27867WAT      O83842   3.232   6.208   5.475
27867WAT     H183843   3.240   6.122   5.425
27867WAT     H283844   3.226   6.284   5.411
27868WAT      O83845   4.012   0.964   4.217
27868WAT     H183846   3.928   0.975   4.165
27868WAT     H283847   4.074   1.040   4.197
27869WAT      O83848   9.630   5.163   4.667
27869WAT     H183849   9.640   5.253   4.625
27869WAT     H283850   9.555   5.113   4.624
27870WAT      O83851   5.755   5.930   6.224
27870WAT     H183852   5.698   5.886   6.155
27870WAT     H283853   5.696   5.972   6.294
27871WAT      O83854   9.720   9.357   5.796
27871WAT     H183855   9.745   9.344   5.700
27871WAT     H283856   9.622   9.371   5.804
27872WAT      O83857   0.228   0.501   4.994
27872WAT     H183858   0.177   0.459   5.068
27872WAT     H283859   0.302   0.440   4.965
27873WAT      O83860   1.105   1.557   8.710
27873WAT     H183861   1.134   1.522   8.621
27873WAT     H283862   1.010   1.531   8.726
27874WAT      O83863   1.823   0.426   6.281
27874WAT     H183864   1.872   0.349   6.239
27874WAT     H283865   1.841   0.509   6.228
27875WAT      O83866   6.433   3.115   7.868
27875WAT     H183867   6.521   3.085   7.904
27875WAT     H283868   6.404   3.054   7.794
27876WAT      O83869   2.016   6.707   9.491
27876WAT     H183870   2.095   6.707   9.553
27876WAT     H283871   1.982   6.614   9.480
27877WAT      O83872   4.698   7.027   5.599
27877WAT     H183873   4.620   7.059   5.545
27877WAT     H283874   4.666   6.988   5.685
27878WAT      O83875   8.851   3.111   6.301
27878WAT     H183876   8.753   3.095   6.307
27878WAT     H283877   8.898   3.055   6.369
27879WAT      O83878   7.217   9.422   8.715
27879WAT     H183879   7.304   9.444   8.670
27879WAT     H283880   7.234   9.401   8.811
27880WAT      O83881   4.667   0.834   1.963
27880WAT     H183882   4.686   0.926   1.996
27880WAT     H283883   4.753   0.791   1.935
27881WAT      O83884   6.253   6.690   2.188
27881WAT     H183885   6.190   6.735   2.251
27881WAT     H283886   6.203   6.654   2.110
27882WAT      O83887   9.799   8.671   6.533
27882WAT     H183888   9.783   8.647   6.437
27882WAT     H283889   9.767   8.597   6.591
27883WAT      O83890   8.916   7.994   3.062
27883WAT     H183891   8.832   7.945   3.039
27883WAT     H283892   8.941   7.973   3.157
27884WAT      O83893   2.205   9.263   2.877
27884WAT     H183894   2.157   9.199   2.817
27884WAT     H283895   2.150   9.345   2.890
27885WAT      O83896   7.225   2.715   4.572
27885WAT     H183897   7.209   2.806   4.535
27885WAT     H283898   7.144   2.657   4.555
27886WAT      O83899   1.908   5.514   6.662
27886WAT     H183900   1.895   5.415   6.666
27886WAT     H283901   1.957   5.538   6.577
27887WAT      O83902   0.954   5.869   8.907
27887WAT     H183903   0.892   5.796   8.879
27887WAT     H283904   0.924   5.955   8.865
27888WAT      O83905   3.511   2.591   3.284
27888WAT     H183906   3.586   2.572   3.348
27888WAT     H283907   3.485   2.507   3.237
27889WAT      O83908   7.905   1.345   1.434
27889WAT     H183909   7.808   1.331   1.411
27889WAT     H283910   7.924   1.443   1.439
27890WAT      O83911   5.572   6.244   7.222
27890WAT     H183912   5.505   6.307   7.260
27890WAT     H283913   5.557   6.236   7.123
27891WAT      O83914   0.595   2.514   4.481
27891WAT     H183915   0.677   2.559   4.517
27891WAT     H283916   0.580   2.428   4.529
27892WAT      O83917   0.409   6.952   7.990
27892WAT     H183918   0.331   7.005   7.958
27892WAT     H283919   0.485   7.013   8.010
27893WAT      O83920   3.862   3.459   4.166
27893WAT     H183921   3.816   3.469   4.254
27893WAT     H283922   3.954   3.498   4.172
27894WAT      O83923   9.552   5.809   2.020
27894WAT     H183924   9.452   5.801   2.014
27894WAT     H283925   9.592   5.792   1.930
27895WAT      O83926   3.859   7.162   8.370
27895WAT     H183927   3.896   7.248   8.405
27895WAT     H283928   3.760   7.160   8.382
27896WAT      O83929   9.625   8.112   6.056
27896WAT     H183930   9.527   8.119   6.075
27896WAT     H283931   9.666   8.203   6.061
27897WAT      O83932   7.651   5.899   2.802
27897WAT     H183933   7.630   5.980   2.748
27897WAT     H283934   7.669   5.924   2.897
27898WAT      O83935   4.034   7.401   5.174
27898WAT     H183936   4.033   7.301   5.182
27898WAT     H283937   4.043   7.441   5.265
27899WAT      O83938   8.392   8.521   3.348
27899WAT     H183939   8.308   8.532   3.402
27899WAT     H283940   8.371   8.472   3.264
27900WAT      O83941   8.203   6.287   6.546
27900WAT     H183942   8.291   6.328   6.571
27900WAT     H283943   8.130   6.353   6.558
27901WAT      O83944   5.300   3.342   7.767
27901WAT     H183945   5.235   3.405   7.810
27901WAT     H283946   5.266   3.316   7.677
27902WAT      O83947   6.528   8.056   9.417
27902WAT     H183948   6.588   7.987   9.376
27902WAT     H283949   6.488   8.019   9.501
27903WAT      O83950   4.677   3.831   2.235
27903WAT     H183951   4.724   3.744   2.220
27903WAT     H283952   4.725   3.883   2.306
27904WAT      O83953   7.377   2.813   3.863
27904WAT     H183954   7.442   2.755   3.912
27904WAT     H283955   7.377   2.789   3.766
27905WAT      O83956   2.939   3.898   5.402
27905WAT     H183957   2.990   3.842   5.468
27905WAT     H283958   2.968   3.874   5.309
27906WAT      O83959   0.284   5.068   6.537
27906WAT     H183960   0.357   5.000   6.523
27906WAT     H283961   0.196   5.021   6.542
27907WAT      O83962   6.166   3.232   9.603
27907WAT     H183963   6.219   3.158   9.645
27907WAT     H283964   6.078   3.241   9.651
27908WAT      O83965   1.049   8.524   9.107
27908WAT     H183966   0.958   8.486   9.123
27908WAT     H283967   1.065   8.600   9.169
27909WAT      O83968   1.668   6.852   0.219
27909WAT     H183969   1.658   6.758   0.185
27909WAT     H283970   1.750   6.858   0.276
27910WAT      O83971   1.402   0.480   2.788
27910WAT     H183972   1.352   0.405   2.744
27910WAT     H283973   1.347   0.563   2.785
27911WAT      O83974   1.182   9.783   2.284
27911WAT     H183975   1.266   9.836   2.275
27911WAT     H283976   1.160   9.740   2.197
27912WAT      O83977   0.433   9.464   3.779
27912WAT     H183978   0.420   9.543   3.839
27912WAT     H283979   0.506   9.484   3.714
27913WAT      O83980   0.346   3.191   7.856
27913WAT     H183981   0.339   3.155   7.950
27913WAT     H283982   0.440   3.219   7.839
27914WAT      O83983   8.676   4.674   0.417
27914WAT     H183984   8.621   4.748   0.456
27914WAT     H283985   8.618   4.615   0.361
27915WAT      O83986   2.460   0.631   7.877
27915WAT     H183987   2.403   0.710   7.897
27915WAT     H283988   2.405   0.560   7.833
27916WAT      O83989   9.104   5.081   0.206
27916WAT     H183990   9.172   5.071   0.279
27916WAT     H283991   9.146   5.129   0.129
27917WAT      O83992   3.451   8.131   8.904
27917WAT     H183993   3.547   8.109   8.916
27917WAT     H283994   3.442   8.203   8.834
27918WAT      O83995   3.224   4.120   9.157
27918WAT     H183996   3.276   4.044   9.117
27918WAT     H283997   3.234   4.118   9.257
27919WAT      O83998   1.089   2.920   3.711
27919WAT     H183999   1.027   2.983   3.757
27919WAT     H284000   1.051   2.894   3.622
27920WAT      O84001   7.961   6.162   3.557
27920WAT     H184002   7.878   6.216   3.568
27920WAT     H284003   7.954   6.107   3.473
27921WAT      O84004   1.411   8.729   0.379
27921WAT     H184005   1.386   8.826   0.368
27921WAT     H284006   1.435   8.691   0.290
27922WAT      O84007   3.618   4.654   3.667
27922WAT     H184008   3.682   4.716   3.621
27922WAT     H284009   3.529   4.656   3.620
27923WAT      O84010   5.820   7.604   2.975
27923WAT     H184011   5.854   7.690   2.937
27923WAT     H284012   5.755   7.563   2.911
27924WAT      O84013   4.579   8.573   6.091
27924WAT     H184014   4.548   8.647   6.151
27924WAT     H284015   4.508   8.552   6.024
27925WAT      O84016   2.278   0.294   2.966
27925WAT     H184017   2.377   0.282   2.967
27925WAT     H284018   2.256   0.391   2.973
27926WAT      O84019   5.952   1.049   6.187
27926WAT     H184020   5.905   0.973   6.142
27926WAT     H284021   6.033   1.074   6.135
27927WAT      O84022   7.933   9.520   7.863
27927WAT     H184023   7.983   9.460   7.926
27927WAT     H284024   7.994   9.590   7.827
27928WAT      O84025   9.810   5.035   0.025
27928WAT     H184026   9.766   5.058  -0.062
27928WAT     H284027   9.897   4.990   0.007
27929WAT      O84028   7.449   8.377   4.056
27929WAT     H184029   7.457   8.282   4.025
27929WAT     H284030   7.419   8.434   3.979
27930WAT      O84031   0.228   5.933   5.985
27930WAT     H184032   0.153   5.876   5.954
27930WAT     H284033   0.218   6.025   5.948
27931WAT      O84034   2.674   4.914   8.621
27931WAT     H184035   2.772   4.930   8.615
27931WAT     H284036   2.652   4.826   8.577
27932WAT      O84037   4.770   7.111   7.103
27932WAT     H184038   4.673   7.136   7.103
27932WAT     H284039   4.811   7.137   7.190
27933WAT      O84040   1.155   4.635   8.794
27933WAT     H184041   1.181   4.566   8.727
27933WAT     H284042   1.228   4.645   8.862
27934WAT      O84043   2.412   1.695   9.561
27934WAT     H184044   2.330   1.644   9.538
27934WAT     H284045   2.431   1.763   9.490
27935WAT      O84046   8.173   0.744   4.453
27935WAT     H184047   8.078   0.713   4.459
27935WAT     H284048   8.233   0.670   4.481
27936WAT      O84049   8.574   6.897   2.703
27936WAT     H184050   8.492   6.891   2.760
27936WAT     H284051   8.555   6.954   2.623
27937WAT      O84052   2.355   2.103   6.230
27937WAT     H184053   2.287   2.129   6.298
27937WAT     H284054   2.345   2.006   6.207
27938WAT      O84055   7.856   0.073   1.618
27938WAT     H184056   7.835   0.064   1.520
27938WAT     H284057   7.829  -0.012   1.665
27939WAT      O84058   4.505   9.776   6.470
27939WAT     H184059   4.415   9.776   6.513
27939WAT     H284060   4.568   9.832   6.524
27940WAT      O84061   4.933   2.856   6.702
27940WAT     H184062   4.860   2.788   6.699
27940WAT     H284063   5.022   2.810   6.702
27941WAT      O84064   3.837   7.653   8.466
27941WAT     H184065   3.924   7.663   8.418
27941WAT     H284066   3.852   7.609   8.555
27942WAT      O84067   3.719   6.371   5.667
27942WAT     H184068   3.623   6.358   5.644
27942WAT     H284069   3.726   6.409   5.760
27943WAT      O84070   3.263   4.948   6.386
27943WAT     H184071   3.186   4.884   6.389
27943WAT     H284072   3.268   4.989   6.295
27944WAT      O84073   4.128   1.603   3.000
27944WAT     H184074   4.180   1.550   2.932
27944WAT     H284075   4.033   1.570   3.002
27945WAT      O84076   4.124   7.415   2.107
27945WAT     H184077   4.052   7.374   2.052
27945WAT     H284078   4.130   7.513   2.087
27946WAT      O84079   1.099   8.613   7.487
27946WAT     H184080   1.120   8.628   7.583
27946WAT     H284081   1.165   8.547   7.449
27947WAT      O84082   0.819   7.814   0.259
27947WAT     H184083   0.739   7.758   0.280
27947WAT     H284084   0.900   7.773   0.301
27948WAT      O84085   3.279   3.882   9.065
27948WAT     H184086   3.225   3.834   9.134
27948WAT     H284087   3.220   3.905   8.987
27949WAT      O84088   8.989   6.686   5.154
27949WAT     H184089   8.914   6.639   5.198
27949WAT     H284090   9.074   6.636   5.169
27950WAT      O84091   6.459   4.415   7.026
27950WAT     H184092   6.500   4.368   7.105
27950WAT     H284093   6.410   4.496   7.058
27951WAT      O84094   9.817   3.573   5.589
27951WAT     H184095   9.851   3.532   5.504
27951WAT     H284096   9.719   3.555   5.597
27952WAT      O84097   1.312   5.098   3.920
27952WAT     H184098   1.216   5.108   3.947
27952WAT     H284099   1.366   5.071   3.999
27953WAT      O84100   7.876   3.243   2.527
27953WAT     H184101   7.896   3.218   2.432
27953WAT     H284102   7.937   3.317   2.555
27954WAT      O84103   5.818   4.796   8.192
27954WAT     H184104   5.761   4.839   8.263
27954WAT     H284105   5.910   4.837   8.194
27955WAT      O84106   2.936   1.242   8.717
27955WAT     H184107   2.890   1.206   8.798
27955WAT     H284108   2.960   1.338   8.732
27956WAT      O84109   8.920   9.532   3.657
27956WAT     H184110   8.890   9.533   3.562
27956WAT     H284111   8.954   9.441   3.680
27957WAT      O84112   5.595   1.952   7.658
27957WAT     H184113   5.605   1.858   7.625
27957WAT     H284114   5.501   1.982   7.643
27958WAT      O84115   7.873   9.241   5.205
27958WAT     H184116   7.971   9.229   5.219
27958WAT     H284117   7.853   9.244   5.107
27959WAT      O84118   4.390   0.992   2.853
27959WAT     H184119   4.296   1.024   2.849
27959WAT     H284120   4.450   1.059   2.808
27960WAT      O84121   3.254   3.923   9.587
27960WAT     H184122   3.311   3.921   9.669
27960WAT     H284123   3.190   4.000   9.592
27961WAT      O84124   1.065   2.837   6.262
27961WAT     H184125   1.105   2.777   6.331
27961WAT     H284126   0.979   2.875   6.297
27962WAT      O84127   3.066   2.396   1.036
27962WAT     H184128   3.131   2.466   1.007
27962WAT     H284129   2.979   2.410   0.989
27963WAT      O84130   4.944   1.287   4.238
27963WAT     H184131   5.001   1.296   4.320
27963WAT     H284132   4.853   1.257   4.265
27964WAT      O84133   4.956   7.448   2.323
27964WAT     H184134   5.015   7.388   2.269
27964WAT     H284135   5.001   7.469   2.410
27965WAT      O84136   5.770   5.030   7.302
27965WAT     H184137   5.777   4.976   7.386
27965WAT     H284138   5.860   5.062   7.275
27966WAT      O84139   2.163   3.816   6.346
27966WAT     H184140   2.196   3.778   6.260
27966WAT     H284141   2.063   3.815   6.348
27967WAT      O84142   3.482   3.942   0.990
27967WAT     H184143   3.405   3.887   0.958
27967WAT     H284144   3.513   4.002   0.917
27968WAT      O84145   9.296   0.573   3.897
27968WAT     H184146   9.211   0.530   3.869
27968WAT     H284147   9.373   0.513   3.876
27969WAT      O84148   9.632   5.797   2.864
27969WAT     H184149   9.700   5.864   2.894
27969WAT     H284150   9.607   5.815   2.769
27970WAT      O84151   4.930   0.449   5.807
27970WAT     H184152   4.979   0.366   5.780
27970WAT     H284153   4.929   0.513   5.730
27971WAT      O84154   0.982   9.498   4.617
27971WAT     H184155   1.006   9.593   4.637
27971WAT     H284156   1.061   9.439   4.633
27972WAT      O84157   5.630   4.925   6.608
27972WAT     H184158   5.697   4.875   6.662
27972WAT     H284159   5.613   5.014   6.650
27973WAT      O84160   1.395   0.340   5.031
27973WAT     H184161   1.445   0.418   5.071
27973WAT     H284162   1.385   0.355   4.933
27974WAT      O84163   7.938   9.533   1.378
27974WAT     H184164   7.897   9.508   1.290
27974WAT     H284165   7.866   9.563   1.440
27975WAT      O84166   2.843   2.861   4.254
27975WAT     H184167   2.852   2.934   4.186
27975WAT     H284168   2.805   2.780   4.210
27976WAT      O84169   0.798   3.804   9.522
27976WAT     H184170   0.863   3.746   9.474
27976WAT     H284171   0.705   3.785   9.491
27977WAT      O84172   8.664   7.010   1.695
27977WAT     H184173   8.648   7.107   1.674
27977WAT     H284174   8.593   6.955   1.652
27978WAT      O84175   7.486   0.728   7.404
27978WAT     H184176   7.573   0.767   7.375
27978WAT     H284177   7.429   0.799   7.444
27979WAT      O84178   5.961   2.720   8.010
27979WAT     H184179   5.888   2.722   7.942
27979WAT     H284180   6.040   2.770   7.975
27980WAT      O84181   8.602   0.105   1.851
27980WAT     H184182   8.668   0.175   1.826
27980WAT     H284183   8.589   0.042   1.774
27981WAT      O84184   3.051   3.952   3.418
27981WAT     H184185   2.959   3.980   3.445
27981WAT     H284186   3.078   3.870   3.468
27982WAT      O84187   7.548   2.935   2.823
27982WAT     H184188   7.469   2.888   2.863
27982WAT     H284189   7.620   2.868   2.802
27983WAT      O84190   2.549   8.075   1.176
27983WAT     H184191   2.558   7.983   1.212
27983WAT     H284192   2.544   8.071   1.076
27984WAT      O84193   8.803   3.942   9.455
27984WAT     H184194   8.764   3.880   9.387
27984WAT     H284195   8.878   3.994   9.414
27985WAT      O84196   2.801   1.405   6.625
27985WAT     H184197   2.734   1.421   6.552
27985WAT     H284198   2.753   1.385   6.711
27986WAT      O84199   2.576   7.812   1.324
27986WAT     H184200   2.532   7.761   1.251
27986WAT     H284201   2.676   7.802   1.317
27987WAT      O84202   7.928   9.808   4.451
27987WAT     H184203   7.893   9.902   4.455
27987WAT     H284204   7.851   9.745   4.441
27988WAT      O84205   5.394   5.433   3.145
27988WAT     H184206   5.341   5.352   3.119
27988WAT     H284207   5.381   5.505   3.076
27989WAT      O84208   0.876   0.872   2.955
27989WAT     H184209   0.973   0.849   2.961
27989WAT     H284210   0.822   0.800   2.998
27990WAT      O84211   4.299   9.139   0.847
27990WAT     H184212   4.283   9.176   0.755
27990WAT     H284213   4.386   9.174   0.882
27991WAT      O84214   2.099   2.585   5.688
27991WAT     H184215   2.152   2.537   5.618
27991WAT     H284216   2.003   2.557   5.681
27992WAT      O84217   7.134   9.164   2.918
27992WAT     H184218   7.159   9.197   3.009
27992WAT     H284219   7.155   9.234   2.850
27993WAT      O84220   7.630   0.226   0.014
27993WAT     H184221   7.712   0.219  -0.044
27993WAT     H284222   7.643   0.171   0.096
27994WAT      O84223   4.807   8.046   5.650
27994WAT     H184224   4.854   8.032   5.737
27994WAT     H284225   4.784   8.142   5.639
27995WAT      O84226   9.749   2.684   9.373
27995WAT     H184227   9.710   2.599   9.340
27995WAT     H284228   9.721   2.759   9.314
27996WAT      O84229   1.402   2.803   8.494
27996WAT     H184230   1.335   2.743   8.538
27996WAT     H284231   1.491   2.791   8.537
27997WAT      O84232   3.934   7.040   4.008
27997WAT     H184233   3.916   7.023   4.105
27997WAT     H284234   4.027   7.010   3.985
27998WAT      O84235   8.544   3.947   0.459
27998WAT     H184236   8.602   3.990   0.529
27998WAT     H284237   8.463   3.908   0.503
27999WAT      O84238   1.848   0.451   1.044
27999WAT     H184239   1.753   0.438   1.015
27999WAT     H284240   1.877   0.372   1.098
28000WAT      O84241   0.063   2.110   7.172
28000WAT     H184242   0.015   2.078   7.254
28000WAT     H284243   0.138   2.171   7.198
28001WAT      O84244   7.291   5.111   1.838
28001WAT     H184245   7.294   5.173   1.760
28001WAT     H284246   7.196   5.087   1.859
28002WAT      O84247   3.268   4.229   1.324
28002WAT     H184248   3.209   4.150   1.307
28002WAT     H284249   3.237   4.277   1.406
28003WAT      O84250   8.682   0.773   9.617
28003WAT     H184251   8.682   0.808   9.523
28003WAT     H284252   8.748   0.824   9.672
28004WAT      O84253   9.348   2.180   9.465
28004WAT     H184254   9.355   2.142   9.557
28004WAT     H284255   9.439   2.187   9.424
28005WAT      O84256   6.434   1.214   6.810
28005WAT     H184257   6.442   1.115   6.817
28005WAT     H284258   6.404   1.239   6.718
28006WAT      O84259   3.168   8.105   1.902
28006WAT     H184260   3.116   8.050   1.837
28006WAT     H284261   3.187   8.195   1.863
28007WAT      O84262   3.707   4.085   1.623
28007WAT     H184263   3.631   4.072   1.559
28007WAT     H284264   3.768   4.006   1.618
28008WAT      O84265   7.357   3.910   2.182
28008WAT     H184266   7.398   3.903   2.091
28008WAT     H284267   7.275   3.853   2.186
28009WAT      O84268   0.636   9.284   5.745
28009WAT     H184269   0.637   9.281   5.645
28009WAT     H284270   0.568   9.352   5.775
28010WAT      O84271   0.908   5.322   7.548
28010WAT     H184272   0.958   5.308   7.633
28010WAT     H284273   0.965   5.295   7.470
28011WAT      O84274   0.658   6.193   4.383
28011WAT     H184275   0.683   6.160   4.292
28011WAT     H284276   0.735   6.245   4.421
28012WAT      O84277   7.667   8.883   7.663
28012WAT     H184278   7.610   8.849   7.588
28012WAT     H284279   7.756   8.836   7.661
28013WAT      O84280   0.756   2.185   2.709
28013WAT     H184281   0.848   2.219   2.728
28013WAT     H284282   0.755   2.085   2.714
28014WAT      O84283   2.783   8.643   3.115
28014WAT     H184284   2.757   8.720   3.173
28014WAT     H284285   2.733   8.561   3.144
28015WAT      O84286   1.705   5.467   0.167
28015WAT     H184287   1.802   5.448   0.151
28015WAT     H284288   1.660   5.485   0.079
28016WAT      O84289   7.143   3.269   5.524
28016WAT     H184290   7.207   3.342   5.501
28016WAT     H284291   7.131   3.263   5.623
28017WAT      O84292   8.314   7.395   6.069
28017WAT     H184293   8.379   7.411   6.143
28017WAT     H284294   8.245   7.328   6.099
28018WAT      O84295   4.862   1.724   1.740
28018WAT     H184296   4.859   1.814   1.695
28018WAT     H284297   4.838   1.735   1.837
28019WAT      O84298   7.911   5.780   2.805
28019WAT     H184299   7.818   5.816   2.813
28019WAT     H284300   7.976   5.856   2.802
28020WAT      O84301   7.580   3.554   5.336
28020WAT     H184302   7.572   3.652   5.355
28020WAT     H284303   7.677   3.529   5.331
28021WAT      O84304   7.695   5.714   5.765
28021WAT     H184305   7.672   5.618   5.745
28021WAT     H284306   7.694   5.729   5.863
28022WAT      O84307   4.303   7.144   4.456
28022WAT     H184308   4.227   7.181   4.402
28022WAT     H284309   4.381   7.206   4.450
28023WAT      O84310   8.030   9.806   4.127
28023WAT     H184311   8.083   9.783   4.208
28023WAT     H284312   8.068   9.889   4.086
28024WAT      O84313   6.609   7.889   0.354
28024WAT     H184314   6.652   7.799   0.351
28024WAT     H284315   6.510   7.879   0.363
28025WAT      O84316   7.066   0.713   0.275
28025WAT     H184317   7.015   0.790   0.236
28025WAT     H284318   7.121   0.670   0.203
28026WAT      O84319   6.442   1.926   5.617
28026WAT     H184320   6.406   1.941   5.525
28026WAT     H284321   6.440   1.828   5.638
28027WAT      O84322   3.384   8.799   6.259
28027WAT     H184323   3.443   8.737   6.207
28027WAT     H284324   3.289   8.772   6.249
28028WAT      O84325   7.061   3.983   1.508
28028WAT     H184326   6.974   3.984   1.557
28028WAT     H284327   7.054   3.924   1.427
28029WAT      O84328   3.168   1.828   0.546
28029WAT     H184329   3.132   1.915   0.514
28029WAT     H284330   3.093   1.769   0.577
28030WAT      O84331   5.506   1.713   9.196
28030WAT     H184332   5.525   1.780   9.268
28030WAT     H284333   5.500   1.760   9.108
28031WAT      O84334   0.376   4.229   9.423
28031WAT     H184335   0.458   4.276   9.456
28031WAT     H284336   0.356   4.259   9.330
28032WAT      O84337   0.728   2.423   9.282
28032WAT     H184338   0.674   2.367   9.220
28032WAT     H284339   0.825   2.410   9.263
28033WAT      O84340   0.391   7.830   1.735
28033WAT     H184341   0.296   7.805   1.714
28033WAT     H284342   0.409   7.815   1.832
28034WAT      O84343   0.226   4.018   1.696
28034WAT     H184344   0.165   3.994   1.622
28034WAT     H284345   0.176   4.015   1.783
28035WAT      O84346   7.737   5.708   9.140
28035WAT     H184347   7.829   5.669   9.148
28035WAT     H284348   7.675   5.662   9.204
28036WAT      O84349   8.694   7.216   6.163
28036WAT     H184350   8.613   7.207   6.221
28036WAT     H284351   8.767   7.156   6.197
28037WAT      O84352   9.549   7.827   8.843
28037WAT     H184353   9.518   7.833   8.938
28037WAT     H284354   9.622   7.759   8.836
28038WAT      O84355   2.630   5.526   4.885
28038WAT     H184356   2.621   5.442   4.938
28038WAT     H284357   2.561   5.527   4.812
28039WAT      O84358   7.169   1.063   9.140
28039WAT     H184359   7.103   1.135   9.161
28039WAT     H284360   7.234   1.095   9.071
28040WAT      O84361   3.398   9.830   3.492
28040WAT     H184362   3.462   9.755   3.509
28040WAT     H284363   3.440   9.898   3.432
28041WAT      O84364   6.509   4.508   9.103
28041WAT     H184365   6.576   4.433   9.103
28041WAT     H284366   6.553   4.591   9.068
28042WAT      O84367   2.488   3.276   7.959
28042WAT     H184368   2.565   3.218   7.932
28042WAT     H284369   2.442   3.309   7.877
28043WAT      O84370   6.264   3.615   9.766
28043WAT     H184371   6.254   3.575   9.856
28043WAT     H284372   6.295   3.710   9.775
28044WAT      O84373   9.020   6.300   7.010
28044WAT     H184374   9.079   6.322   6.932
28044WAT     H284375   8.926   6.288   6.978
28045WAT      O84376   5.127   8.577   7.139
28045WAT     H184377   5.218   8.541   7.116
28045WAT     H284378   5.057   8.522   7.093
28046WAT      O84379   0.562   7.419   4.527
28046WAT     H184380   0.544   7.326   4.492
28046WAT     H284381   0.622   7.413   4.607
28047WAT      O84382   5.762   0.816   1.683
28047WAT     H184383   5.792   0.867   1.602
28047WAT     H284384   5.837   0.811   1.749
28048WAT      O84385   1.543   2.760   3.263
28048WAT     H184386   1.514   2.664   3.262
28048WAT     H284387   1.493   2.810   3.334
28049WAT      O84388   5.077   0.219   2.285
28049WAT     H184389   5.014   0.293   2.309
28049WAT     H284390   5.135   0.199   2.364
28050WAT      O84391   7.693   3.526   8.061
28050WAT     H184392   7.741   3.449   8.020
28050WAT     H284393   7.751   3.608   8.055
28051WAT      O84394   7.538   7.930   2.738
28051WAT     H184395   7.579   7.940   2.829
28051WAT     H284396   7.563   7.841   2.700
28052WAT      O84397   4.126   4.932   6.654
28052WAT     H184398   4.163   4.846   6.689
28052WAT     H284399   4.169   5.009   6.702
28053WAT      O84400   5.479   1.543   2.000
28053WAT     H184401   5.546   1.618   2.002
28053WAT     H284402   5.414   1.559   1.926
28054WAT      O84403   8.678   2.457   4.956
28054WAT     H184404   8.718   2.389   5.017
28054WAT     H284405   8.746   2.528   4.937
28055WAT      O84406   1.732   1.292   5.964
28055WAT     H184407   1.823   1.270   5.931
28055WAT     H284408   1.663   1.254   5.902
28056WAT      O84409   8.856   0.388   6.391
28056WAT     H184410   8.800   0.470   6.380
28056WAT     H284411   8.888   0.358   6.301
28057WAT      O84412   7.911   7.253   3.969
28057WAT     H184413   7.890   7.196   3.890
28057WAT     H284414   7.851   7.334   3.969
28058WAT      O84415   1.707   6.213   4.486
28058WAT     H184416   1.619   6.167   4.500
28058WAT     H284417   1.736   6.201   4.391
28059WAT      O84418   0.424   0.076   5.646
28059WAT     H184419   0.412   0.030   5.558
28059WAT     H284420   0.355   0.042   5.711
28060WAT      O84421   9.588   6.141   5.158
28060WAT     H184422   9.552   6.111   5.069
28060WAT     H284423   9.688   6.132   5.157
28061WAT      O84424   6.608   6.205   2.421
28061WAT     H184425   6.693   6.196   2.474
28061WAT     H284426   6.605   6.134   2.351
28062WAT      O84427   8.345   1.970   2.459
28062WAT     H184428   8.321   1.915   2.379
28062WAT     H284429   8.393   1.912   2.526
28063WAT      O84430   0.808   9.570   4.074
28063WAT     H184431   0.870   9.640   4.038
28063WAT     H284432   0.827   9.555   4.171
28064WAT      O84433   6.588   3.442   7.674
28064WAT     H184434   6.623   3.522   7.625
28064WAT     H284435   6.505   3.467   7.723
28065WAT      O84436   3.915   8.852   2.538
28065WAT     H184437   3.834   8.805   2.572
28065WAT     H284438   3.887   8.930   2.482
28066WAT      O84439   0.299   4.599   6.320
28066WAT     H184440   0.374   4.663   6.335
28066WAT     H284441   0.212   4.643   6.343
28067WAT      O84442   7.233   1.510   6.317
28067WAT     H184443   7.266   1.495   6.223
28067WAT     H284444   7.248   1.605   6.343
28068WAT      O84445   1.810   8.547   6.184
28068WAT     H184446   1.903   8.579   6.201
28068WAT     H284447   1.750   8.625   6.169
28069WAT      O84448   6.132   3.886   6.791
28069WAT     H184449   6.193   3.923   6.720
28069WAT     H284450   6.051   3.848   6.748
28070WAT      O84451   1.699   5.194   3.954
28070WAT     H184452   1.698   5.270   4.020
28070WAT     H284453   1.663   5.112   3.998
28071WAT      O84454   1.716   8.373   6.477
28071WAT     H184455   1.649   8.387   6.404
28071WAT     H284456   1.738   8.276   6.484
28072WAT      O84457   2.495   7.359   6.971
28072WAT     H184458   2.414   7.381   7.025
28072WAT     H284459   2.577   7.387   7.021
28073WAT      O84460   2.257   9.381   7.452
28073WAT     H184461   2.189   9.453   7.461
28073WAT     H284462   2.211   9.293   7.437
28074WAT      O84463   6.316   2.486   8.568
28074WAT     H184464   6.227   2.473   8.523
28074WAT     H284465   6.302   2.516   8.662
28075WAT      O84466   7.713   5.591   2.520
28075WAT     H184467   7.804   5.572   2.482
28075WAT     H284468   7.646   5.529   2.479
28076WAT      O84469   7.470   2.399   6.903
28076WAT     H184470   7.452   2.494   6.928
28076WAT     H284471   7.560   2.392   6.860
28077WAT      O84472   4.937   9.084   0.018
28077WAT     H184473   4.900   8.996   0.049
28077WAT     H284474   4.918   9.153   0.088
28078WAT      O84475   1.429   6.818   4.881
28078WAT     H184476   1.367   6.832   4.958
28078WAT     H284477   1.504   6.884   4.886
28079WAT      O84478   8.876   4.798   1.164
28079WAT     H184479   8.895   4.823   1.070
28079WAT     H284480   8.842   4.877   1.214
28080WAT      O84481   3.438   5.463   0.108
28080WAT     H184482   3.502   5.492   0.037
28080WAT     H284483   3.356   5.521   0.103
28081WAT      O84484   8.802   9.843   6.805
28081WAT     H184485   8.840   9.826   6.896
28081WAT     H284486   8.794   9.757   6.755
28082WAT      O84487   3.682   8.813   0.428
28082WAT     H184488   3.618   8.828   0.504
28082WAT     H284489   3.659   8.728   0.381
28083WAT      O84490   5.680   7.459   2.787
28083WAT     H184491   5.680   7.413   2.698
28083WAT     H284492   5.595   7.511   2.797
28084WAT      O84493   6.208   2.161   6.036
28084WAT     H184494   6.176   2.198   5.948
28084WAT     H284495   6.296   2.203   6.059
28085WAT      O84496   9.598   4.590   2.035
28085WAT     H184497   9.687   4.637   2.034
28085WAT     H284498   9.531   4.647   2.083
28086WAT      O84499   2.202   0.559   8.416
28086WAT     H184500   2.177   0.465   8.391
28086WAT     H284501   2.254   0.558   8.501
28087WAT      O84502   8.654   2.584   3.469
28087WAT     H184503   8.579   2.626   3.519
28087WAT     H284504   8.622   2.500   3.425
28088WAT      O84505   7.206   6.890   8.875
28088WAT     H184506   7.264   6.942   8.812
28088WAT     H284507   7.230   6.913   8.969
28089WAT      O84508   4.882   8.186   6.870
28089WAT     H184509   4.882   8.154   6.775
28089WAT     H284510   4.816   8.132   6.922
28090WAT      O84511   7.656   0.581   7.997
28090WAT     H184512   7.670   0.581   7.898
28090WAT     H284513   7.615   0.494   8.025
28091WAT      O84514   0.976   6.371   0.568
28091WAT     H184515   1.017   6.293   0.522
28091WAT     H284516   0.996   6.367   0.666
28092WAT      O84517   9.196   2.233   6.411
28092WAT     H184518   9.116   2.182   6.380
28092WAT     H284519   9.274   2.211   6.353
28093WAT      O84520   5.095   7.700   1.316
28093WAT     H184521   5.180   7.649   1.299
28093WAT     H284522   5.072   7.754   1.235
28094WAT      O84523   1.731   4.324   7.166
28094WAT     H184524   1.807   4.389   7.173
28094WAT     H284525   1.688   4.334   7.076
28095WAT      O84526   5.965   3.558   5.830
28095WAT     H184527   5.936   3.583   5.738
28095WAT     H284528   5.989   3.461   5.832
28096WAT      O84529   3.698   6.007   8.210
28096WAT     H184530   3.790   6.011   8.249
28096WAT     H284531   3.669   6.099   8.183
28097WAT      O84532   0.020   3.753   6.182
28097WAT     H184533  -0.056   3.714   6.129
28097WAT     H284534   0.101   3.759   6.124
28098WAT      O84535   7.046   6.401   6.015
28098WAT     H184536   7.087   6.315   5.983
28098WAT     H284537   7.119   6.467   6.034
28099WAT      O84538   6.944   6.365   6.270
28099WAT     H184539   6.982   6.382   6.179
28099WAT     H284540   6.974   6.438   6.332
28100WAT      O84541   7.681   2.666   1.739
28100WAT     H184542   7.770   2.661   1.693
28100WAT     H284543   7.630   2.582   1.722
28101WAT      O84544   0.196   3.494   0.636
28101WAT     H184545   0.190   3.560   0.561
28101WAT     H284546   0.185   3.542   0.723
28102WAT      O84547   4.507   6.868   6.681
28102WAT     H184548   4.524   6.881   6.583
28102WAT     H284549   4.521   6.955   6.728
28103WAT      O84550   1.333   3.899   9.763
28103WAT     H184551   1.399   3.973   9.750
28103WAT     H284552   1.331   3.840   9.682
28104WAT      O84553   5.322   3.334   8.985
28104WAT     H184554   5.338   3.259   9.049
28104WAT     H284555   5.402   3.346   8.926
28105WAT      O84556   3.783   0.180   2.170
28105WAT     H184557   3.842   0.198   2.091
28105WAT     H284558   3.693   0.222   2.155
28106WAT      O84559   2.218   0.236   4.835
28106WAT     H184560   2.226   0.293   4.917
28106WAT     H284561   2.142   0.270   4.779
28107WAT      O84562   3.308   2.327   1.416
28107WAT     H184563   3.379   2.345   1.348
28107WAT     H284564   3.264   2.240   1.397
28108WAT      O84565   1.844   5.819   8.792
28108WAT     H184566   1.924   5.775   8.833
28108WAT     H284567   1.803   5.758   8.725
28109WAT      O84568   6.595   9.620   3.734
28109WAT     H184569   6.605   9.719   3.721
28109WAT     H284570   6.585   9.576   3.645
28110WAT      O84571   0.593   1.562   3.591
28110WAT     H184572   0.678   1.515   3.613
28110WAT     H284573   0.561   1.612   3.672
28111WAT      O84574   4.820   3.948   9.888
28111WAT     H184575   4.736   4.002   9.881
28111WAT     H284576   4.889   3.999   9.939
28112WAT      O84577   4.183   7.580   3.668
28112WAT     H184578   4.172   7.491   3.625
28112WAT     H284579   4.134   7.650   3.616
28113WAT      O84580   2.163   1.500   3.230
28113WAT     H184581   2.190   1.541   3.143
28113WAT     H284582   2.187   1.403   3.229
28114WAT      O84583   9.857   3.689   3.248
28114WAT     H184584   9.903   3.627   3.184
28114WAT     H284585   9.824   3.637   3.327
28115WAT      O84586   0.997   1.578   2.791
28115WAT     H184587   1.023   1.498   2.736
28115WAT     H284588   1.012   1.661   2.736
28116WAT      O84589   6.513   2.773   2.797
28116WAT     H184590   6.544   2.869   2.792
28116WAT     H284591   6.421   2.770   2.837
28117WAT      O84592   9.482   7.537   1.783
28117WAT     H184593   9.507   7.458   1.838
28117WAT     H284594   9.467   7.508   1.688
28118WAT      O84595   8.365   0.332   6.325
28118WAT     H184596   8.407   0.338   6.235
28118WAT     H284597   8.424   0.279   6.386
28119WAT      O84598   6.802   3.181   1.576
28119WAT     H184599   6.764   3.089   1.580
28119WAT     H284600   6.883   3.181   1.517
28120WAT      O84601   1.750   2.382   3.924
28120WAT     H184602   1.699   2.317   3.981
28120WAT     H284603   1.840   2.342   3.903
28121WAT      O84604   2.027   5.112   2.437
28121WAT     H184605   1.968   5.096   2.358
28121WAT     H284606   2.116   5.147   2.406
28122WAT      O84607   6.606   1.585   6.705
28122WAT     H184608   6.606   1.572   6.606
28122WAT     H284609   6.685   1.639   6.731
28123WAT      O84610   1.170   7.019   6.485
28123WAT     H184611   1.221   6.935   6.501
28123WAT     H284612   1.201   7.090   6.548
28124WAT      O84613   4.485   1.123   4.926
28124WAT     H184614   4.487   1.189   4.851
28124WAT     H284615   4.565   1.064   4.922
28125WAT      O84616   6.074   0.987   8.984
28125WAT     H184617   6.098   1.029   8.896
28125WAT     H284618   6.050   1.058   9.050
28126WAT      O84619   7.729   5.637   9.626
28126WAT     H184620   7.667   5.566   9.593
28126WAT     H284621   7.677   5.716   9.657
28127WAT      O84622   7.294   0.668   3.456
28127WAT     H184623   7.207   0.621   3.474
28127WAT     H284624   7.282   0.731   3.380
28128WAT      O84625   0.664   8.978   4.498
28128WAT     H184626   0.645   9.068   4.457
28128WAT     H284627   0.621   8.974   4.588
28129WAT      O84628   1.394   5.082   5.082
28129WAT     H184629   1.445   5.168   5.083
28129WAT     H284630   1.401   5.039   5.172
28130WAT      O84631   2.458   9.804   8.793
28130WAT     H184632   2.517   9.797   8.873
28130WAT     H284633   2.378   9.746   8.806
28131WAT      O84634   1.125   0.161   6.556
28131WAT     H184635   1.073   0.246   6.569
28131WAT     H284636   1.165   0.132   6.643
28132WAT      O84637   0.875   6.637   7.506
28132WAT     H184638   0.900   6.688   7.588
28132WAT     H284639   0.810   6.690   7.452
28133WAT      O84640   3.912   3.108   0.870
28133WAT     H184641   3.833   3.166   0.892
28133WAT     H284642   3.902   3.020   0.916
28134WAT      O84643   1.851   9.668   6.761
28134WAT     H184644   1.771   9.725   6.748
28134WAT     H284645   1.920   9.719   6.812
28135WAT      O84646   5.822   4.161   8.822
28135WAT     H184647   5.859   4.252   8.843
28135WAT     H284648   5.879   4.091   8.864
28136WAT      O84649   6.394   2.948   9.236
28136WAT     H184650   6.491   2.934   9.253
28136WAT     H284651   6.357   3.011   9.305
28137WAT      O84652   3.319   1.527   5.201
28137WAT     H184653   3.383   1.451   5.189
28137WAT     H284654   3.244   1.518   5.136
28138WAT      O84655   1.876   2.854   3.536
28138WAT     H184656   1.840   2.862   3.443
28138WAT     H284657   1.953   2.916   3.546
28139WAT      O84658   9.868   1.993   6.292
28139WAT     H184659   9.841   2.083   6.328
28139WAT     H284660   9.879   1.999   6.193
28140WAT      O84661   0.206   8.979   1.054
28140WAT     H184662   0.273   8.936   1.114
28140WAT     H284663   0.251   9.042   0.991
28141WAT      O84664   8.067   8.469   0.801
28141WAT     H184665   8.132   8.412   0.852
28141WAT     H284666   8.041   8.423   0.716
28142WAT      O84667   3.348   1.003   0.726
28142WAT     H184668   3.343   1.085   0.668
28142WAT     H284669   3.443   0.974   0.735
28143WAT      O84670   3.981   3.555   5.628
28143WAT     H184671   3.957   3.472   5.679
28143WAT     H284672   3.932   3.556   5.540
28144WAT      O84673   0.086   6.422   0.177
28144WAT     H184674   0.131   6.436   0.089
28144WAT     H284675  -0.010   6.399   0.162
28145WAT      O84676   7.512   3.426   5.874
28145WAT     H184677   7.500   3.329   5.850
28145WAT     H284678   7.554   3.474   5.797
28146WAT      O84679   7.138   0.534   3.158
28146WAT     H184680   7.087   0.471   3.100
28146WAT     H284681   7.076   0.603   3.194
28147WAT      O84682   0.406   8.461   5.897
28147WAT     H184683   0.361   8.407   5.968
28147WAT     H284684   0.479   8.407   5.856
28148WAT      O84685   5.988   2.588   8.878
28148WAT     H184686   6.080   2.603   8.843
28148WAT     H284687   5.921   2.612   8.808
28149WAT      O84688   5.144   6.935   8.318
28149WAT     H184689   5.209   6.936   8.242
28149WAT     H284690   5.076   7.008   8.305
28150WAT      O84691   5.305   4.773   8.091
28150WAT     H184692   5.327   4.759   7.994
28150WAT     H284693   5.345   4.699   8.145
28151WAT      O84694   5.443   8.461   8.393
28151WAT     H184695   5.542   8.457   8.378
28151WAT     H284696   5.425   8.522   8.471
28152WAT      O84697   1.545   2.562   4.436
28152WAT     H184698   1.618   2.620   4.400
28152WAT     H284699   1.465   2.569   4.377
28153WAT      O84700   9.741   3.367   1.793
28153WAT     H184701   9.702   3.278   1.769
28153WAT     H284702   9.762   3.368   1.891
28154WAT      O84703   7.823   6.554   2.962
28154WAT     H184704   7.848   6.458   2.962
28154WAT     H284705   7.807   6.584   3.057
28155WAT      O84706   7.215   0.600   0.073
28155WAT     H184707   7.159   0.517   0.066
28155WAT     H284708   7.307   0.581   0.038
28156WAT      O84709   6.221   5.625   8.830
28156WAT     H184710   6.134   5.577   8.823
28156WAT     H284711   6.292   5.572   8.783
28157WAT      O84712   4.310   2.717   6.624
28157WAT     H184713   4.340   2.812   6.611
28157WAT     H284714   4.248   2.712   6.702
28158WAT      O84715   1.663   0.948   8.657
28158WAT     H184716   1.675   1.031   8.601
28158WAT     H284717   1.616   0.971   8.741
28159WAT      O84718   5.361   1.822   6.391
28159WAT     H184719   5.375   1.920   6.379
28159WAT     H284720   5.440   1.772   6.353
28160WAT      O84721   8.654   9.144   1.266
28160WAT     H184722   8.673   9.183   1.356
28160WAT     H284723   8.592   9.066   1.276
28161WAT      O84724   6.989   3.020   3.481
28161WAT     H184725   6.981   2.921   3.482
28161WAT     H284726   6.924   3.058   3.415
28162WAT      O84727   6.554   1.563   0.521
28162WAT     H184728   6.500   1.572   0.438
28162WAT     H284729   6.505   1.506   0.587
28163WAT      O84730   6.748   7.686   0.449
28163WAT     H184731   6.716   7.609   0.504
28163WAT     H284732   6.837   7.717   0.484
28164WAT      O84733   6.580   1.113   4.755
28164WAT     H184734   6.516   1.078   4.823
28164WAT     H284735   6.673   1.083   4.779
28165WAT      O84736   9.528   9.329   4.539
28165WAT     H184737   9.523   9.311   4.637
28165WAT     H284738   9.466   9.267   4.491
28166WAT      O84739   1.578   9.607   6.422
28166WAT     H184740   1.599   9.570   6.332
28166WAT     H284741   1.506   9.676   6.414
28167WAT      O84742   6.911   6.655   0.967
28167WAT     H184743   6.820   6.615   0.952
28167WAT     H284744   6.969   6.589   1.015
28168WAT      O84745   1.687   4.435   7.687
28168WAT     H184746   1.678   4.531   7.715
28168WAT     H284747   1.616   4.413   7.621
28169WAT      O84748   3.558   5.577   4.824
28169WAT     H184749   3.576   5.646   4.755
28169WAT     H284750   3.603   5.602   4.910
28170WAT      O84751   7.286   5.982   0.095
28170WAT     H184752   7.384   5.966   0.110
28170WAT     H284753   7.271   6.008   0.000
28171WAT      O84754   6.214   7.763   7.502
28171WAT     H184755   6.310   7.779   7.526
28171WAT     H284756   6.209   7.714   7.415
28172WAT      O84757   8.335   3.635   2.122
28172WAT     H184758   8.411   3.676   2.071
28172WAT     H284759   8.359   3.631   2.219
28173WAT      O84760   1.894   3.800   6.286
28173WAT     H184761   1.850   3.835   6.369
28173WAT     H284762   1.890   3.870   6.214
28174WAT      O84763   2.026   6.345   2.376
28174WAT     H184764   1.980   6.261   2.348
28174WAT     H284765   1.984   6.380   2.460
28175WAT      O84766   1.938   6.225   8.959
28175WAT     H184767   2.015   6.186   8.909
28175WAT     H284768   1.918   6.316   8.923
28176WAT      O84769   7.892   4.422   2.173
28176WAT     H184770   7.837   4.398   2.254
28176WAT     H284771   7.965   4.484   2.200
28177WAT      O84772   0.883   1.199   9.288
28177WAT     H184773   0.820   1.190   9.211
28177WAT     H284774   0.857   1.134   9.359
28178WAT      O84775   1.104   9.010   0.361
28178WAT     H184776   1.066   9.098   0.332
28178WAT     H284777   1.055   8.936   0.316
28179WAT      O84778   7.845   8.230   6.281
28179WAT     H184779   7.797   8.274   6.205
28179WAT     H284780   7.935   8.199   6.251
28180WAT      O84781   7.672   4.583   7.424
28180WAT     H184782   7.575   4.584   7.446
28180WAT     H284783   7.713   4.671   7.446
28181WAT      O84784   1.176   8.380   6.604
28181WAT     H184785   1.120   8.458   6.631
28181WAT     H284786   1.179   8.374   6.504
28182WAT      O84787   2.781   6.233   2.101
28182WAT     H184788   2.814   6.326   2.087
28182WAT     H284789   2.681   6.232   2.099
28183WAT      O84790   8.371   8.139   7.564
28183WAT     H184791   8.272   8.127   7.578
28183WAT     H284792   8.386   8.221   7.509
28184WAT      O84793   3.213   1.821   1.334
28184WAT     H184794   3.174   1.778   1.416
28184WAT     H284795   3.175   1.778   1.252
28185WAT      O84796   4.351   9.357   2.630
28185WAT     H184797   4.268   9.385   2.582
28185WAT     H284798   4.380   9.267   2.597
28186WAT      O84799   0.236   4.248   0.762
28186WAT     H184800   0.197   4.339   0.764
28186WAT     H284801   0.203   4.199   0.681
28187WAT      O84802   9.585   6.768   2.734
28187WAT     H184803   9.672   6.751   2.687
28187WAT     H284804   9.552   6.682   2.774
28188WAT      O84805   8.675   6.655   6.503
28188WAT     H184806   8.579   6.653   6.477
28188WAT     H284807   8.731   6.676   6.422
28189WAT      O84808   1.296   8.238   4.542
28189WAT     H184809   1.333   8.298   4.472
28189WAT     H284810   1.314   8.143   4.517
28190WAT      O84811   2.396   3.366   2.619
28190WAT     H184812   2.379   3.299   2.547
28190WAT     H284813   2.351   3.336   2.704
28191WAT      O84814   5.756   1.252   6.781
28191WAT     H184815   5.799   1.241   6.692
28191WAT     H284816   5.814   1.309   6.840
28192WAT      O84817   1.181   1.899   0.107
28192WAT     H184818   1.141   1.816   0.146
28192WAT     H284819   1.124   1.932   0.032
28193WAT      O84820   0.210   9.167   3.252
28193WAT     H184821   0.263   9.099   3.302
28193WAT     H284822   0.151   9.217   3.316
28194WAT      O84823   4.670   2.094   0.742
28194WAT     H184824   4.743   2.162   0.753
28194WAT     H284825   4.689   2.015   0.801
28195WAT      O84826   5.744   3.284   7.623
28195WAT     H184827   5.677   3.298   7.696
28195WAT     H284828   5.739   3.359   7.557
28196WAT      O84829   3.517   3.757   4.096
28196WAT     H184830   3.521   3.815   4.015
28196WAT     H284831   3.567   3.802   4.171
28197WAT      O84832   7.799   1.934   8.434
28197WAT     H184833   7.765   1.946   8.528
28197WAT     H284834   7.750   1.996   8.373
28198WAT      O84835   5.769   2.037   4.373
28198WAT     H184836   5.808   2.128   4.361
28198WAT     H284837   5.742   2.024   4.468
28199WAT      O84838   4.934   4.147   2.703
28199WAT     H184839   4.855   4.205   2.724
28199WAT     H284840   4.902   4.055   2.680
28200WAT      O84841   6.147   3.854   6.186
28200WAT     H184842   6.189   3.834   6.274
28200WAT     H284843   6.060   3.804   6.179
28201WAT      O84844   7.080   7.824   3.291
28201WAT     H184845   7.129   7.909   3.304
28201WAT     H284846   7.035   7.798   3.376
28202WAT      O84847   3.532   0.665   5.035
28202WAT     H184848   3.515   0.749   5.087
28202WAT     H284849   3.629   0.642   5.041
28203WAT      O84850   2.979   7.825   4.548
28203WAT     H184851   3.008   7.742   4.596
28203WAT     H284852   3.040   7.841   4.470
28204WAT      O84853   5.274   6.349   4.086
28204WAT     H184854   5.179   6.326   4.108
28204WAT     H284855   5.335   6.305   4.153
28205WAT      O84856   6.251   8.965   1.994
28205WAT     H184857   6.296   8.921   1.917
28205WAT     H284858   6.266   9.064   1.990
28206WAT      O84859   3.035   2.721   2.433
28206WAT     H184860   3.023   2.647   2.500
28206WAT     H284861   3.118   2.705   2.380
28207WAT      O84862   2.624   7.596   4.684
28207WAT     H184863   2.674   7.510   4.671
28207WAT     H284864   2.530   7.576   4.712
28208WAT      O84865   0.932   0.548   9.786
28208WAT     H184866   0.879   0.513   9.863
28208WAT     H284867   1.030   0.538   9.804
28209WAT      O84868   5.899   7.149   6.713
28209WAT     H184869   5.995   7.157   6.740
28209WAT     H284870   5.888   7.178   6.618
28210WAT      O84871   3.423   0.645   8.793
28210WAT     H184872   3.347   0.623   8.731
28210WAT     H284873   3.403   0.609   8.884
28211WAT      O84874   1.810   1.281   7.780
28211WAT     H184875   1.710   1.281   7.788
28211WAT     H284876   1.845   1.189   7.798
28212WAT      O84877   9.221   5.581   9.675
28212WAT     H184878   9.319   5.602   9.665
28212WAT     H284879   9.183   5.636   9.749
28213WAT      O84880   6.226   2.154   2.892
28213WAT     H184881   6.134   2.139   2.856
28213WAT     H284882   6.293   2.112   2.831
28214WAT      O84883   7.665   1.374   2.302
28214WAT     H184884   7.674   1.348   2.398
28214WAT     H284885   7.623   1.465   2.296
28215WAT      O84886   4.532   9.415   6.669
28215WAT     H184887   4.595   9.470   6.613
28215WAT     H284888   4.539   9.444   6.764
28216WAT      O84889   3.112   2.622   1.801
28216WAT     H184890   3.087   2.592   1.893
28216WAT     H284891   3.123   2.721   1.800
28217WAT      O84892   3.995   7.397   8.478
28217WAT     H184893   3.992   7.489   8.439
28217WAT     H284894   3.945   7.396   8.565
28218WAT      O84895   9.401   2.403   5.076
28218WAT     H184896   9.308   2.440   5.084
28218WAT     H284897   9.440   2.427   4.988
28219WAT      O84898   0.942   2.470   6.481
28219WAT     H184899   1.021   2.531   6.489
28219WAT     H284900   0.875   2.511   6.419
28220WAT      O84901   0.130   5.616   7.154
28220WAT     H184902   0.224   5.646   7.169
28220WAT     H284903   0.084   5.601   7.242
28221WAT      O84904   7.328   3.124   6.531
28221WAT     H184905   7.230   3.139   6.520
28221WAT     H284906   7.378   3.208   6.510
28222WAT      O84907   5.137   0.361   8.902
28222WAT     H184908   5.191   0.284   8.868
28222WAT     H284909   5.077   0.329   8.976
28223WAT      O84910   0.683   3.176   1.469
28223WAT     H184911   0.632   3.256   1.500
28223WAT     H284912   0.626   3.121   1.408
28224WAT      O84913   0.931   3.004   2.097
28224WAT     H184914   1.014   2.992   2.151
28224WAT     H284915   0.855   2.955   2.139
28225WAT      O84916   8.229   9.827   3.023
28225WAT     H184917   8.283   9.754   2.981
28225WAT     H284918   8.285   9.877   3.088
28226WAT      O84919   6.000   2.841   6.822
28226WAT     H184920   6.038   2.919   6.871
28226WAT     H284921   6.039   2.756   6.858
28227WAT      O84922   6.260   8.687   8.484
28227WAT     H184923   6.319   8.615   8.447
28227WAT     H284924   6.189   8.646   8.541
28228WAT      O84925   8.486   5.274   3.449
28228WAT     H184926   8.393   5.300   3.475
28228WAT     H284927   8.494   5.174   3.449
28229WAT      O84928   2.309   8.201   2.479
28229WAT     H184929   2.296   8.299   2.492
28229WAT     H284930   2.389   8.171   2.531
28230WAT      O84931   4.941   3.527   0.602
28230WAT     H184932   4.976   3.434   0.597
28230WAT     H284933   4.936   3.566   0.510
28231WAT      O84934   4.947   7.913   0.272
28231WAT     H184935   4.897   7.962   0.201
28231WAT     H284936   5.012   7.975   0.316
28232WAT      O84937   2.041   4.312   5.377
28232WAT     H184938   2.086   4.350   5.295
28232WAT     H284939   1.948   4.283   5.353
28233WAT      O84940   2.493   0.611   9.586
28233WAT     H184941   2.562   0.557   9.633
28233WAT     H284942   2.440   0.552   9.525
28234WAT      O84943   9.753   1.048   5.360
28234WAT     H184944   9.822   1.113   5.391
28234WAT     H284945   9.666   1.097   5.346
28235WAT      O84946   5.682   2.181   0.831
28235WAT     H184947   5.645   2.091   0.806
28235WAT     H284948   5.637   2.252   0.777
28236WAT      O84949   6.214   1.914   3.452
28236WAT     H184950   6.236   1.954   3.541
28236WAT     H284951   6.281   1.843   3.431
28237WAT      O84952   8.454   7.463   8.446
28237WAT     H184953   8.508   7.450   8.362
28237WAT     H284954   8.373   7.518   8.425
28238WAT      O84955   0.651   2.912   8.163
28238WAT     H184956   0.692   2.859   8.088
28238WAT     H284957   0.715   2.983   8.192
28239WAT      O84958   4.969   6.371   2.785
28239WAT     H184959   4.895   6.394   2.848
28239WAT     H284960   5.045   6.330   2.837
28240WAT      O84961   0.529   2.034   8.373
28240WAT     H184962   0.433   2.063   8.365
28240WAT     H284963   0.559   1.992   8.288
28241WAT      O84964   4.642   1.938   9.699
28241WAT     H184965   4.555   1.890   9.707
28241WAT     H284966   4.672   1.969   9.789
28242WAT      O84967   3.883   9.366   4.275
28242WAT     H184968   3.821   9.406   4.343
28242WAT     H284969   3.842   9.283   4.238
28243WAT      O84970   8.612   0.594   7.725
28243WAT     H184971   8.623   0.643   7.812
28243WAT     H284972   8.667   0.639   7.654
28244WAT      O84973   9.532   8.386   6.010
28244WAT     H184974   9.596   8.450   5.969
28244WAT     H284975   9.484   8.430   6.086
28245WAT      O84976   1.847   8.771   7.405
28245WAT     H184977   1.770   8.835   7.397
28245WAT     H284978   1.821   8.694   7.463
28246WAT      O84979   8.097   1.080   2.493
28246WAT     H184980   8.005   1.108   2.466
28246WAT     H284981   8.104   1.084   2.593
28247WAT      O84982   9.085   8.727   2.843
28247WAT     H184983   9.031   8.745   2.925
28247WAT     H284984   9.025   8.690   2.771
28248WAT      O84985   1.478   3.802   2.956
28248WAT     H184986   1.531   3.735   2.904
28248WAT     H284987   1.405   3.838   2.898
28249WAT      O84988   4.406   5.348   5.276
28249WAT     H184989   4.434   5.405   5.198
28249WAT     H284990   4.487   5.304   5.315
28250WAT      O84991   6.059   5.430   3.042
28250WAT     H184992   6.008   5.351   3.006
28250WAT     H284993   6.150   5.432   3.001
28251WAT      O84994   9.162   6.373   3.233
28251WAT     H184995   9.209   6.313   3.168
28251WAT     H284996   9.077   6.331   3.262
28252WAT      O84997   2.424   1.322   3.009
28252WAT     H184998   2.397   1.411   2.973
28252WAT     H284999   2.348   1.281   3.058
28253WAT      O85000   9.636   4.645   0.532
28253WAT     H185001   9.552   4.659   0.479
28253WAT     H285002   9.613   4.595   0.616
28254WAT      O85003   5.447   1.890   4.616
28254WAT     H185004   5.459   1.826   4.540
28254WAT     H285005   5.536   1.916   4.653
28255WAT      O85006   0.307   1.555   2.679
28255WAT     H185007   0.361   1.582   2.759
28255WAT     H285008   0.324   1.458   2.659
28256WAT      O85009   4.289   8.638   2.337
28256WAT     H185010   4.335   8.617   2.423
28256WAT     H285011   4.297   8.560   2.275
28257WAT      O85012   0.759   1.636   7.991
28257WAT     H185013   0.797   1.705   8.053
28257WAT     H285014   0.664   1.618   8.016
28258WAT      O85015   4.772   3.752   5.073
28258WAT     H185016   4.768   3.851   5.067
28258WAT     H285017   4.718   3.722   5.152
28259WAT      O85018   1.863   2.743   6.581
28259WAT     H185019   1.815   2.828   6.560
28259WAT     H285020   1.822   2.700   6.661
28260WAT      O85021   5.863   0.105   4.801
28260WAT     H185022   5.815   0.020   4.821
28260WAT     H285023   5.947   0.110   4.855
28261WAT      O85024   3.860   3.040   5.714
28261WAT     H185025   3.840   2.969   5.647
28261WAT     H285026   3.781   3.054   5.773
28262WAT      O85027   8.154   4.800   0.298
28262WAT     H185028   8.249   4.832   0.300
28262WAT     H285029   8.152   4.700   0.297
28263WAT      O85030   1.168   0.932   8.361
28263WAT     H185031   1.182   1.030   8.348
28263WAT     H285032   1.204   0.883   8.282
28264WAT      O85033   9.329   4.377   0.497
28264WAT     H185034   9.294   4.466   0.467
28264WAT     H285035   9.299   4.360   0.591
28265WAT      O85036   0.824   5.266   9.728
28265WAT     H185037   0.808   5.272   9.826
28265WAT     H285038   0.899   5.329   9.703
28266WAT      O85039   1.406   9.015   5.036
28266WAT     H185040   1.409   9.098   5.092
28266WAT     H285041   1.326   8.961   5.061
28267WAT      O85042   1.370   7.138   3.463
28267WAT     H185043   1.403   7.045   3.445
28267WAT     H285044   1.447   7.200   3.472
28268WAT      O85045   9.704   5.018   1.488
28268WAT     H185046   9.637   4.952   1.521
28268WAT     H285047   9.748   4.982   1.405
28269WAT      O85048   9.120   8.570   0.235
28269WAT     H185049   9.170   8.497   0.283
28269WAT     H285050   9.055   8.613   0.297
28270WAT      O85051   2.844   1.815   0.848
28270WAT     H185052   2.797   1.773   0.926
28270WAT     H285053   2.933   1.849   0.877
28271WAT      O85054   0.122   1.464   3.052
28271WAT     H185055   0.084   1.373   3.039
28271WAT     H285056   0.130   1.483   3.150
28272WAT      O85057   5.457   0.752   2.878
28272WAT     H185058   5.462   0.763   2.779
28272WAT     H285059   5.528   0.807   2.921
28273WAT      O85060   3.209   3.115   8.733
28273WAT     H185061   3.214   3.190   8.666
28273WAT     H285062   3.280   3.127   8.802
28274WAT      O85063   6.476   8.451   2.581
28274WAT     H185064   6.532   8.421   2.658
28274WAT     H285065   6.518   8.533   2.540
28275WAT      O85066   4.805   1.451   3.851
28275WAT     H185067   4.785   1.359   3.816
28275WAT     H285068   4.885   1.488   3.804
28276WAT      O85069   1.875   5.241   5.763
28276WAT     H185070   1.823   5.217   5.681
28276WAT     H285071   1.895   5.158   5.816
28277WAT      O85072   3.785   1.031   3.444
28277WAT     H185073   3.851   1.089   3.395
28277WAT     H285074   3.716   1.089   3.488
28278WAT      O85075   7.874   4.932   5.440
28278WAT     H185076   7.951   4.945   5.377
28278WAT     H285077   7.831   5.020   5.459
28279WAT      O85078   6.006   9.752   6.732
28279WAT     H185079   5.996   9.673   6.671
28279WAT     H285080   6.035   9.832   6.680
28280WAT      O85081   4.377   3.325   7.112
28280WAT     H185082   4.473   3.350   7.098
28280WAT     H285083   4.367   3.276   7.198
28281WAT      O85084   2.501   9.377   1.297
28281WAT     H185085   2.582   9.434   1.280
28281WAT     H285086   2.500   9.349   1.393
28282WAT      O85087   1.856   3.193   8.760
28282WAT     H185088   1.855   3.249   8.843
28282WAT     H285089   1.764   3.184   8.724
28283WAT      O85090   5.768   4.216   1.392
28283WAT     H185091   5.713   4.200   1.474
28283WAT     H285092   5.785   4.130   1.345
28284WAT      O85093   4.735   1.253   1.582
28284WAT     H185094   4.706   1.328   1.641
28284WAT     H285095   4.655   1.209   1.541
28285WAT      O85096   1.299   5.344   9.832
28285WAT     H185097   1.227   5.405   9.864
28285WAT     H285098   1.258   5.270   9.779
28286WAT      O85099   7.402   8.453   7.779
28286WAT     H185100   7.390   8.458   7.680
28286WAT     H285101   7.316   8.473   7.825
28287WAT      O85102   7.424   9.163   5.671
28287WAT     H185103   7.489   9.109   5.724
28287WAT     H285104   7.403   9.115   5.585
28288WAT      O85105   6.911   0.672   9.236
28288WAT     H185106   6.883   0.605   9.167
28288WAT     H285107   6.914   0.628   9.326
28289WAT      O85108   1.428   5.978   6.335
28289WAT     H185109   1.391   5.887   6.321
28289WAT     H285110   1.442   6.023   6.247
28290WAT      O85111   5.686   0.135   5.783
28290WAT     H185112   5.650   0.192   5.709
28290WAT     H285113   5.686   0.039   5.755
28291WAT      O85114   6.840   5.427   9.349
28291WAT     H185115   6.923   5.477   9.377
28291WAT     H285116   6.866   5.341   9.306
28292WAT      O85117   1.301   7.247   2.741
28292WAT     H185118   1.220   7.203   2.781
28292WAT     H285119   1.276   7.337   2.706
28293WAT      O85120   8.494   0.067   6.123
28293WAT     H185121   8.469   0.155   6.083
28293WAT     H285122   8.579   0.035   6.082
28294WAT      O85123   7.337   5.512   6.117
28294WAT     H185124   7.403   5.486   6.046
28294WAT     H285125   7.306   5.606   6.101
28295WAT      O85126   6.051   1.793   4.774
28295WAT     H185127   5.973   1.758   4.722
28295WAT     H285128   6.017   1.854   4.846
28296WAT      O85129   2.901   9.498   9.805
28296WAT     H185130   2.867   9.443   9.728
28296WAT     H285131   3.001   9.487   9.812
28297WAT      O85132   0.596   3.685   0.184
28297WAT     H185133   0.498   3.684   0.206
28297WAT     H285134   0.608   3.714   0.089
28298WAT      O85135   9.573   2.373   0.609
28298WAT     H185136   9.583   2.457   0.663
28298WAT     H285137   9.499   2.317   0.646
28299WAT      O85138   3.401   2.444   5.442
28299WAT     H185139   3.361   2.452   5.533
28299WAT     H285140   3.493   2.482   5.442
28300WAT      O85141   2.325   8.583   9.398
28300WAT     H185142   2.353   8.494   9.435
28300WAT     H285143   2.292   8.642   9.472
28301WAT      O85144   2.621   3.863   9.165
28301WAT     H185145   2.627   3.959   9.192
28301WAT     H285146   2.525   3.835   9.163
28302WAT      O85147   4.115   9.505   2.608
28302WAT     H185148   4.104   9.462   2.698
28302WAT     H285149   4.047   9.577   2.597
28303WAT      O85150   2.874   6.287   4.674
28303WAT     H185151   2.775   6.290   4.685
28303WAT     H285152   2.898   6.313   4.580
28304WAT      O85153   9.332   5.838   1.591
28304WAT     H185154   9.299   5.776   1.663
28304WAT     H285155   9.272   5.918   1.587
28305WAT      O85156   0.474   3.402   7.589
28305WAT     H185157   0.550   3.337   7.595
28305WAT     H285158   0.389   3.356   7.612
28306WAT      O85159   5.968   6.486   1.074
28306WAT     H185160   6.013   6.551   1.136
28306WAT     H285161   6.012   6.490   0.984
28307WAT      O85162   0.085   4.335   4.082
28307WAT     H185163   0.024   4.284   4.021
28307WAT     H285164   0.047   4.336   4.174
28308WAT      O85165   6.753   9.799   1.095
28308WAT     H185166   6.727   9.739   1.019
28308WAT     H285167   6.674   9.815   1.154
28309WAT      O85168   8.387   7.673   6.774
28309WAT     H185169   8.410   7.742   6.705
28309WAT     H285170   8.444   7.592   6.761
28310WAT      O85171   2.573   2.915   6.338
28310WAT     H185172   2.511   2.849   6.382
28310WAT     H285173   2.649   2.865   6.295
28311WAT      O85174   0.538   2.535   6.695
28311WAT     H185175   0.567   2.631   6.701
28311WAT     H285176   0.538   2.507   6.599
28312WAT      O85177   4.383   8.808   9.679
28312WAT     H185178   4.315   8.738   9.699
28312WAT     H285179   4.470   8.765   9.657
28313WAT      O85180   3.442   7.759   3.304
28313WAT     H185181   3.539   7.743   3.288
28313WAT     H285182   3.394   7.761   3.216
28314WAT      O85183   7.287   0.261   8.425
28314WAT     H185184   7.285   0.170   8.467
28314WAT     H285185   7.216   0.266   8.354
28315WAT      O85186   5.692   2.608   2.399
28315WAT     H185187   5.684   2.508   2.397
28315WAT     H285188   5.749   2.639   2.323
28316WAT      O85189   8.848   6.415   0.620
28316WAT     H185190   8.790   6.471   0.679
28316WAT     H285191   8.893   6.345   0.675
28317WAT      O85192   8.093   6.594   9.750
28317WAT     H185193   8.071   6.634   9.661
28317WAT     H285194   8.128   6.666   9.810
28318WAT      O85195   4.478   5.814   8.821
28318WAT     H185196   4.556   5.874   8.836
28318WAT     H285197   4.394   5.858   8.855
28319WAT      O85198   0.125   7.224   6.624
28319WAT     H185199   0.154   7.150   6.685
28319WAT     H285200   0.029   7.211   6.599
28320WAT      O85201   3.024   1.197   2.205
28320WAT     H185202   3.091   1.123   2.193
28320WAT     H285203   2.969   1.205   2.122
28321WAT      O85204   4.630   2.072   0.419
28321WAT     H185205   4.594   2.034   0.505
28321WAT     H285206   4.615   2.006   0.345
28322WAT      O85207   2.493   1.456   4.042
28322WAT     H185208   2.525   1.366   4.013
28322WAT     H285209   2.569   1.509   4.080
28323WAT      O85210   1.982   7.887   6.254
28323WAT     H185211   2.017   7.895   6.161
28323WAT     H285212   2.006   7.968   6.306
28324WAT      O85213   3.182   1.330   0.862
28324WAT     H185214   3.101   1.281   0.893
28324WAT     H285215   3.262   1.300   0.915
28325WAT      O85216   3.281   1.087   8.414
28325WAT     H185217   3.342   1.132   8.348
28325WAT     H285218   3.187   1.090   8.380
28326WAT      O85219   1.772   2.598   0.147
28326WAT     H185220   1.733   2.673   0.201
28326WAT     H285221   1.860   2.627   0.110
28327WAT      O85222   2.018   4.590   7.439
28327WAT     H185223   1.988   4.496   7.425
28327WAT     H285224   2.044   4.603   7.534
28328WAT      O85225   0.360   3.975   9.487
28328WAT     H185226   0.360   4.071   9.461
28328WAT     H285227   0.276   3.955   9.539
28329WAT      O85228   1.967   3.681   0.590
28329WAT     H185229   1.977   3.748   0.516
28329WAT     H285230   1.870   3.662   0.605
28330WAT      O85231   4.199   0.685   5.252
28330WAT     H185232   4.292   0.721   5.243
28330WAT     H285233   4.204   0.591   5.287
28331WAT      O85234   1.503   2.940   7.344
28331WAT     H185235   1.526   2.863   7.284
28331WAT     H285236   1.421   2.986   7.309
28332WAT      O85237   0.606   2.854   9.630
28332WAT     H185238   0.589   2.784   9.699
28332WAT     H285239   0.703   2.852   9.605
28333WAT      O85240   3.802   1.174   5.764
28333WAT     H185241   3.714   1.168   5.811
28333WAT     H285242   3.855   1.250   5.802
28334WAT      O85243   7.825   9.808   2.337
28334WAT     H185244   7.759   9.772   2.402
28334WAT     H285245   7.793   9.895   2.301
28335WAT      O85246   0.215   1.483   7.848
28335WAT     H185247   0.291   1.418   7.855
28335WAT     H285248   0.252   1.576   7.842
28336WAT      O85249   5.642   7.040   1.274
28336WAT     H185250   5.712   7.029   1.203
28336WAT     H285251   5.555   7.005   1.240
28337WAT      O85252   5.065   8.362   8.741
28337WAT     H185253   5.107   8.446   8.705
28337WAT     H285254   5.040   8.302   8.665
28338WAT      O85255   9.215   4.451   4.166
28338WAT     H185256   9.173   4.515   4.102
28338WAT     H285257   9.313   4.446   4.150
28339WAT      O85258   2.454   4.601   9.286
28339WAT     H185259   2.493   4.656   9.360
28339WAT     H285260   2.474   4.505   9.302
28340WAT      O85261   9.626   8.943   0.152
28340WAT     H185262   9.543   8.937   0.097
28340WAT     H285263   9.629   8.869   0.219
28341WAT      O85264   0.307   1.540   0.593
28341WAT     H185265   0.320   1.550   0.692
28341WAT     H285266   0.217   1.501   0.575
28342WAT      O85267   1.110   0.599   5.586
28342WAT     H185268   1.031   0.539   5.597
28342WAT     H285269   1.149   0.620   5.676
28343WAT      O85270   0.291   5.826   7.500
28343WAT     H185271   0.311   5.907   7.555
28343WAT     H285272   0.192   5.821   7.483
28344WAT      O85273   5.189   4.916   6.711
28344WAT     H185274   5.119   4.885   6.776
28344WAT     H285275   5.196   4.850   6.637
28345WAT      O85276   6.013   1.358   0.862
28345WAT     H185277   6.078   1.371   0.787
28345WAT     H285278   6.061   1.326   0.943
28346WAT      O85279   3.370   8.051   8.240
28346WAT     H185280   3.399   8.130   8.186
28346WAT     H285281   3.271   8.037   8.228
28347WAT      O85282   6.699   4.128   5.044
28347WAT     H185283   6.732   4.058   4.982
28347WAT     H285284   6.775   4.186   5.073
28348WAT      O85285   0.703   1.003   1.687
28348WAT     H185286   0.733   0.941   1.614
28348WAT     H285287   0.755   0.984   1.771
28349WAT      O85288   8.282   1.674   3.173
28349WAT     H185289   8.260   1.579   3.152
28349WAT     H285290   8.223   1.706   3.247
28350WAT      O85291   5.253   3.604   8.966
28350WAT     H185292   5.329   3.661   8.933
28350WAT     H285293   5.286   3.510   8.978
28351WAT      O85294   8.441   1.344   0.313
28351WAT     H185295   8.358   1.381   0.272
28351WAT     H285296   8.509   1.328   0.241
28352WAT      O85297   5.657   8.272   4.027
28352WAT     H185298   5.634   8.231   3.939
28352WAT     H285299   5.584   8.335   4.055
28353WAT      O85300   9.768   5.203   2.897
28353WAT     H185301   9.739   5.165   2.809
28353WAT     H285302   9.764   5.303   2.893
28354WAT      O85303   3.058   2.835   4.903
28354WAT     H185304   3.078   2.841   5.001
28354WAT     H285305   3.049   2.740   4.876
28355WAT      O85306   2.733   9.689   6.653
28355WAT     H185307   2.784   9.639   6.584
28355WAT     H285308   2.652   9.638   6.679
28356WAT      O85309   9.332   3.395   6.950
28356WAT     H185310   9.306   3.432   6.861
28356WAT     H285311   9.402   3.324   6.938
28357WAT      O85312   3.300   1.416   0.633
28357WAT     H185313   3.236   1.399   0.709
28357WAT     H285314   3.305   1.514   0.616
28358WAT      O85315   4.139   2.879   4.609
28358WAT     H185316   4.230   2.838   4.610
28358WAT     H285317   4.131   2.945   4.683
28359WAT      O85318   5.209   2.791   1.565
28359WAT     H185319   5.109   2.792   1.570
28359WAT     H285320   5.239   2.704   1.526
28360WAT      O85321   9.157   3.628   7.497
28360WAT     H185322   9.073   3.614   7.444
28360WAT     H285323   9.136   3.685   7.577
28361WAT      O85324   4.955   6.360   1.212
28361WAT     H185325   5.048   6.382   1.181
28361WAT     H285326   4.956   6.274   1.261
28362WAT      O85327   2.187   5.095   7.026
28362WAT     H185328   2.153   5.007   7.058
28362WAT     H285329   2.121   5.136   6.963
28363WAT      O85330   8.223   2.677   4.804
28363WAT     H185331   8.274   2.718   4.729
28363WAT     H285332   8.222   2.741   4.882
28364WAT      O85333   2.620   0.194   7.250
28364WAT     H185334   2.634   0.173   7.346
28364WAT     H285335   2.570   0.280   7.241
28365WAT      O85336   7.500   3.501   8.510
28365WAT     H185337   7.426   3.439   8.482
28365WAT     H285338   7.586   3.451   8.512
28366WAT      O85339   3.901   2.064   5.652
28366WAT     H185340   3.815   2.081   5.699
28366WAT     H285341   3.963   2.014   5.712
28367WAT      O85342   2.862   1.135   5.443
28367WAT     H185343   2.934   1.140   5.512
28367WAT     H285344   2.861   1.221   5.391
28368WAT      O85345   1.494   0.049   6.034
28368WAT     H185346   1.418   0.106   6.003
28368WAT     H285347   1.503  -0.031   5.975
28369WAT      O85348   1.674   8.426   7.653
28369WAT     H185349   1.602   8.358   7.640
28369WAT     H285350   1.759   8.381   7.679
28370WAT      O85351   4.856   6.474   0.667
28370WAT     H185352   4.932   6.463   0.730
28370WAT     H285353   4.823   6.568   0.670
28371WAT      O85354   2.213   4.898   6.042
28371WAT     H185355   2.312   4.906   6.027
28371WAT     H285356   2.173   4.990   6.043
28372WAT      O85357   4.639   9.067   5.136
28372WAT     H185358   4.559   9.086   5.080
28372WAT     H285359   4.719   9.056   5.077
28373WAT      O85360   9.050   0.161   6.754
28373WAT     H185361   8.964   0.111   6.760
28373WAT     H285362   9.033   0.253   6.717
28374WAT      O85363   4.338   3.085   9.414
28374WAT     H185364   4.306   3.046   9.501
28374WAT     H285365   4.370   3.178   9.429
28375WAT      O85366   2.900   0.077   6.987
28375WAT     H185367   2.992   0.074   7.027
28375WAT     H285368   2.860   0.168   7.001
28376WAT      O85369   4.264   0.930   9.563
28376WAT     H185370   4.346   0.907   9.615
28376WAT     H285371   4.193   0.964   9.624
28377WAT      O85372   4.095   7.672   6.183
28377WAT     H185373   4.093   7.754   6.241
28377WAT     H285374   4.040   7.687   6.102
28378WAT      O85375   2.382   3.398   9.152
28378WAT     H185376   2.479   3.393   9.127
28378WAT     H285377   2.327   3.416   9.070
28379WAT      O85378   9.657   5.015   9.702
28379WAT     H185379   9.686   5.008   9.607
28379WAT     H285380   9.578   4.956   9.718
28380WAT      O85381   8.211   5.680   4.246
28380WAT     H185382   8.250   5.772   4.251
28380WAT     H285383   8.146   5.668   4.321
28381WAT      O85384   7.935   1.804   7.801
28381WAT     H185385   7.941   1.727   7.865
28381WAT     H285386   7.914   1.888   7.851
28382WAT      O85387   7.831   9.492   5.651
28382WAT     H185388   7.853   9.483   5.554
28382WAT     H285389   7.898   9.553   5.695
28383WAT      O85390   0.700   2.450   7.813
28383WAT     H185391   0.717   2.495   7.725
28383WAT     H285392   0.703   2.351   7.801
28384WAT      O85393   4.185   7.390   8.940
28384WAT     H185394   4.237   7.333   8.877
28384WAT     H285395   4.119   7.333   8.990
28385WAT      O85396   0.732   2.006   4.043
28385WAT     H185397   0.799   1.959   3.986
28385WAT     H285398   0.695   2.085   3.993
28386WAT      O85399   8.494   4.690   0.093
28386WAT     H185400   8.488   4.761   0.163
28386WAT     H285401   8.416   4.699   0.030
28387WAT      O85402   0.968   0.134   7.285
28387WAT     H185403   1.058   0.156   7.323
28387WAT     H285404   0.968   0.156   7.187
28388WAT      O85405   3.737   0.720   2.737
28388WAT     H185406   3.642   0.689   2.740
28388WAT     H285407   3.782   0.683   2.656
28389WAT      O85408   7.164   8.661   5.575
28389WAT     H185409   7.202   8.727   5.640
28389WAT     H285410   7.222   8.658   5.493
28390WAT      O85411   6.942   9.371   0.880
28390WAT     H185412   7.005   9.411   0.946
28390WAT     H285413   6.855   9.350   0.926
28391WAT      O85414   8.349   5.116   8.706
28391WAT     H185415   8.309   5.158   8.624
28391WAT     H285416   8.368   5.020   8.688
28392WAT      O85417   4.817   2.377   7.137
28392WAT     H185418   4.874   2.351   7.215
28392WAT     H285419   4.721   2.353   7.155
28393WAT      O85420   3.125   6.129   8.321
28393WAT     H185421   3.203   6.116   8.259
28393WAT     H285422   3.123   6.224   8.352
28394WAT      O85423   1.677   5.614   9.838
28394WAT     H185424   1.777   5.612   9.828
28394WAT     H285425   1.635   5.621   9.748
28395WAT      O85426   3.805   5.267   8.536
28395WAT     H185427   3.803   5.315   8.623
28395WAT     H285428   3.815   5.169   8.553
28396WAT      O85429   8.144   5.761   6.627
28396WAT     H185430   8.119   5.723   6.538
28396WAT     H285431   8.240   5.790   6.625
28397WAT      O85432   7.083   0.886   2.593
28397WAT     H185433   7.110   0.960   2.531
28397WAT     H285434   7.013   0.829   2.549
28398WAT      O85435   4.455   0.641   1.612
28398WAT     H185436   4.482   0.546   1.628
28398WAT     H285437   4.486   0.698   1.688
28399WAT      O85438   0.666   7.107   7.765
28399WAT     H185439   0.714   7.063   7.840
28399WAT     H285440   0.646   7.040   7.694
28400WAT      O85441   1.592   7.044   4.895
28400WAT     H185442   1.533   7.121   4.871
28400WAT     H285443   1.666   7.075   4.954
28401WAT      O85444   1.076   0.589   8.604
28401WAT     H185445   1.145   0.517   8.613
28401WAT     H285446   1.030   0.580   8.516
28402WAT      O85447   3.871   7.137   6.026
28402WAT     H185448   3.896   7.234   6.021
28402WAT     H285449   3.783   7.128   6.072
28403WAT      O85450   1.696   3.858   0.317
28403WAT     H185451   1.650   3.923   0.256
28403WAT     H285452   1.691   3.892   0.411
28404WAT      O85453   0.100   0.469   3.402
28404WAT     H185454   0.059   0.380   3.422
28404WAT     H285455   0.110   0.520   3.487
28405WAT      O85456   7.313   6.877   8.449
28405WAT     H185457   7.281   6.959   8.496
28405WAT     H285458   7.325   6.897   8.351
28406WAT      O85459   5.900   3.331   4.340
28406WAT     H185460   5.867   3.368   4.253
28406WAT     H285461   5.975   3.387   4.374
28407WAT      O85462   7.821   5.330   6.977
28407WAT     H185463   7.875   5.266   7.031
28407WAT     H285464   7.828   5.422   7.016
28408WAT      O85465   0.506   0.239   6.038
28408WAT     H185466   0.476   0.151   6.002
28408WAT     H285467   0.532   0.229   6.134
28409WAT      O85468   3.048   7.298   6.064
28409WAT     H185469   3.071   7.205   6.093
28409WAT     H285470   2.965   7.296   6.007
28410WAT      O85471   3.216   2.632   0.181
28410WAT     H185472   3.245   2.711   0.235
28410WAT     H285473   3.198   2.555   0.243
28411WAT      O85474   9.833   7.933   5.619
28411WAT     H185475   9.918   7.985   5.609
28411WAT     H285476   9.797   7.946   5.711
28412WAT      O85477   6.484   5.472   7.734
28412WAT     H185478   6.547   5.459   7.657
28412WAT     H285479   6.493   5.394   7.797
28413WAT      O85480   9.101   8.714   1.021
28413WAT     H185481   9.089   8.808   1.054
28413WAT     H285482   9.015   8.682   0.980
28414WAT      O85483   6.947   3.005   8.108
28414WAT     H185484   6.964   3.100   8.133
28414WAT     H285485   7.013   2.945   8.153
28415WAT      O85486   3.319   0.638   9.364
28415WAT     H185487   3.351   0.712   9.305
28415WAT     H285488   3.377   0.633   9.446
28416WAT      O85489   5.661   2.454   5.779
28416WAT     H185490   5.590   2.397   5.738
28416WAT     H285491   5.748   2.404   5.779
28417WAT      O85492   4.882   2.190   4.459
28417WAT     H185493   4.923   2.099   4.467
28417WAT     H285494   4.896   2.241   4.544
28418WAT      O85495   5.407   1.760   3.522
28418WAT     H185496   5.335   1.718   3.576
28418WAT     H285497   5.414   1.857   3.544
28419WAT      O85498   1.761   8.218   5.839
28419WAT     H185499   1.690   8.180   5.898
28419WAT     H285500   1.746   8.189   5.745
28420WAT      O85501   2.563   5.984   8.421
28420WAT     H185502   2.467   6.003   8.441
28420WAT     H285503   2.594   6.045   8.347
28421WAT      O85504   0.772   6.924   9.306
28421WAT     H185505   0.833   6.852   9.275
28421WAT     H285506   0.824   6.994   9.354
28422WAT      O85507   7.666   2.692   1.335
28422WAT     H185508   7.589   2.678   1.396
28422WAT     H285509   7.689   2.790   1.331
28423WAT      O85510   3.589   2.437   3.743
28423WAT     H185511   3.529   2.514   3.765
28423WAT     H285512   3.651   2.420   3.820
28424WAT      O85513   1.012   5.748   6.379
28424WAT     H185514   1.094   5.803   6.392
28424WAT     H285515   0.942   5.777   6.444
28425WAT      O85516   7.156   5.517   8.630
28425WAT     H185517   7.164   5.593   8.694
28425WAT     H285518   7.237   5.513   8.572
28426WAT      O85519   9.049   5.501   2.062
28426WAT     H185520   9.134   5.473   2.106
28426WAT     H285521   9.004   5.572   2.117
28427WAT      O85522   5.568   0.738   2.599
28427WAT     H185523   5.539   0.793   2.520
28427WAT     H285524   5.664   0.759   2.620
28428WAT      O85525   7.889   6.824   0.259
28428WAT     H185526   7.801   6.859   0.227
28428WAT     H285527   7.910   6.739   0.211
28429WAT      O85528   1.587   3.313   3.826
28429WAT     H185529   1.667   3.309   3.886
28429WAT     H285530   1.609   3.272   3.737
28430WAT      O85531   5.425   9.581   7.256
28430WAT     H185532   5.490   9.645   7.299
28430WAT     H285533   5.449   9.569   7.160
28431WAT      O85534   3.899   5.393   6.852
28431WAT     H185535   3.866   5.406   6.758
28431WAT     H285536   3.871   5.303   6.885
28432WAT      O85537   5.606   7.695   7.971
28432WAT     H185538   5.701   7.717   7.948
28432WAT     H285539   5.567   7.768   8.027
28433WAT      O85540   2.796   4.760   8.288
28433WAT     H185541   2.764   4.686   8.348
28433WAT     H285542   2.739   4.841   8.302
28434WAT      O85543   3.791   8.628   8.679
28434WAT     H185544   3.757   8.586   8.594
28434WAT     H285545   3.742   8.590   8.757
28435WAT      O85546   6.119   8.196   6.850
28435WAT     H185547   6.219   8.195   6.844
28435WAT     H285548   6.086   8.106   6.878
28436WAT      O85549   8.256   0.246   0.332
28436WAT     H185550   8.236   0.204   0.244
28436WAT     H285551   8.183   0.309   0.357
28437WAT      O85552   5.071   8.640   8.941
28437WAT     H185553   4.972   8.631   8.951
28437WAT     H285554   5.115   8.559   8.980
28438WAT      O85555   6.466   7.156   6.173
28438WAT     H185556   6.535   7.090   6.202
28438WAT     H285557   6.480   7.242   6.220
28439WAT      O85558   9.815   4.246   7.794
28439WAT     H185559   9.877   4.284   7.863
28439WAT     H285560   9.734   4.304   7.787
28440WAT      O85561   3.751   8.592   2.290
28440WAT     H185562   3.717   8.499   2.273
28440WAT     H285563   3.794   8.596   2.380
28441WAT      O85564   1.441   6.463   4.551
28441WAT     H185565   1.429   6.463   4.452
28441WAT     H285566   1.375   6.525   4.593
28442WAT      O85567   6.760   3.133   1.915
28442WAT     H185568   6.708   3.049   1.930
28442WAT     H285569   6.849   3.126   1.960
28443WAT      O85570   1.556   0.465   8.757
28443WAT     H185571   1.488   0.536   8.774
28443WAT     H285572   1.634   0.478   8.820
28444WAT      O85573   4.018   2.416   6.903
28444WAT     H185574   3.951   2.377   6.966
28444WAT     H285575   4.035   2.352   6.828
28445WAT      O85576   2.971   8.336   1.605
28445WAT     H185577   3.049   8.289   1.648
28445WAT     H285578   2.910   8.268   1.564
28446WAT      O85579   7.632   2.487   4.603
28446WAT     H185580   7.642   2.430   4.522
28446WAT     H285581   7.580   2.570   4.580
28447WAT      O85582   3.103   3.476   8.633
28447WAT     H185583   3.032   3.520   8.688
28447WAT     H285584   3.173   3.544   8.608
28448WAT      O85585   1.074   2.593   0.152
28448WAT     H185586   1.168   2.613   0.125
28448WAT     H285587   1.011   2.653   0.102
28449WAT      O85588   7.070   9.504   7.376
28449WAT     H185589   7.055   9.595   7.337
28449WAT     H285590   7.018   9.436   7.324
28450WAT      O85591   8.532   4.808   3.098
28450WAT     H185592   8.477   4.802   3.015
28450WAT     H285593   8.536   4.719   3.143
28451WAT      O85594   1.013   4.832   6.439
28451WAT     H185595   0.980   4.742   6.411
28451WAT     H285596   0.955   4.902   6.398
28452WAT      O85597   3.636   2.534   6.728
28452WAT     H185598   3.725   2.570   6.755
28452WAT     H285599   3.646   2.440   6.694
28453WAT      O85600   6.674   6.364   7.845
28453WAT     H185601   6.721   6.331   7.763
28453WAT     H285602   6.697   6.461   7.859
28454WAT      O85603   0.026   2.327   8.930
28454WAT     H185604  -0.065   2.369   8.925
28454WAT     H285605   0.021   2.234   8.892
28455WAT      O85606   6.725   1.183   1.748
28455WAT     H185607   6.807   1.127   1.734
28455WAT     H285608   6.650   1.148   1.692
28456WAT      O85609   2.807   2.505   1.349
28456WAT     H185610   2.824   2.596   1.385
28456WAT     H285611   2.824   2.437   1.421
28457WAT      O85612   6.887   0.548   0.035
28457WAT     H185613   6.820   0.560   0.108
28457WAT     H285614   6.876   0.620  -0.033
28458WAT      O85615   2.579   8.274   1.599
28458WAT     H185616   2.551   8.366   1.629
28458WAT     H285617   2.539   8.206   1.660
28459WAT      O85618   9.748   5.332   4.139
28459WAT     H185619   9.715   5.240   4.116
28459WAT     H285620   9.802   5.368   4.063
28460WAT      O85621   7.103   4.423   4.889
28460WAT     H185622   7.030   4.490   4.874
28460WAT     H285623   7.121   4.374   4.804
28461WAT      O85624   0.066   8.469   6.900
28461WAT     H185625   0.029   8.472   6.993
28461WAT     H285626   0.155   8.424   6.901
28462WAT      O85627   3.044   4.447   1.872
28462WAT     H185628   2.976   4.373   1.875
28462WAT     H285629   3.076   4.459   1.778
28463WAT      O85630   5.179   2.515   9.757
28463WAT     H185631   5.248   2.571   9.802
28463WAT     H285632   5.153   2.439   9.817
28464WAT      O85633   7.560   7.155   4.380
28464WAT     H185634   7.497   7.077   4.384
28464WAT     H285635   7.516   7.230   4.331
28465WAT      O85636   5.465   4.692   4.054
28465WAT     H185637   5.432   4.627   4.123
28465WAT     H285638   5.426   4.668   3.965
28466WAT      O85639   1.086   3.269   2.215
28466WAT     H185640   1.065   3.320   2.131
28466WAT     H285641   1.006   3.269   2.275
28467WAT      O85642   4.463   1.608   6.465
28467WAT     H185643   4.494   1.654   6.382
28467WAT     H285644   4.484   1.511   6.459
28468WAT      O85645   2.974   6.726   2.969
28468WAT     H185646   3.052   6.784   2.993
28468WAT     H285647   2.894   6.754   3.023
28469WAT      O85648   3.737   6.767   8.717
28469WAT     H185649   3.804   6.777   8.791
28469WAT     H285650   3.713   6.670   8.708
28470WAT      O85651   3.321   7.289   5.069
28470WAT     H185652   3.362   7.198   5.058
28470WAT     H285653   3.383   7.357   5.029
28471WAT      O85654   5.486   3.635   5.228
28471WAT     H185655   5.394   3.671   5.208
28471WAT     H285656   5.552   3.710   5.223
28472WAT      O85657   1.513   6.766   8.182
28472WAT     H185658   1.539   6.791   8.275
28472WAT     H285659   1.498   6.850   8.128
28473WAT      O85660   9.853   4.274   5.502
28473WAT     H185661   9.939   4.224   5.511
28473WAT     H285662   9.822   4.270   5.407
28474WAT      O85663   3.871   2.079   7.054
28474WAT     H185664   3.952   2.108   7.106
28474WAT     H285665   3.806   2.035   7.116
28475WAT      O85666   2.652   9.059   7.794
28475WAT     H185667   2.722   8.997   7.832
28475WAT     H285668   2.671   9.075   7.698
28476WAT      O85669   7.215   5.205   9.112
28476WAT     H185670   7.302   5.243   9.082
28476WAT     H285671   7.141   5.270   9.091
28477WAT      O85672   7.699   9.333   3.189
28477WAT     H185673   7.787   9.379   3.180
28477WAT     H285674   7.711   9.246   3.236
28478WAT      O85675   1.511   8.948   9.180
28478WAT     H185676   1.441   9.002   9.226
28478WAT     H285677   1.594   8.946   9.236
28479WAT      O85678   0.400   9.444   0.736
28479WAT     H185679   0.469   9.511   0.765
28479WAT     H285680   0.310   9.473   0.770
28480WAT      O85681   9.464   8.757   3.393
28480WAT     H185682   9.368   8.733   3.380
28480WAT     H285683   9.477   8.795   3.484
28481WAT      O85684   0.344   5.392   8.471
28481WAT     H185685   0.300   5.467   8.521
28481WAT     H285686   0.297   5.306   8.491
28482WAT      O85687   1.828   8.196   2.273
28482WAT     H185688   1.837   8.248   2.358
28482WAT     H285689   1.891   8.118   2.275
28483WAT      O85690   2.066   0.826   5.257
28483WAT     H185691   1.993   0.862   5.199
28483WAT     H285692   2.122   0.761   5.205
28484WAT      O85693   4.980   3.782   2.176
28484WAT     H185694   4.991   3.875   2.142
28484WAT     H285695   5.045   3.721   2.130
28485WAT      O85696   2.098   2.149   9.275
28485WAT     H185697   2.093   2.117   9.369
28485WAT     H285698   2.188   2.188   9.257
28486WAT      O85699   8.430   4.273   8.836
28486WAT     H185700   8.522   4.246   8.866
28486WAT     H285701   8.381   4.312   8.914
28487WAT      O85702   5.684   5.780   1.586
28487WAT     H185703   5.669   5.871   1.547
28487WAT     H285704   5.627   5.713   1.539
28488WAT      O85705   0.636   4.492   2.422
28488WAT     H185706   0.581   4.563   2.468
28488WAT     H285707   0.589   4.404   2.429
28489WAT      O85708   9.019   7.999   4.226
28489WAT     H185709   9.038   7.986   4.323
28489WAT     H285710   9.098   8.043   4.182
28490WAT      O85711   8.973   6.336   6.061
28490WAT     H185712   9.058   6.373   6.099
28490WAT     H285713   8.940   6.263   6.121
28491WAT      O85714   9.511   5.542   5.912
28491WAT     H185715   9.527   5.457   5.861
28491WAT     H285716   9.424   5.536   5.960
28492WAT      O85717   7.616   1.797   6.694
28492WAT     H185718   7.567   1.754   6.618
28492WAT     H285719   7.626   1.895   6.676
28493WAT      O85720   6.334   1.238   6.549
28493WAT     H185721   6.322   1.184   6.465
28493WAT     H285722   6.279   1.321   6.543
28494WAT      O85723   2.361   3.652   5.635
28494WAT     H185724   2.378   3.598   5.717
28494WAT     H285725   2.398   3.745   5.648
28495WAT      O85726   5.856   0.483   9.340
28495WAT     H185727   5.784   0.542   9.377
28495WAT     H285728   5.945   0.522   9.365
28496WAT      O85729   7.740   6.117   1.302
28496WAT     H185730   7.739   6.149   1.207
28496WAT     H285731   7.652   6.077   1.324
28497WAT      O85732   9.298   5.813   8.388
28497WAT     H185733   9.344   5.892   8.347
28497WAT     H285734   9.363   5.738   8.396
28498WAT      O85735   2.891   0.616   2.615
28498WAT     H185736   2.873   0.518   2.623
28498WAT     H285737   2.985   0.635   2.645
28499WAT      O85738   4.673   3.595   7.776
28499WAT     H185739   4.706   3.578   7.869
28499WAT     H285740   4.626   3.683   7.773
28500WAT      O85741   9.862   5.483   2.870
28500WAT     H185742   9.860   5.511   2.966
28500WAT     H285743   9.948   5.435   2.850
28501WAT      O85744   2.400   0.180   8.664
28501WAT     H185745   2.301   0.186   8.659
28501WAT     H285746   2.427   0.094   8.708
28502WAT      O85747   8.132   2.509   4.601
28502WAT     H185748   8.039   2.474   4.613
28502WAT     H285749   8.146   2.589   4.659
28503WAT      O85750   6.418   2.406   8.333
28503WAT     H185751   6.399   2.432   8.428
28503WAT     H285752   6.502   2.353   8.329
28504WAT      O85753   6.921   3.880   0.658
28504WAT     H185754   6.942   3.788   0.626
28504WAT     H285755   6.921   3.882   0.757
28505WAT      O85756   6.350   0.578   5.563
28505WAT     H185757   6.417   0.632   5.512
28505WAT     H285758   6.389   0.490   5.587
28506WAT      O85759   4.944   2.798   7.545
28506WAT     H185760   4.910   2.722   7.490
28506WAT     H285761   4.983   2.763   7.630
28507WAT      O85762   9.277   9.603   2.269
28507WAT     H185763   9.336   9.606   2.188
28507WAT     H285764   9.183   9.622   2.242
28508WAT      O85765   3.866   0.087   4.208
28508WAT     H185766   3.886   0.120   4.115
28508WAT     H285767   3.894  -0.008   4.216
28509WAT      O85768   7.847   1.681   5.431
28509WAT     H185769   7.822   1.778   5.435
28509WAT     H285770   7.875   1.658   5.338
28510WAT      O85771   8.802   9.223   6.049
28510WAT     H185772   8.771   9.266   6.134
28510WAT     H285773   8.902   9.231   6.043
28511WAT      O85774   6.226   1.806   3.805
28511WAT     H185775   6.134   1.845   3.803
28511WAT     H285776   6.220   1.706   3.800
28512WAT      O85777   5.467   2.122   7.070
28512WAT     H185778   5.501   2.129   7.164
28512WAT     H285779   5.396   2.190   7.055
28513WAT      O85780   9.496   0.298   3.080
28513WAT     H185781   9.464   0.337   3.167
28513WAT     H285782   9.420   0.250   3.036
28514WAT      O85783   9.548   3.059   2.716
28514WAT     H185784   9.518   3.058   2.621
28514WAT     H285785   9.519   3.144   2.759
28515WAT      O85786   9.782   9.311   5.547
28515WAT     H185787   9.851   9.338   5.479
28515WAT     H285788   9.713   9.253   5.504
28516WAT      O85789   7.667   9.702   6.957
28516WAT     H185790   7.584   9.713   6.902
28516WAT     H285791   7.744   9.685   6.895
28517WAT      O85792   1.263   5.180   4.273
28517WAT     H185793   1.208   5.242   4.216
28517WAT     H285794   1.207   5.103   4.302
28518WAT      O85795   7.872   3.890   2.967
28518WAT     H185796   7.931   3.898   2.887
28518WAT     H285797   7.896   3.961   3.033
28519WAT      O85798   3.913   8.911   4.250
28519WAT     H185799   3.922   8.956   4.161
28519WAT     H285800   3.989   8.847   4.263
28520WAT      O85801   1.720   0.597   7.160
28520WAT     H185802   1.648   0.530   7.176
28520WAT     H285803   1.722   0.623   7.064
28521WAT      O85804   7.945   6.557   0.207
28521WAT     H185805   7.987   6.544   0.297
28521WAT     H285806   7.939   6.469   0.160
28522WAT      O85807   5.017   7.025   3.756
28522WAT     H185808   4.938   6.972   3.726
28522WAT     H285809   5.036   7.004   3.852
28523WAT      O85810   1.272   7.218   0.650
28523WAT     H185811   1.246   7.189   0.557
28523WAT     H285812   1.371   7.210   0.661
28524WAT      O85813   9.174   7.273   0.396
28524WAT     H185814   9.111   7.243   0.324
28524WAT     H285815   9.226   7.194   0.428
28525WAT      O85816   1.443   7.549   8.197
28525WAT     H185817   1.444   7.589   8.288
28525WAT     H285818   1.482   7.457   8.200
28526WAT      O85819   1.852   4.584   0.827
28526WAT     H185820   1.898   4.582   0.739
28526WAT     H285821   1.914   4.621   0.896
28527WAT      O85822   3.271   0.649   4.273
28527WAT     H185823   3.256   0.711   4.351
28527WAT     H285824   3.256   0.555   4.303
28528WAT      O85825   4.958   6.431   8.749
28528WAT     H185826   4.875   6.484   8.732
28528WAT     H285827   4.969   6.362   8.678
28529WAT      O85828   2.920   7.216   6.765
28529WAT     H185829   2.966   7.200   6.677
28529WAT     H285830   2.848   7.284   6.752
28530WAT      O85831   7.774   6.922   2.668
28530WAT     H185832   7.722   6.865   2.732
28530WAT     H285833   7.844   6.866   2.624
28531WAT      O85834   8.475   3.694   5.427
28531WAT     H185835   8.494   3.792   5.437
28531WAT     H285836   8.493   3.647   5.513
28532WAT      O85837   6.293   1.119   6.315
28532WAT     H185838   6.258   1.147   6.226
28532WAT     H285839   6.231   1.052   6.356
28533WAT      O85840   1.241   1.809   4.147
28533WAT     H185841   1.191   1.866   4.211
28533WAT     H285842   1.179   1.773   4.078
28534WAT      O85843   4.648   8.709   2.563
28534WAT     H185844   4.658   8.637   2.495
28534WAT     H285845   4.550   8.726   2.579
28535WAT      O85846   8.710   5.738   3.724
28535WAT     H185847   8.770   5.661   3.745
28535WAT     H285848   8.720   5.808   3.795
28536WAT      O85849   9.147   9.171   1.846
28536WAT     H185850   9.140   9.073   1.825
28536WAT     H285851   9.126   9.224   1.764
28537WAT      O85852   8.128   7.387   1.120
28537WAT     H185853   8.071   7.344   1.050
28537WAT     H285854   8.158   7.319   1.186
28538WAT      O85855   7.422   2.696   1.474
28538WAT     H185856   7.360   2.688   1.396
28538WAT     H285857   7.440   2.792   1.493
28539WAT      O85858   1.086   8.732   5.379
28539WAT     H185859   1.064   8.825   5.407
28539WAT     H285860   1.027   8.667   5.426
28540WAT      O85861   2.851   2.724   7.770
28540WAT     H185862   2.826   2.680   7.684
28540WAT     H285863   2.777   2.784   7.800
28541WAT      O85864   0.723   8.433   0.845
28541WAT     H185865   0.784   8.353   0.846
28541WAT     H285866   0.773   8.512   0.809
28542WAT      O85867   9.523   4.598   1.759
28542WAT     H185868   9.459   4.530   1.722
28542WAT     H285869   9.534   4.583   1.858
28543WAT      O85870   0.548   1.524   2.389
28543WAT     H185871   0.601   1.577   2.322
28543WAT     H285872   0.490   1.585   2.442
28544WAT      O85873   5.449   2.865   0.437
28544WAT     H185874   5.530   2.824   0.397
28544WAT     H285875   5.374   2.862   0.371
28545WAT      O85876   8.651   2.221   0.501
28545WAT     H185877   8.634   2.298   0.440
28545WAT     H285878   8.595   2.231   0.583
28546WAT      O85879   8.125   3.813   5.026
28546WAT     H185880   8.174   3.900   5.033
28546WAT     H285881   8.190   3.738   5.020
28547WAT      O85882   1.837   7.291   0.983
28547WAT     H185883   1.816   7.376   1.032
28547WAT     H285884   1.931   7.294   0.950
28548WAT      O85885   3.899   7.180   2.495
28548WAT     H185886   3.926   7.084   2.482
28548WAT     H285887   3.961   7.238   2.443
28549WAT      O85888   0.586   4.535   6.989
28549WAT     H185889   0.619   4.488   6.907
28549WAT     H285890   0.543   4.469   7.051
28550WAT      O85891   7.739   4.305   3.458
28550WAT     H185892   7.809   4.306   3.387
28550WAT     H285893   7.661   4.251   3.428
28551WAT      O85894   2.346   0.497   3.375
28551WAT     H185895   2.370   0.400   3.382
28551WAT     H285896   2.349   0.525   3.279
28552WAT      O85897   2.947   7.703   1.491
28552WAT     H185898   2.973   7.661   1.578
28552WAT     H285899   2.886   7.780   1.508
28553WAT      O85900   3.434   7.107   3.317
28553WAT     H185901   3.424   7.191   3.370
28553WAT     H285902   3.476   7.037   3.374
28554WAT      O85903   1.270   7.587   3.678
28554WAT     H185904   1.350   7.529   3.693
28554WAT     H285905   1.273   7.664   3.742
28555WAT      O85906   4.862   5.259   1.733
28555WAT     H185907   4.923   5.331   1.700
28555WAT     H285908   4.908   5.171   1.726
28556WAT      O85909   5.108   3.649   6.477
28556WAT     H185910   5.076   3.563   6.439
28556WAT     H285911   5.102   3.646   6.577
28557WAT      O85912   4.106   7.357   2.396
28557WAT     H185913   4.087   7.444   2.441
28557WAT     H285914   4.131   7.374   2.300
28558WAT      O85915   6.650   1.696   5.793
28558WAT     H185916   6.723   1.651   5.742
28558WAT     H285917   6.689   1.752   5.866
28559WAT      O85918   1.936   7.087   7.064
28559WAT     H185919   2.035   7.078   7.053
28559WAT     H285920   1.904   7.018   7.129
28560WAT      O85921   7.595   2.054   6.613
28560WAT     H185922   7.521   2.119   6.627
28560WAT     H285923   7.676   2.085   6.663
28561WAT      O85924   1.924   2.159   8.592
28561WAT     H185925   2.007   2.166   8.537
28561WAT     H285926   1.883   2.250   8.602
28562WAT      O85927   0.878   9.569   6.618
28562WAT     H185928   0.785   9.535   6.630
28562WAT     H285929   0.893   9.646   6.680
28563WAT      O85930   3.502   4.675   4.457
28563WAT     H185931   3.488   4.620   4.375
28563WAT     H285932   3.420   4.730   4.474
28564WAT      O85933   2.987   1.162   0.956
28564WAT     H185934   3.049   1.096   0.912
28564WAT     H285935   2.910   1.113   0.996
28565WAT      O85936   8.422   7.607   3.138
28565WAT     H185937   8.449   7.645   3.050
28565WAT     H285938   8.322   7.599   3.142
28566WAT      O85939   4.893   5.480   1.905
28566WAT     H185940   4.893   5.459   2.003
28566WAT     H285941   4.859   5.401   1.854
28567WAT      O85942   3.387   3.500   5.944
28567WAT     H185943   3.326   3.480   5.868
28567WAT     H285944   3.437   3.585   5.926
28568WAT      O85945   5.010   4.325   4.476
28568WAT     H185946   5.061   4.344   4.392
28568WAT     H285947   4.926   4.276   4.453
28569WAT      O85948   9.632   7.763   2.069
28569WAT     H185949   9.682   7.844   2.100
28569WAT     H285950   9.675   7.727   1.987
28570WAT      O85951   7.652   3.402   8.802
28570WAT     H185952   7.553   3.393   8.812
28570WAT     H285953   7.678   3.381   8.707
28571WAT      O85954   4.680   2.421   6.739
28571WAT     H185955   4.699   2.518   6.750
28571WAT     H285956   4.764   2.368   6.749
28572WAT      O85957   5.423   3.043   9.738
28572WAT     H185958   5.490   2.968   9.735
28572WAT     H285959   5.388   3.059   9.646
28573WAT      O85960   5.926   9.081   7.621
28573WAT     H185961   5.979   9.166   7.618
28573WAT     H285962   5.983   9.008   7.660
28574WAT      O85963   8.330   7.496   0.392
28574WAT     H185964   8.390   7.505   0.313
28574WAT     H285965   8.245   7.546   0.376
28575WAT      O85966   6.470   0.998   0.681
28575WAT     H185967   6.542   0.971   0.745
28575WAT     H285968   6.511   1.047   0.603
28576WAT      O85969   1.797   5.096   7.277
28576WAT     H185970   1.807   5.100   7.178
28576WAT     H285971   1.708   5.135   7.303
28577WAT      O85972   6.921   7.954   4.086
28577WAT     H185973   6.956   8.019   4.154
28577WAT     H285974   6.848   7.997   4.034
28578WAT      O85975   5.790   4.675   5.466
28578WAT     H185976   5.839   4.608   5.411
28578WAT     H285977   5.798   4.652   5.562
28579WAT      O85978   8.762   4.145   8.155
28579WAT     H185979   8.682   4.193   8.191
28579WAT     H285980   8.839   4.157   8.217
28580WAT      O85981   7.514   8.278   0.011
28580WAT     H185982   7.431   8.291  -0.043
28580WAT     H285983   7.582   8.229  -0.043
28581WAT      O85984   2.402   2.933   7.798
28581WAT     H185985   2.368   2.955   7.889
28581WAT     H285986   2.335   2.876   7.750
28582WAT      O85987   0.245   4.971   4.148
28582WAT     H185988   0.329   5.023   4.162
28582WAT     H285989   0.267   4.882   4.109
28583WAT      O85990   2.630   8.038   6.180
28583WAT     H185991   2.603   8.055   6.085
28583WAT     H285992   2.551   8.004   6.231
28584WAT      O85993   6.766   2.092   5.009
28584WAT     H185994   6.773   2.068   4.912
28584WAT     H285995   6.744   2.009   5.062
28585WAT      O85996   0.373   9.817   5.386
28585WAT     H185997   0.437   9.851   5.317
28585WAT     H285998   0.280   9.834   5.356
28586WAT      O85999   7.883   9.398   6.055
28586WAT     H186000   7.855   9.354   5.970
28586WAT     H286001   7.831   9.483   6.068
28587WAT      O86002   2.257   6.690   9.636
28587WAT     H186003   2.262   6.607   9.692
28587WAT     H286004   2.235   6.768   9.695
28588WAT      O86005   0.333   6.412   0.483
28588WAT     H186006   0.285   6.341   0.431
28588WAT     H286007   0.339   6.386   0.579
28589WAT      O86008   5.589   2.365   2.423
28589WAT     H186009   5.537   2.305   2.362
28589WAT     H286010   5.536   2.380   2.507
28590WAT      O86011   2.606   0.545   9.064
28590WAT     H186012   2.575   0.603   9.140
28590WAT     H286013   2.634   0.456   9.099
28591WAT      O86014   4.910   2.869   8.494
28591WAT     H186015   4.911   2.897   8.590
28591WAT     H286016   4.986   2.806   8.477
28592WAT      O86017   5.963   3.963   1.476
28592WAT     H186018   6.031   4.024   1.515
28592WAT     H286019   5.902   3.931   1.548
28593WAT      O86020   3.862   7.505   8.705
28593WAT     H186021   3.916   7.469   8.781
28593WAT     H286022   3.767   7.474   8.713
28594WAT      O86023   5.140   3.257   0.130
28594WAT     H186024   5.134   3.350   0.167
28594WAT     H286025   5.073   3.246   0.056
28595WAT      O86026   7.055   3.575   6.495
28595WAT     H186027   6.974   3.553   6.440
28595WAT     H286028   7.076   3.499   6.556
28596WAT      O86029   5.774   4.405   3.086
28596WAT     H186030   5.736   4.481   3.138
28596WAT     H286031   5.762   4.320   3.137
28597WAT      O86032   3.768   6.562   6.624
28597WAT     H186033   3.810   6.493   6.566
28597WAT     H286034   3.761   6.648   6.574
28598WAT      O86035   8.483   5.812   2.354
28598WAT     H186036   8.415   5.757   2.306
28598WAT     H286037   8.480   5.792   2.451
28599WAT      O86038   0.385   0.096   1.174
28599WAT     H186039   0.421   0.032   1.241
28599WAT     H286040   0.301   0.060   1.134
28600WAT      O86041   0.891   7.977   1.889
28600WAT     H186042   0.916   7.892   1.841
28600WAT     H286043   0.810   8.017   1.847
28601WAT      O86044   2.335   0.011   6.625
28601WAT     H186045   2.400   0.078   6.589
28601WAT     H286046   2.335   0.014   6.725
28602WAT      O86047   8.888   4.493   7.433
28602WAT     H186048   8.962   4.489   7.365
28602WAT     H286049   8.862   4.588   7.449
28603WAT      O86050   7.966   5.787   9.571
28603WAT     H186051   7.946   5.872   9.523
28603WAT     H286052   7.882   5.731   9.576
28604WAT      O86053   2.099   2.111   4.048
28604WAT     H186054   2.023   2.077   4.103
28604WAT     H286055   2.157   2.170   4.104
28605WAT      O86056   6.931   0.962   3.719
28605WAT     H186057   6.955   0.941   3.814
28605WAT     H286058   6.868   1.040   3.717
28606WAT      O86059   5.036   6.419   9.014
28606WAT     H186060   5.016   6.407   8.917
28606WAT     H286061   4.950   6.420   9.066
28607WAT      O86062   4.600   2.713   1.008
28607WAT     H186063   4.602   2.812   0.991
28607WAT     H286064   4.579   2.696   1.104
28608WAT      O86065   9.589   2.415   4.205
28608WAT     H186066   9.626   2.337   4.155
28608WAT     H286067   9.516   2.458   4.152
28609WAT      O86068   0.708   1.617   8.304
28609WAT     H186069   0.678   1.684   8.236
28609WAT     H286070   0.659   1.631   8.390
28610WAT      O86071   6.896   4.608   1.645
28610WAT     H186072   6.933   4.553   1.720
28610WAT     H286073   6.967   4.670   1.612
28611WAT      O86074   7.567   5.382   6.958
28611WAT     H186075   7.664   5.358   6.963
28611WAT     H286076   7.545   5.445   7.032
28612WAT      O86077   1.653   5.050   1.996
28612WAT     H186078   1.731   4.991   1.973
28612WAT     H286079   1.568   5.001   1.976
28613WAT      O86080   3.760   0.478   1.887
28613WAT     H186081   3.839   0.523   1.845
28613WAT     H286082   3.693   0.457   1.816
28614WAT      O86083   4.024   8.532   5.085
28614WAT     H186084   3.974   8.591   5.149
28614WAT     H286085   3.987   8.440   5.088
28615WAT      O86086   7.895   1.794   3.416
28615WAT     H186087   7.870   1.729   3.489
28615WAT     H286088   7.833   1.781   3.339
28616WAT      O86089   0.274   7.198   3.911
28616WAT     H186090   0.180   7.182   3.940
28616WAT     H286091   0.314   7.112   3.878
28617WAT      O86092   5.255   8.788   1.479
28617WAT     H186093   5.180   8.758   1.539
28617WAT     H286094   5.328   8.719   1.479
28618WAT      O86095   2.307   6.366   8.726
28618WAT     H186096   2.322   6.378   8.628
28618WAT     H286097   2.300   6.455   8.771
28619WAT      O86098   0.136   7.989   2.474
28619WAT     H186099   0.203   7.921   2.500
28619WAT     H286100   0.147   8.071   2.531
28620WAT      O86101   4.985   4.195   5.120
28620WAT     H186102   5.039   4.114   5.145
28620WAT     H286103   4.911   4.207   5.185
28621WAT      O86104   2.355   0.091   9.286
28621WAT     H186105   2.355   0.025   9.212
28621WAT     H286106   2.317   0.049   9.369
28622WAT      O86107   6.434   3.942   7.017
28622WAT     H186108   6.405   3.963   7.110
28622WAT     H286109   6.394   3.855   6.988
28623WAT      O86110   5.516   1.655   7.117
28623WAT     H186111   5.516   1.729   7.050
28623WAT     H286112   5.435   1.598   7.104
28624WAT      O86113   6.010   4.530   0.604
28624WAT     H186114   6.098   4.531   0.651
28624WAT     H286115   6.021   4.566   0.511
28625WAT      O86116   4.139   0.721   4.225
28625WAT     H186117   4.077   0.653   4.187
28625WAT     H286118   4.088   0.806   4.244
28626WAT      O86119   2.029   3.255   1.619
28626WAT     H186120   2.039   3.156   1.629
28626WAT     H286121   2.097   3.289   1.555
28627WAT      O86122   4.112   2.191   7.207
28627WAT     H186123   4.165   2.121   7.255
28627WAT     H286124   4.170   2.236   7.139
28628WAT      O86125   9.227   8.029   7.738
28628WAT     H186126   9.255   8.105   7.797
28628WAT     H286127   9.273   7.946   7.767
28629WAT      O86128   6.596   0.512   7.065
28629WAT     H186129   6.607   0.525   7.164
28629WAT     H286130   6.507   0.547   7.037
28630WAT      O86131   4.684   5.743   3.555
28630WAT     H186132   4.716   5.825   3.507
28630WAT     H286133   4.707   5.662   3.501
28631WAT      O86134   3.184   1.254   7.591
28631WAT     H186135   3.117   1.276   7.662
28631WAT     H286136   3.161   1.166   7.550
28632WAT      O86137   7.723   1.937   7.403
28632WAT     H186138   7.626   1.919   7.416
28632WAT     H286139   7.764   1.968   7.489
28633WAT      O86140   1.569   3.546   9.744
28633WAT     H186141   1.603   3.569   9.835
28633WAT     H286142   1.644   3.555   9.678
28634WAT      O86143   7.199   5.972   8.058
28634WAT     H186144   7.200   5.995   8.155
28634WAT     H286145   7.107   5.988   8.022
28635WAT      O86146   7.001   8.412   1.040
28635WAT     H186147   6.961   8.477   1.105
28635WAT     H286148   7.098   8.433   1.027
28636WAT      O86149   9.748   9.525   6.681
28636WAT     H186150   9.775   9.606   6.734
28636WAT     H286151   9.650   9.527   6.665
28637WAT      O86152   3.454   6.305   8.471
28637WAT     H186153   3.488   6.223   8.518
28637WAT     H286154   3.397   6.358   8.533
28638WAT      O86155   2.507   0.407   4.826
28638WAT     H186156   2.541   0.335   4.887
28638WAT     H286157   2.538   0.496   4.859
28639WAT      O86158   1.610   8.035   2.245
28639WAT     H186159   1.689   8.096   2.232
28639WAT     H286160   1.545   8.049   2.171
28640WAT      O86161   7.298   6.067   6.363
28640WAT     H186162   7.199   6.081   6.366
28640WAT     H286163   7.331   6.044   6.455
28641WAT      O86164   2.572   4.706   9.497
28641WAT     H186165   2.670   4.689   9.507
28641WAT     H286166   2.532   4.724   9.587
28642WAT      O86167   0.006   0.819   4.191
28642WAT     H186168   0.037   0.912   4.214
28642WAT     H286169  -0.032   0.776   4.273
28643WAT      O86170   2.930   1.918   4.456
28643WAT     H186171   2.920   1.909   4.357
28643WAT     H286172   2.846   1.886   4.501
28644WAT      O86173   8.644   7.316   4.846
28644WAT     H186174   8.666   7.247   4.915
28644WAT     H286175   8.546   7.334   4.845
28645WAT      O86176   6.600   9.413   5.266
28645WAT     H186177   6.614   9.384   5.361
28645WAT     H286178   6.684   9.399   5.214
28646WAT      O86179   4.268   2.876   5.105
28646WAT     H186180   4.230   2.968   5.116
28646WAT     H286181   4.322   2.853   5.185
28647WAT      O86182   4.447   2.698   1.291
28647WAT     H186183   4.375   2.729   1.229
28647WAT     H286184   4.412   2.625   1.350
28648WAT      O86185   7.680   5.454   3.730
28648WAT     H186186   7.711   5.521   3.798
28648WAT     H286187   7.627   5.501   3.659
28649WAT      O86188   0.687   2.796   3.792
28649WAT     H186189   0.693   2.788   3.692
28649WAT     H286190   0.592   2.783   3.820
28650WAT      O86191   4.136   5.301   7.016
28650WAT     H186192   4.142   5.222   7.078
28650WAT     H286193   4.040   5.327   7.005
28651WAT      O86194   6.418   6.109   4.941
28651WAT     H186195   6.373   6.092   5.029
28651WAT     H286196   6.496   6.048   4.931
28652WAT      O86197   4.150   8.939   1.692
28652WAT     H186198   4.170   8.858   1.747
28652WAT     H286199   4.144   9.019   1.751
28653WAT      O86200   6.141   4.128   1.582
28653WAT     H186201   6.094   4.215   1.598
28653WAT     H286202   6.224   4.144   1.529
28654WAT      O86203   9.809   8.622   4.942
28654WAT     H186204   9.788   8.531   4.905
28654WAT     H286205   9.810   8.617   5.042
28655WAT      O86206   4.909   8.411   1.998
28655WAT     H186207   4.939   8.445   2.086
28655WAT     H286208   4.907   8.311   2.000
28656WAT      O86209   2.457   6.754   8.751
28656WAT     H186210   2.528   6.687   8.772
28656WAT     H286211   2.491   6.846   8.771
28657WAT      O86212   2.355   8.922   7.419
28657WAT     H186213   2.393   8.895   7.508
28657WAT     H286214   2.258   8.943   7.430
28658WAT      O86215   9.325   2.836   3.794
28658WAT     H186216   9.424   2.828   3.782
28658WAT     H286217   9.288   2.900   3.727
28659WAT      O86218   8.283   7.193   3.321
28659WAT     H186219   8.195   7.197   3.273
28659WAT     H286220   8.352   7.241   3.267
28660WAT      O86221   3.066   1.384   8.301
28660WAT     H186222   3.020   1.408   8.215
28660WAT     H286223   3.054   1.459   8.367
28661WAT      O86224   3.915   9.084   5.551
28661WAT     H186225   3.843   9.063   5.617
28661WAT     H286226   3.905   9.024   5.471
28662WAT      O86227   2.070   0.447   9.584
28662WAT     H186228   2.081   0.353   9.615
28662WAT     H286229   2.028   0.501   9.656
28663WAT      O86230   2.416   2.353   9.612
28663WAT     H186231   2.456   2.431   9.659
28663WAT     H286232   2.487   2.284   9.595
28664WAT      O86233   3.722   0.444   7.367
28664WAT     H186234   3.694   0.502   7.291
28664WAT     H286235   3.749   0.502   7.444
28665WAT      O86236   7.008   9.650   8.359
28665WAT     H186237   7.029   9.703   8.276
28665WAT     H286238   7.081   9.665   8.426
28666WAT      O86239   5.246   8.064   1.228
28666WAT     H186240   5.169   8.064   1.163
28666WAT     H286241   5.332   8.054   1.178
28667WAT      O86242   9.021   3.419   8.200
28667WAT     H186243   9.040   3.485   8.272
28667WAT     H286244   9.011   3.328   8.240
28668WAT      O86245   8.310   2.574   7.976
28668WAT     H186246   8.231   2.618   7.934
28668WAT     H286247   8.289   2.552   8.071
28669WAT      O86248   0.875   0.960   7.657
28669WAT     H186249   0.901   1.040   7.711
28669WAT     H286250   0.935   0.883   7.681
28670WAT      O86251   8.942   6.497   8.988
28670WAT     H186252   8.967   6.591   8.961
28670WAT     H286253   8.881   6.500   9.067
28671WAT      O86254   6.480   7.556   3.452
28671WAT     H186255   6.402   7.508   3.412
28671WAT     H286256   6.486   7.534   3.549
28672WAT      O86257   0.636   3.284   4.313
28672WAT     H186258   0.674   3.239   4.233
28672WAT     H286259   0.681   3.373   4.327
28673WAT      O86260   9.428   0.552   8.899
28673WAT     H186261   9.504   0.606   8.861
28673WAT     H286262   9.404   0.588   8.989
28674WAT      O86263   3.184   0.701   6.157
28674WAT     H186264   3.255   0.631   6.161
28674WAT     H286265   3.219   0.782   6.110
28675WAT      O86266   0.428   7.040   6.559
28675WAT     H186267   0.466   6.969   6.499
28675WAT     H286268   0.462   7.025   6.652
28676WAT      O86269   0.779   9.826   9.310
28676WAT     H186270   0.771   9.745   9.252
28676WAT     H286271   0.695   9.838   9.362
28677WAT      O86272   6.168   7.365   6.588
28677WAT     H186273   6.214   7.449   6.558
28677WAT     H286274   6.157   7.303   6.510
28678WAT      O86275   4.714   5.662   9.616
28678WAT     H186276   4.688   5.574   9.654
28678WAT     H286277   4.752   5.720   9.689
28679WAT      O86278   3.732   9.768   8.381
28679WAT     H186279   3.719   9.778   8.479
28679WAT     H286280   3.719   9.856   8.336
28680WAT      O86281   1.826   0.514   4.622
28680WAT     H186282   1.827   0.488   4.526
28680WAT     H286283   1.834   0.614   4.629
28681WAT      O86284   8.145   3.788   7.047
28681WAT     H186285   8.197   3.858   7.096
28681WAT     H286286   8.095   3.829   6.971
28682WAT      O86287   6.229   3.478   9.304
28682WAT     H186288   6.262   3.567   9.273
28682WAT     H286289   6.140   3.489   9.350
28683WAT      O86290   1.577   4.208   2.459
28683WAT     H186291   1.602   4.304   2.470
28683WAT     H286292   1.650   4.150   2.495
28684WAT      O86293   3.291   6.802   8.037
28684WAT     H186294   3.346   6.885   8.044
28684WAT     H286295   3.351   6.723   8.024
28685WAT      O86296   6.304   9.574   8.271
28685WAT     H186297   6.279   9.482   8.302
28685WAT     H286298   6.402   9.587   8.279
28686WAT      O86299   1.275   8.581   1.029
28686WAT     H186300   1.280   8.504   1.093
28686WAT     H286301   1.332   8.561   0.950
28687WAT      O86302   0.448   3.848   1.737
28687WAT     H186303   0.395   3.931   1.719
28687WAT     H286304   0.510   3.865   1.813
28688WAT      O86305   5.600   5.488   9.013
28688WAT     H186306   5.685   5.469   9.062
28688WAT     H286307   5.552   5.563   9.058
28689WAT      O86308   0.567   1.853   8.168
28689WAT     H186309   0.577   1.890   8.076
28689WAT     H286310   0.475   1.816   8.179
28690WAT      O86311   2.005   1.389   7.290
28690WAT     H186312   2.078   1.331   7.255
28690WAT     H286313   1.916   1.352   7.262
28691WAT      O86314   9.843   8.161   0.063
28691WAT     H186315   9.918   8.128   0.120
28691WAT     H286316   9.771   8.092   0.060
28692WAT      O86317   2.617   5.980   0.405
28692WAT     H186318   2.583   5.898   0.453
28692WAT     H286319   2.563   5.995   0.322
28693WAT      O86320   7.537   5.426   2.423
28693WAT     H186321   7.440   5.448   2.431
28693WAT     H286322   7.547   5.334   2.385
28694WAT      O86323   2.392   0.770   0.128
28694WAT     H186324   2.301   0.751   0.089
28694WAT     H286325   2.397   0.731   0.220
28695WAT      O86326   6.989   8.504   7.685
28695WAT     H186327   6.966   8.409   7.703
28695WAT     H286328   7.074   8.528   7.732
28696WAT      O86329   1.585   1.177   1.261
28696WAT     H186330   1.662   1.129   1.219
28696WAT     H286331   1.605   1.195   1.357
28697WAT      O86332   1.073   2.723   7.531
28697WAT     H186333   1.153   2.779   7.551
28697WAT     H286334   1.089   2.668   7.450
28698WAT      O86335   6.102   1.521   6.551
28698WAT     H186336   6.089   1.603   6.606
28698WAT     H286337   6.161   1.542   6.473
28699WAT      O86338   4.553   5.358   2.135
28699WAT     H186339   4.515   5.353   2.043
28699WAT     H286340   4.515   5.437   2.183
28700WAT      O86341   2.983   8.924   2.645
28700WAT     H186342   2.991   8.837   2.694
28700WAT     H286343   3.048   8.990   2.682
28701WAT      O86344   6.643   3.837   4.279
28701WAT     H186345   6.573   3.769   4.302
28701WAT     H286346   6.729   3.791   4.258
28702WAT      O86347   0.520   5.837   1.233
28702WAT     H186348   0.592   5.773   1.208
28702WAT     H286349   0.549   5.930   1.209
28703WAT      O86350   1.551   4.031   7.134
28703WAT     H186351   1.471   4.051   7.077
28703WAT     H286352   1.634   4.052   7.083
28704WAT      O86353   6.593   9.074   1.529
28704WAT     H186354   6.613   9.166   1.562
28704WAT     H286355   6.499   9.049   1.555
28705WAT      O86356   2.784   8.449   4.923
28705WAT     H186357   2.870   8.490   4.952
28705WAT     H286358   2.741   8.507   4.854
28706WAT      O86359   5.598   9.105   3.061
28706WAT     H186360   5.553   9.016   3.063
28706WAT     H286361   5.545   9.171   3.113
28707WAT      O86362   0.965   3.245   0.946
28707WAT     H186363   0.884   3.301   0.926
28707WAT     H286364   0.994   3.197   0.863
28708WAT      O86365   2.201   9.307   6.358
28708WAT     H186366   2.217   9.303   6.456
28708WAT     H286367   2.112   9.349   6.340
28709WAT      O86368   7.378   7.756   4.509
28709WAT     H186369   7.281   7.768   4.529
28709WAT     H286370   7.406   7.821   4.438
28710WAT      O86371   3.749   1.404   3.853
28710WAT     H186372   3.823   1.338   3.867
28710WAT     H286373   3.788   1.495   3.845
28711WAT      O86374   2.251   3.395   2.057
28711WAT     H186375   2.240   3.357   1.965
28711WAT     H286376   2.332   3.454   2.060
28712WAT      O86377   6.978   0.211   9.172
28712WAT     H186378   6.950   0.149   9.246
28712WAT     H286379   7.077   0.222   9.172
28713WAT      O86380   5.708   4.450   7.904
28713WAT     H186381   5.741   4.544   7.913
28713WAT     H286382   5.631   4.436   7.967
28714WAT      O86383   2.808   1.112   4.649
28714WAT     H186384   2.890   1.101   4.594
28714WAT     H286385   2.728   1.118   4.590
28715WAT      O86386   8.590   5.310   9.674
28715WAT     H186387   8.527   5.240   9.640
28715WAT     H286388   8.626   5.363   9.597
28716WAT      O86389   4.491   1.730   0.067
28716WAT     H186390   4.460   1.640   0.099
28716WAT     H286391   4.437   1.758  -0.012
28717WAT      O86392   5.081   0.840   6.512
28717WAT     H186393   5.144   0.767   6.536
28717WAT     H286394   5.008   0.804   6.453
28718WAT      O86395   6.846   2.552   6.867
28718WAT     H186396   6.764   2.588   6.913
28718WAT     H286397   6.854   2.455   6.887
28719WAT      O86398   1.008   2.818   9.402
28719WAT     H186399   0.969   2.811   9.494
28719WAT     H286400   0.936   2.846   9.338
28720WAT      O86401   8.684   0.986   4.604
28720WAT     H186402   8.611   1.046   4.573
28720WAT     H286403   8.654   0.934   4.684
28721WAT      O86404   1.799   8.206   3.234
28721WAT     H186405   1.714   8.156   3.249
28721WAT     H286406   1.859   8.153   3.174
28722WAT      O86407   8.895   2.130   3.526
28722WAT     H186408   8.849   2.125   3.437
28722WAT     H286409   8.985   2.087   3.518
28723WAT      O86410   0.587   3.654   9.447
28723WAT     H186411   0.624   3.567   9.413
28723WAT     H286412   0.532   3.697   9.375
28724WAT      O86413   7.455   7.157   5.774
28724WAT     H186414   7.434   7.248   5.811
28724WAT     H286415   7.541   7.162   5.723
28725WAT      O86416   3.890   5.832   2.789
28725WAT     H186417   3.891   5.761   2.859
28725WAT     H286418   3.805   5.826   2.736
28726WAT      O86419   6.135   4.925   6.328
28726WAT     H186420   6.117   4.930   6.230
28726WAT     H286421   6.049   4.904   6.376
28727WAT      O86422   5.369   0.455   1.339
28727WAT     H186423   5.270   0.465   1.347
28727WAT     H286424   5.414   0.526   1.394
28728WAT      O86425   6.175   1.081   7.073
28728WAT     H186426   6.086   1.040   7.050
28728WAT     H286427   6.244   1.009   7.078
28729WAT      O86428   7.693   0.177   5.490
28729WAT     H186429   7.703   0.270   5.524
28729WAT     H286430   7.781   0.144   5.455
28730WAT      O86431   6.529   8.662   9.415
28730WAT     H186432   6.516   8.640   9.319
28730WAT     H286433   6.625   8.650   9.440
28731WAT      O86434   8.444   9.040   7.668
28731WAT     H186435   8.474   8.996   7.753
28731WAT     H286436   8.485   8.993   7.590
28732WAT      O86437   9.293   6.677   4.458
28732WAT     H186438   9.325   6.582   4.449
28732WAT     H286439   9.358   6.728   4.514
28733WAT      O86440   8.732   2.383   4.686
28733WAT     H186441   8.784   2.469   4.680
28733WAT     H286442   8.694   2.375   4.778
28734WAT      O86443   2.105   5.215   0.145
28734WAT     H186444   2.075   5.123   0.168
28734WAT     H286445   2.166   5.248   0.217
28735WAT      O86446   0.677   7.354   8.777
28735WAT     H186447   0.707   7.417   8.848
28735WAT     H286448   0.747   7.284   8.764
28736WAT      O86449   6.366   8.935   8.542
28736WAT     H186450   6.347   8.961   8.448
28736WAT     H286451   6.328   8.844   8.560
28737WAT      O86452   3.793   3.596   5.946
28737WAT     H186453   3.794   3.689   5.909
28737WAT     H286454   3.734   3.594   6.027
28738WAT      O86455   4.529   4.978   8.791
28738WAT     H186456   4.449   4.918   8.794
28738WAT     H286457   4.510   5.057   8.734
28739WAT      O86458   3.490   8.192   9.800
28739WAT     H186459   3.487   8.221   9.704
28739WAT     H286460   3.447   8.261   9.857
28740WAT      O86461   2.586   4.703   2.365
28740WAT     H186462   2.613   4.627   2.425
28740WAT     H286463   2.608   4.789   2.410
28741WAT      O86464   6.394   4.757   6.011
28741WAT     H186465   6.472   4.803   6.055
28741WAT     H286466   6.372   4.673   6.061
28742WAT      O86467   4.856   8.100   3.984
28742WAT     H186468   4.877   8.091   4.081
28742WAT     H286469   4.886   8.018   3.936
28743WAT      O86470   7.404   5.933   3.077
28743WAT     H186471   7.320   5.886   3.050
28743WAT     H286472   7.418   6.013   3.019
28744WAT      O86473   1.857   0.459   2.438
28744WAT     H186474   1.845   0.414   2.350
28744WAT     H286475   1.778   0.440   2.497
28745WAT      O86476   2.218   4.688   9.381
28745WAT     H186477   2.139   4.675   9.321
28745WAT     H286478   2.301   4.654   9.335
28746WAT      O86479   9.728   4.873   2.217
28746WAT     H186480   9.791   4.804   2.180
28746WAT     H286481   9.639   4.831   2.235
28747WAT      O86482   6.447   7.474   2.605
28747WAT     H186483   6.540   7.453   2.574
28747WAT     H286484   6.407   7.543   2.544
28748WAT      O86485   1.931   5.464   7.828
28748WAT     H186486   1.982   5.400   7.770
28748WAT     H286487   1.871   5.520   7.770
28749WAT      O86488   0.717   9.118   7.963
28749WAT     H186489   0.743   9.158   8.051
28749WAT     H286490   0.783   9.048   7.936
28750WAT      O86491   6.244   7.255   0.657
28750WAT     H186492   6.253   7.354   0.644
28750WAT     H286493   6.286   7.230   0.745
28751WAT      O86494   1.239   2.870   1.587
28751WAT     H186495   1.177   2.923   1.645
28751WAT     H286496   1.329   2.914   1.585
28752WAT      O86497   3.879   8.204   9.214
28752WAT     H186498   3.902   8.300   9.233
28752WAT     H286499   3.796   8.180   9.263
28753WAT      O86500   3.287   3.501   6.803
28753WAT     H186501   3.218   3.458   6.861
28753WAT     H286502   3.249   3.515   6.711
28754WAT      O86503   4.887   9.405   2.161
28754WAT     H186504   4.962   9.466   2.134
28754WAT     H286505   4.909   9.312   2.133
28755WAT      O86506   0.014   9.197   5.209
28755WAT     H186507   0.103   9.173   5.171
28755WAT     H286508   0.024   9.271   5.274
28756WAT      O86509   4.955   0.989   0.314
28756WAT     H186510   4.958   1.089   0.305
28756WAT     H286511   4.999   0.962   0.400
28757WAT      O86512   2.455   5.968   5.993
28757WAT     H186513   2.411   5.909   6.061
28757WAT     H286514   2.407   6.055   5.989
28758WAT      O86515   4.149   7.905   2.420
28758WAT     H186516   4.228   7.933   2.476
28758WAT     H286517   4.075   7.875   2.480
28759WAT      O86518   1.114   6.716   8.790
28759WAT     H186519   1.211   6.693   8.788
28759WAT     H286520   1.080   6.724   8.697
28760WAT      O86521   5.296   8.564   0.019
28760WAT     H186522   5.209   8.609  -0.000
28760WAT     H286523   5.344   8.613   0.091
28761WAT      O86524   5.660   3.247   5.550
28761WAT     H186525   5.669   3.204   5.460
28761WAT     H286526   5.726   3.323   5.557
28762WAT      O86527   1.909   0.455   8.008
28762WAT     H186528   1.929   0.376   7.950
28762WAT     H286529   1.814   0.482   7.997
28763WAT      O86530   6.567   6.118   0.020
28763WAT     H186531   6.469   6.127   0.037
28763WAT     H286532   6.585   6.028  -0.020
28764WAT      O86533   7.576   3.131   2.625
28764WAT     H186534   7.576   3.052   2.687
28764WAT     H286535   7.665   3.177   2.630
28765WAT      O86536   3.437   3.183   4.612
28765WAT     H186537   3.346   3.192   4.653
28765WAT     H286538   3.428   3.146   4.520
28766WAT      O86539   7.349   0.354   5.414
28766WAT     H186540   7.435   0.377   5.368
28766WAT     H286541   7.367   0.284   5.484
28767WAT      O86542   9.771   1.646   9.349
28767WAT     H186543   9.791   1.679   9.256
28767WAT     H286544   9.717   1.562   9.344
28768WAT      O86545   7.961   5.125   2.279
28768WAT     H186546   7.925   5.049   2.333
28768WAT     H286547   8.061   5.120   2.276
28769WAT      O86548   1.618   4.498   2.465
28769WAT     H186549   1.618   4.593   2.436
28769WAT     H286550   1.524   4.466   2.474
28770WAT      O86551   9.577   0.985   6.526
28770WAT     H186552   9.601   1.076   6.560
28770WAT     H286553   9.575   0.920   6.602
28771WAT      O86554   3.692   9.199   0.458
28771WAT     H186555   3.697   9.125   0.392
28771WAT     H286556   3.647   9.278   0.417
28772WAT      O86557   9.845   1.314   8.383
28772WAT     H186558   9.904   1.387   8.417
28772WAT     H286559   9.845   1.238   8.447
28773WAT      O86560   8.883   0.031   8.680
28773WAT     H186561   8.816  -0.043   8.674
28773WAT     H286562   8.905   0.048   8.776
28774WAT      O86563   1.751   8.928   5.242
28774WAT     H186564   1.822   8.878   5.193
28774WAT     H286565   1.758   9.025   5.222
28775WAT      O86566   5.132   4.189   5.414
28775WAT     H186567   5.075   4.265   5.383
28775WAT     H286568   5.093   4.151   5.498
28776WAT      O86569   5.500   0.431   8.146
28776WAT     H186570   5.543   0.422   8.236
28776WAT     H286571   5.525   0.352   8.089
28777WAT      O86572   2.909   4.327   6.915
28777WAT     H186573   2.878   4.260   6.847
28777WAT     H286574   2.830   4.357   6.969
28778WAT      O86575   5.340   2.735   7.256
28778WAT     H186576   5.278   2.657   7.268
28778WAT     H286577   5.365   2.771   7.346
28779WAT      O86578   9.217   8.879   4.951
28779WAT     H186579   9.243   8.782   4.948
28779WAT     H286580   9.300   8.936   4.951
28780WAT      O86581   9.342   8.664   0.634
28780WAT     H186582   9.411   8.632   0.570
28780WAT     H286583   9.349   8.763   0.645
28781WAT      O86584   1.753   3.869   5.953
28781WAT     H186585   1.710   3.811   6.023
28781WAT     H286586   1.828   3.920   5.994
28782WAT      O86587   6.287   6.371   3.179
28782WAT     H186588   6.351   6.305   3.219
28782WAT     H286589   6.195   6.334   3.182
28783WAT      O86590   8.290   5.048   2.929
28783WAT     H186591   8.200   5.055   2.888
28783WAT     H286592   8.346   4.983   2.877
28784WAT      O86593   2.454   5.113   9.680
28784WAT     H186594   2.528   5.101   9.614
28784WAT     H286595   2.366   5.109   9.632
28785WAT      O86596   1.928   3.491   3.713
28785WAT     H186597   1.956   3.415   3.771
28785WAT     H286598   1.863   3.460   3.645
28786WAT      O86599   3.602   4.009   2.044
28786WAT     H186600   3.697   3.986   2.064
28786WAT     H286601   3.599   4.070   1.964
28787WAT      O86602   4.881   0.265   0.747
28787WAT     H186603   4.920   0.265   0.655
28787WAT     H286604   4.880   0.171   0.782
28788WAT      O86605   5.272   4.830   6.084
28788WAT     H186606   5.185   4.875   6.104
28788WAT     H286607   5.285   4.753   6.146
28789WAT      O86608   8.094   2.477   6.340
28789WAT     H186609   8.036   2.554   6.368
28789WAT     H286610   8.168   2.511   6.283
28790WAT      O86611   1.067   4.928   0.608
28790WAT     H186612   1.017   4.914   0.523
28790WAT     H286613   1.043   4.856   0.673
28791WAT      O86614   7.429   6.661   0.759
28791WAT     H186615   7.394   6.742   0.805
28791WAT     H286616   7.496   6.689   0.690
28792WAT      O86617   0.884   0.345   6.722
28792WAT     H186618   0.817   0.282   6.684
28792WAT     H286619   0.931   0.393   6.647
28793WAT      O86620   8.695   8.173   7.265
28793WAT     H186621   8.777   8.159   7.320
28793WAT     H286622   8.638   8.243   7.308
28794WAT      O86623   0.947   5.171   1.557
28794WAT     H186624   0.984   5.174   1.650
28794WAT     H286625   0.901   5.257   1.537
28795WAT      O86626   1.023   5.375   2.631
28795WAT     H186627   1.087   5.364   2.555
28795WAT     H286628   1.037   5.464   2.674
28796WAT      O86629   8.519   4.841   0.547
28796WAT     H186630   8.461   4.770   0.588
28796WAT     H286631   8.551   4.903   0.618
28797WAT      O86632   3.045   8.165   4.301
28797WAT     H186633   2.983   8.190   4.226
28797WAT     H286634   3.136   8.145   4.263
28798WAT      O86635   9.198   0.114   4.908
28798WAT     H186636   9.163   0.205   4.929
28798WAT     H286637   9.146   0.046   4.959
28799WAT      O86638   5.534   6.522   7.283
28799WAT     H186639   5.473   6.596   7.253
28799WAT     H286640   5.626   6.538   7.247
28800WAT      O86641   3.959   7.844   5.441
28800WAT     H186642   3.871   7.807   5.410
28800WAT     H286643   4.000   7.899   5.368
28801WAT      O86644   8.172   6.473   9.275
28801WAT     H186645   8.102   6.536   9.241
28801WAT     H286646   8.260   6.495   9.232
28802WAT      O86647   8.834   4.747   9.830
28802WAT     H186648   8.917   4.803   9.839
28802WAT     H286649   8.788   4.742   9.919
28803WAT      O86650   1.165   5.686   2.393
28803WAT     H186651   1.261   5.681   2.419
28803WAT     H286652   1.155   5.739   2.309
28804WAT      O86653   8.993   7.187   9.838
28804WAT     H186654   8.988   7.088   9.820
28804WAT     H286655   9.072   7.226   9.792
28805WAT      O86656   1.492   2.532   7.684
28805WAT     H186657   1.540   2.525   7.771
28805WAT     H286658   1.553   2.503   7.609
28806WAT      O86659   3.388   6.260   0.747
28806WAT     H186660   3.485   6.244   0.729
28806WAT     H286661   3.354   6.331   0.686
28807WAT      O86662   5.482   1.855   8.957
28807WAT     H186663   5.401   1.832   8.902
28807WAT     H286664   5.509   1.949   8.938
28808WAT      O86665   7.153   1.479   0.958
28808WAT     H186666   7.191   1.407   1.017
28808WAT     H286667   7.108   1.437   0.879
28809WAT      O86668   2.889   9.535   1.091
28809WAT     H186669   2.983   9.535   1.126
28809WAT     H286670   2.827   9.503   1.163
28810WAT      O86671   7.242   7.821   8.016
28810WAT     H186672   7.283   7.754   8.078
28810WAT     H286673   7.247   7.912   8.057
28811WAT      O86674   4.636   5.640   5.992
28811WAT     H186675   4.662   5.576   5.920
28811WAT     H286676   4.551   5.687   5.966
28812WAT      O86677   3.391   1.160   7.263
28812WAT     H186678   3.406   1.104   7.181
28812WAT     H286679   3.458   1.136   7.333
28813WAT      O86680   6.767   5.228   6.281
28813WAT     H186681   6.764   5.296   6.354
28813WAT     H286682   6.860   5.191   6.273
28814WAT      O86683   8.503   0.718   3.069
28814WAT     H186684   8.444   0.659   3.014
28814WAT     H286685   8.452   0.800   3.096
28815WAT      O86686   6.146   8.099   7.191
28815WAT     H186687   6.145   8.195   7.162
28815WAT     H286688   6.111   8.092   7.285
28816WAT      O86689   6.754   1.536   7.567
28816WAT     H186690   6.841   1.563   7.526
28816WAT     H286691   6.749   1.436   7.572
28817WAT      O86692   9.191   6.605   2.855
28817WAT     H186693   9.135   6.531   2.892
28817WAT     H286694   9.179   6.687   2.911
28818WAT      O86695   4.838   5.359   2.905
28818WAT     H186696   4.882   5.300   2.837
28818WAT     H286697   4.887   5.446   2.910
28819WAT      O86698   6.440   5.538   6.363
28819WAT     H186699   6.405   5.558   6.271
28819WAT     H286700   6.526   5.586   6.376
28820WAT      O86701   7.117   7.252   5.579
28820WAT     H186702   7.129   7.193   5.658
28820WAT     H286703   7.180   7.329   5.585
28821WAT      O86704   7.493   7.607   5.498
28821WAT     H186705   7.410   7.662   5.493
28821WAT     H286706   7.567   7.652   5.449
28822WAT      O86707   9.442   5.482   8.967
28822WAT     H186708   9.530   5.531   8.969
28822WAT     H286709   9.369   5.546   8.941
28823WAT      O86710   0.073   0.166   2.165
28823WAT     H186711   0.150   0.231   2.169
28823WAT     H286712   0.035   0.154   2.256
28824WAT      O86713   1.515   9.620   1.768
28824WAT     H186714   1.566   9.563   1.832
28824WAT     H286715   1.496   9.709   1.809
28825WAT      O86716   1.644   5.558   2.936
28825WAT     H186717   1.681   5.494   3.003
28825WAT     H286718   1.719   5.600   2.884
28826WAT      O86719   3.322   2.399   8.033
28826WAT     H186720   3.306   2.339   7.955
28826WAT     H286721   3.410   2.375   8.075
28827WAT      O86722   7.182   0.223   6.987
28827WAT     H186723   7.234   0.141   7.011
28827WAT     H286724   7.087   0.198   6.968
28828WAT      O86725   4.407   2.666   1.642
28828WAT     H186726   4.437   2.609   1.565
28828WAT     H286727   4.487   2.701   1.691
28829WAT      O86728   1.650   7.660   1.830
28829WAT     H186729   1.572   7.712   1.795
28829WAT     H286730   1.649   7.568   1.793
28830WAT      O86731   8.174   8.208   5.135
28830WAT     H186732   8.234   8.159   5.071
28830WAT     H286733   8.138   8.290   5.091
28831WAT      O86734   9.383   8.243   2.394
28831WAT     H186735   9.367   8.300   2.313
28831WAT     H286736   9.390   8.302   2.475
28832WAT      O86737   3.220   7.773   0.509
28832WAT     H186738   3.317   7.783   0.489
28832WAT     H286739   3.207   7.723   0.594
28833WAT      O86740   6.849   6.022   3.252
28833WAT     H186741   6.790   5.970   3.191
28833WAT     H286742   6.942   6.026   3.214
28834WAT      O86743   5.721   7.625   9.009
28834WAT     H186744   5.790   7.619   8.938
28834WAT     H286745   5.646   7.562   8.989
28835WAT      O86746   6.953   6.237   2.796
28835WAT     H186747   7.026   6.169   2.800
28835WAT     H286748   6.889   6.223   2.871
28836WAT      O86749   7.255   5.732   8.785
28836WAT     H186750   7.273   5.651   8.841
28836WAT     H286751   7.329   5.798   8.797
28837WAT      O86752   7.586   5.043   9.022
28837WAT     H186753   7.604   4.983   9.100
28837WAT     H286754   7.512   5.004   8.967
28838WAT      O86755   2.102   3.393   6.970
28838WAT     H186756   2.027   3.334   6.939
28838WAT     H286757   2.067   3.457   7.039
28839WAT      O86758   9.013   1.860   9.833
28839WAT     H186759   8.954   1.869   9.914
28839WAT     H286760   9.068   1.777   9.842
28840WAT      O86761   5.280   0.725   5.645
28840WAT     H186762   5.259   0.778   5.726
28840WAT     H286763   5.324   0.783   5.577
28841WAT      O86764   3.129   3.291   3.068
28841WAT     H186765   3.185   3.294   3.150
28841WAT     H286766   3.127   3.197   3.033
28842WAT      O86767   3.282   1.400   3.032
28842WAT     H186768   3.329   1.397   3.121
28842WAT     H286769   3.212   1.329   3.029
28843WAT      O86770   6.362   8.654   4.041
28843WAT     H186771   6.432   8.632   4.108
28843WAT     H286772   6.284   8.592   4.051
28844WAT      O86773   7.068   5.341   6.840
28844WAT     H186774   6.984   5.395   6.840
28844WAT     H286775   7.059   5.265   6.777
28845WAT      O86776   0.224   2.781   5.151
28845WAT     H186777   0.136   2.817   5.185
28845WAT     H286778   0.297   2.846   5.173
28846WAT      O86779   6.636   3.364   8.171
28846WAT     H186780   6.655   3.399   8.079
28846WAT     H286781   6.627   3.264   8.168
28847WAT      O86782   5.072   5.193   0.354
28847WAT     H186783   5.136   5.267   0.333
28847WAT     H286784   4.986   5.209   0.306
28848WAT      O86785   9.655   0.935   9.815
28848WAT     H186786   9.594   1.002   9.773
28848WAT     H286787   9.736   0.924   9.758
28849WAT      O86788   6.379   2.322   3.365
28849WAT     H186789   6.465   2.284   3.333
28849WAT     H286790   6.303   2.272   3.324
28850WAT      O86791   9.314   3.389   6.337
28850WAT     H186792   9.371   3.307   6.331
28850WAT     H286793   9.362   3.466   6.296
28851WAT      O86794   4.166   2.636   7.796
28851WAT     H186795   4.218   2.721   7.799
28851WAT     H286796   4.145   2.613   7.700
28852WAT      O86797   0.701   2.745   7.009
28852WAT     H186798   0.713   2.844   7.001
28852WAT     H286799   0.790   2.700   7.016
28853WAT      O86800   5.780   3.736   3.320
28853WAT     H186801   5.764   3.753   3.222
28853WAT     H286802   5.730   3.654   3.348
28854WAT      O86803   5.858   0.452   5.099
28854WAT     H186804   5.810   0.366   5.119
28854WAT     H286805   5.915   0.477   5.178
28855WAT      O86806   7.789   3.768   1.590
28855WAT     H186807   7.868   3.818   1.626
28855WAT     H286808   7.803   3.670   1.602
28856WAT      O86809   3.475   1.145   3.140
28856WAT     H186810   3.543   1.098   3.198
28856WAT     H286811   3.456   1.089   3.059
28857WAT      O86812   9.284   2.602   4.702
28857WAT     H186813   9.209   2.537   4.690
28857WAT     H286814   9.255   2.693   4.673
28858WAT      O86815   9.064   3.079   4.638
28858WAT     H186816   9.040   3.175   4.650
28858WAT     H286817   9.041   3.051   4.545
28859WAT      O86818   0.288   7.707   7.397
28859WAT     H186819   0.387   7.693   7.401
28859WAT     H286820   0.260   7.773   7.467
28860WAT      O86821   7.629   9.779   0.730
28860WAT     H186822   7.536   9.756   0.702
28860WAT     H286823   7.640   9.878   0.728
28861WAT      O86824   3.822   6.126   9.888
28861WAT     H186825   3.870   6.075   9.817
28861WAT     H286826   3.776   6.205   9.848
28862WAT      O86827   1.963   8.558   8.037
28862WAT     H186828   2.036   8.586   7.974
28862WAT     H286829   1.960   8.458   8.042
28863WAT      O86830   1.767   9.553   3.314
28863WAT     H186831   1.836   9.514   3.253
28863WAT     H286832   1.785   9.525   3.408
28864WAT      O86833   1.358   8.784   5.374
28864WAT     H186834   1.396   8.805   5.284
28864WAT     H286835   1.264   8.751   5.363
28865WAT      O86836   1.164   0.899   4.627
28865WAT     H186837   1.096   0.919   4.697
28865WAT     H286838   1.227   0.976   4.618
28866WAT      O86839   5.356   6.305   2.699
28866WAT     H186840   5.338   6.386   2.756
28866WAT     H286841   5.324   6.223   2.748
28867WAT      O86842   4.102   7.292   5.858
28867WAT     H186843   4.192   7.291   5.902
28867WAT     H286844   4.037   7.337   5.918
28868WAT      O86845   4.272   9.757   6.589
28868WAT     H186846   4.247   9.664   6.615
28868WAT     H286847   4.190   9.811   6.574
28869WAT      O86848   5.973   0.450   8.181
28869WAT     H186849   6.025   0.449   8.096
28869WAT     H286850   5.888   0.399   8.169
28870WAT      O86851   8.256   6.414   6.961
28870WAT     H186852   8.315   6.339   6.933
28870WAT     H286853   8.301   6.502   6.944
28871WAT      O86854   6.656   3.989   3.400
28871WAT     H186855   6.675   3.898   3.363
28871WAT     H286856   6.558   4.000   3.414
28872WAT      O86857   0.258   6.381   7.559
28872WAT     H186858   0.315   6.410   7.636
28872WAT     H286859   0.183   6.324   7.592
28873WAT      O86860   5.671   3.100   5.288
28873WAT     H186861   5.579   3.083   5.255
28873WAT     H286862   5.718   3.165   5.228
28874WAT      O86863   5.241   3.886   6.087
28874WAT     H186864   5.267   3.791   6.067
28874WAT     H286865   5.186   3.888   6.171
28875WAT      O86866   2.079   2.271   0.043
28875WAT     H186867   2.025   2.213   0.104
28875WAT     H286868   2.122   2.344   0.096
28876WAT      O86869   6.578   3.894   9.728
28876WAT     H186870   6.613   3.985   9.708
28876WAT     H286871   6.494   3.900   9.782
28877WAT      O86872   0.287   5.190   0.290
28877WAT     H186873   0.312   5.244   0.370
28877WAT     H286874   0.359   5.197   0.221
28878WAT      O86875   1.399   1.035   9.545
28878WAT     H186876   1.309   1.011   9.581
28878WAT     H286877   1.465   0.965   9.574
28879WAT      O86878   0.862   6.791   7.759
28879WAT     H186879   0.884   6.881   7.722
28879WAT     H286880   0.923   6.770   7.835
28880WAT      O86881   6.769   9.386   6.708
28880WAT     H186882   6.708   9.307   6.702
28880WAT     H286883   6.733   9.451   6.775
28881WAT      O86884   6.315   6.225   8.791
28881WAT     H186885   6.365   6.214   8.704
28881WAT     H286886   6.353   6.161   8.858
28882WAT      O86887   3.588   8.546   9.120
28882WAT     H186888   3.659   8.606   9.157
28882WAT     H286889   3.498   8.576   9.153
28883WAT      O86890   7.432   0.272   7.686
28883WAT     H186891   7.438   0.363   7.727
28883WAT     H286892   7.410   0.205   7.757
28884WAT      O86893   0.612   4.331   7.371
28884WAT     H186894   0.575   4.241   7.348
28884WAT     H286895   0.559   4.371   7.446
28885WAT      O86896   5.607   6.991   5.872
28885WAT     H186897   5.573   6.964   5.781
28885WAT     H286898   5.666   7.071   5.862
28886WAT      O86899   6.412   3.504   8.602
28886WAT     H186900   6.390   3.601   8.595
28886WAT     H286901   6.390   3.458   8.516
28887WAT      O86902   6.190   1.327   3.846
28887WAT     H186903   6.141   1.393   3.788
28887WAT     H286904   6.174   1.235   3.812
28888WAT      O86905   4.884   3.030   5.199
28888WAT     H186906   4.864   3.128   5.194
28888WAT     H286907   4.798   2.979   5.197
28889WAT      O86908   5.869   5.151   1.663
28889WAT     H186909   5.954   5.100   1.655
28889WAT     H286910   5.854   5.177   1.759
28890WAT      O86911   1.494   0.705   0.319
28890WAT     H186912   1.579   0.659   0.342
28890WAT     H286913   1.473   0.691   0.222
28891WAT      O86914   6.876   4.972   8.822
28891WAT     H186915   6.915   4.996   8.733
28891WAT     H286916   6.930   4.898   8.863
28892WAT      O86917   3.189   8.836   5.130
28892WAT     H186918   3.162   8.742   5.111
28892WAT     H286919   3.154   8.864   5.219
28893WAT      O86920   6.834   9.273   4.347
28893WAT     H186921   6.884   9.340   4.292
28893WAT     H286922   6.854   9.181   4.315
28894WAT      O86923   6.761   5.694   8.393
28894WAT     H186924   6.811   5.757   8.334
28894WAT     H286925   6.666   5.689   8.363
28895WAT      O86926   3.021   1.042   6.263
28895WAT     H186927   3.100   0.987   6.291
28895WAT     H286928   2.985   1.090   6.342
28896WAT      O86929   2.668   7.511   5.217
28896WAT     H186930   2.723   7.489   5.297
28896WAT     H286931   2.724   7.560   5.150
28897WAT      O86932   4.519   8.484   5.553
28897WAT     H186933   4.597   8.544   5.570
28897WAT     H286934   4.537   8.430   5.470
28898WAT      O86935   5.006   8.258   7.767
28898WAT     H186936   4.997   8.357   7.763
28898WAT     H286937   4.939   8.215   7.707
28899WAT      O86938   0.504   3.250   8.252
28899WAT     H186939   0.410   3.234   8.280
28899WAT     H286940   0.515   3.346   8.225
28900WAT      O86941   8.049   9.212   5.858
28900WAT     H186942   8.043   9.284   5.927
28900WAT     H286943   7.970   9.152   5.867
28901WAT      O86944   3.855   0.679   3.995
28901WAT     H186945   3.803   0.683   4.080
28901WAT     H286946   3.903   0.592   3.989
28902WAT      O86947   7.128   9.383   6.340
28902WAT     H186948   7.207   9.404   6.398
28902WAT     H286949   7.153   9.311   6.275
28903WAT      O86950   1.426   2.959   1.052
28903WAT     H186951   1.351   2.893   1.056
28903WAT     H286952   1.510   2.915   1.084
28904WAT      O86953   5.739   8.065   2.877
28904WAT     H186954   5.760   7.979   2.830
28904WAT     H286955   5.675   8.119   2.821
28905WAT      O86956   2.868   6.492   2.644
28905WAT     H186957   2.891   6.402   2.607
28905WAT     H286958   2.886   6.562   2.575
28906WAT      O86959   2.374   8.840   8.232
28906WAT     H186960   2.385   8.771   8.160
28906WAT     H286961   2.294   8.818   8.287
28907WAT      O86962   3.547   6.966   8.749
28907WAT     H186963   3.583   6.876   8.723
28907WAT     H286964   3.457   6.955   8.791
28908WAT      O86965   1.091   6.423   5.405
28908WAT     H186966   1.008   6.377   5.375
28908WAT     H286967   1.067   6.503   5.461
28909WAT      O86968   2.306   6.709   3.445
28909WAT     H186969   2.279   6.703   3.541
28909WAT     H286970   2.385   6.649   3.429
28910WAT      O86971   0.321   4.957   2.299
28910WAT     H186972   0.243   5.019   2.312
28910WAT     H286973   0.400   5.011   2.270
28911WAT      O86974   6.236   2.000   3.175
28911WAT     H186975   6.305   2.023   3.107
28911WAT     H286976   6.274   1.937   3.242
28912WAT      O86977   2.517   0.111   6.240
28912WAT     H186978   2.611   0.145   6.247
28912WAT     H286979   2.465   0.143   6.319
28913WAT      O86980   0.713   8.529   2.997
28913WAT     H186981   0.634   8.581   3.027
28913WAT     H286982   0.746   8.565   2.909
28914WAT      O86983   0.081   9.647   2.217
28914WAT     H186984   0.064   9.558   2.259
28914WAT     H286985   0.171   9.680   2.244
28915WAT      O86986   8.238   5.475   7.359
28915WAT     H186987   8.140   5.481   7.340
28915WAT     H286988   8.274   5.389   7.323
28916WAT      O86989   1.164   9.832   1.644
28916WAT     H186990   1.204   9.820   1.735
28916WAT     H286991   1.099   9.907   1.645
28917WAT      O86992   2.976   6.371   4.434
28917WAT     H186993   3.057   6.426   4.456
28917WAT     H286994   2.953   6.382   4.337
28918WAT      O86995   4.126   3.617   6.610
28918WAT     H186996   4.126   3.702   6.663
28918WAT     H286997   4.184   3.629   6.529
28919WAT      O86998   0.937   8.260   0.658
28919WAT     H186999   0.852   8.213   0.684
28919WAT     H287000   0.999   8.195   0.615
28920WAT      O87001   7.644   9.289   2.820
28920WAT     H187002   7.653   9.282   2.721
28920WAT     H287003   7.568   9.350   2.842
28921WAT      O87004   0.969   3.785   7.188
28921WAT     H187005   0.939   3.879   7.199
28921WAT     H287006   0.889   3.724   7.187
28922WAT      O87007   8.911   2.970   8.783
28922WAT     H187008   8.897   2.871   8.780
28922WAT     H287009   8.996   2.993   8.735
28923WAT      O87010   4.542   9.399   5.776
28923WAT     H187011   4.524   9.349   5.691
28923WAT     H287012   4.603   9.476   5.757
28924WAT      O87013   5.929   9.063   7.285
28924WAT     H187014   5.996   8.990   7.273
28924WAT     H287015   5.974   9.151   7.266
28925WAT      O87016   0.477   4.023   5.412
28925WAT     H187017   0.414   4.035   5.335
28925WAT     H287018   0.491   3.926   5.428
28926WAT      O87019   7.090   9.616   2.919
28926WAT     H187020   7.112   9.650   3.010
28926WAT     H287021   7.139   9.670   2.851
28927WAT      O87022   2.224   1.997   1.912
28927WAT     H187023   2.305   1.968   1.862
28927WAT     H287024   2.158   2.038   1.849
28928WAT      O87025   0.207   3.862   1.267
28928WAT     H187026   0.269   3.820   1.334
28928WAT     H287027   0.161   3.791   1.215
28929WAT      O87028   3.095   7.960   5.199
28929WAT     H187029   3.114   8.057   5.187
28929WAT     H287030   3.031   7.929   5.128
28930WAT      O87031   5.616   5.376   5.868
28930WAT     H187032   5.576   5.310   5.932
28930WAT     H287033   5.692   5.424   5.912
28931WAT      O87034   9.856   1.261   2.379
28931WAT     H187035   9.779   1.210   2.418
28931WAT     H287036   9.940   1.209   2.391
28932WAT      O87037   1.654   3.939   4.114
28932WAT     H187038   1.619   4.021   4.160
28932WAT     H287039   1.577   3.881   4.088
28933WAT      O87040   4.187   0.975   3.251
28933WAT     H187041   4.165   0.907   3.181
28933WAT     H287042   4.278   1.012   3.235
28934WAT      O87043   6.520   7.301   3.893
28934WAT     H187044   6.530   7.283   3.795
28934WAT     H287045   6.463   7.229   3.934
28935WAT      O87046   6.216   9.569   7.736
28935WAT     H187047   6.224   9.593   7.639
28935WAT     H287048   6.167   9.641   7.784
28936WAT      O87049   0.539   8.568   1.771
28936WAT     H187050   0.496   8.533   1.688
28936WAT     H287051   0.502   8.659   1.791
28937WAT      O87052   2.975   9.447   7.373
28937WAT     H187053   2.886   9.420   7.411
28937WAT     H287054   2.977   9.545   7.358
28938WAT      O87055   3.992   2.185   4.021
28938WAT     H187056   4.047   2.169   4.103
28938WAT     H287057   3.987   2.101   3.967
28939WAT      O87058   0.453   7.520   0.828
28939WAT     H187059   0.521   7.472   0.883
28939WAT     H287060   0.464   7.618   0.839
28940WAT      O87061   5.442   4.311   2.835
28940WAT     H187062   5.477   4.218   2.848
28940WAT     H287063   5.403   4.319   2.743
28941WAT      O87064   1.697   8.042   1.884
28941WAT     H187065   1.753   8.124   1.876
28941WAT     H287066   1.613   8.064   1.935
28942WAT      O87067   8.597   1.529   3.653
28942WAT     H187068   8.689   1.509   3.617
28942WAT     H287069   8.559   1.607   3.604
28943WAT      O87070   2.530   9.183   0.557
28943WAT     H187071   2.563   9.231   0.476
28943WAT     H287072   2.596   9.195   0.632
28944WAT      O87073   8.120   5.444   1.233
28944WAT     H187074   8.202   5.467   1.286
28944WAT     H287075   8.139   5.454   1.135
28945WAT      O87076   3.329   7.303   8.470
28945WAT     H187077   3.251   7.330   8.525
28945WAT     H287078   3.338   7.203   8.470
28946WAT      O87079   9.199   5.378   3.011
28946WAT     H187080   9.105   5.369   2.977
28946WAT     H287081   9.209   5.463   3.061
28947WAT      O87082   8.605   4.091   2.345
28947WAT     H187083   8.654   4.123   2.264
28947WAT     H287084   8.507   4.097   2.329
28948WAT      O87085   5.280   9.595   8.820
28948WAT     H187086   5.217   9.665   8.852
28948WAT     H287087   5.257   9.507   8.862
28949WAT      O87088   9.142   3.109   3.872
28949WAT     H187089   9.167   3.058   3.790
28949WAT     H287090   9.223   3.157   3.907
28950WAT      O87091   1.419   7.395   6.177
28950WAT     H187092   1.394   7.308   6.133
28950WAT     H287093   1.464   7.375   6.264
28951WAT      O87094   2.507   8.650   6.364
28951WAT     H187095   2.509   8.698   6.276
28951WAT     H287096   2.519   8.552   6.349
28952WAT      O87097   8.049   5.737   2.260
28952WAT     H187098   8.136   5.738   2.210
28952WAT     H287099   7.982   5.793   2.211
28953WAT      O87100   8.431   6.738   4.518
28953WAT     H187101   8.515   6.685   4.503
28953WAT     H287102   8.387   6.756   4.430
28954WAT      O87103   7.694   4.664   9.613
28954WAT     H187104   7.663   4.571   9.633
28954WAT     H287105   7.722   4.708   9.698
28955WAT      O87106   4.930   0.285   1.015
28955WAT     H187107   4.861   0.277   1.087
28955WAT     H287108   4.885   0.282   0.925
28956WAT      O87109   6.974   3.945   5.284
28956WAT     H187110   6.996   3.978   5.192
28956WAT     H287111   7.000   3.849   5.292
28957WAT      O87112   4.798   0.340   9.498
28957WAT     H187113   4.831   0.431   9.524
28957WAT     H287114   4.712   0.321   9.544
28958WAT      O87115   0.730   1.274   1.640
28958WAT     H187116   0.815   1.297   1.592
28958WAT     H287117   0.724   1.175   1.652
28959WAT      O87118   0.984   0.334   6.370
28959WAT     H187119   1.075   0.365   6.345
28959WAT     H287120   0.923   0.412   6.379
28960WAT      O87121   2.427   6.449   4.792
28960WAT     H187122   2.347   6.456   4.733
28960WAT     H287123   2.485   6.530   4.779
28961WAT      O87124   4.509   0.501   4.610
28961WAT     H187125   4.585   0.506   4.676
28961WAT     H287126   4.452   0.422   4.632
28962WAT      O87127   2.493   7.781   5.468
28962WAT     H187128   2.468   7.703   5.410
28962WAT     H287129   2.477   7.866   5.418
28963WAT      O87130   6.448   9.702   8.817
28963WAT     H187131   6.515   9.636   8.783
28963WAT     H287132   6.464   9.719   8.915
28964WAT      O87133   1.555   8.843   0.730
28964WAT     H187134   1.639   8.808   0.688
28964WAT     H287135   1.501   8.767   0.765
28965WAT      O87136   9.425   5.547   7.288
28965WAT     H187137   9.497   5.604   7.247
28965WAT     H287138   9.459   5.508   7.374
28966WAT      O87139   0.335   0.031   6.321
28966WAT     H187140   0.300   0.100   6.385
28966WAT     H287141   0.325  -0.059   6.361
28967WAT      O87142   2.448   1.361   1.702
28967WAT     H187143   2.545   1.378   1.685
28967WAT     H287144   2.393   1.423   1.646
28968WAT      O87145   7.366   1.870   1.260
28968WAT     H187146   7.399   1.914   1.344
28968WAT     H287147   7.267   1.884   1.251
28969WAT      O87148   3.937   1.376   9.056
28969WAT     H187149   4.035   1.377   9.035
28969WAT     H287150   3.894   1.296   9.014
28970WAT      O87151   3.563   3.261   2.456
28970WAT     H187152   3.550   3.166   2.430
28970WAT     H287153   3.509   3.320   2.396
28971WAT      O87154   6.137   5.566   1.615
28971WAT     H187155   6.118   5.659   1.647
28971WAT     H287156   6.051   5.522   1.590
28972WAT      O87157   0.257   1.117   7.904
28972WAT     H187158   0.206   1.103   7.989
28972WAT     H287159   0.193   1.125   7.828
28973WAT      O87160   0.146   8.626   3.653
28973WAT     H187161   0.198   8.700   3.610
28973WAT     H287162   0.188   8.603   3.742
28974WAT      O87163   3.811   1.993   0.627
28974WAT     H187164   3.771   2.077   0.662
28974WAT     H287165   3.907   2.008   0.604
28975WAT      O87166   3.172   3.911   7.682
28975WAT     H187167   3.228   3.828   7.673
28975WAT     H287168   3.080   3.885   7.709
28976WAT      O87169   5.716   4.819   2.176
28976WAT     H187170   5.716   4.798   2.078
28976WAT     H287171   5.697   4.916   2.190
28977WAT      O87172   9.646   3.157   6.192
28977WAT     H187173   9.547   3.160   6.180
28977WAT     H287174   9.668   3.189   6.284
28978WAT      O87175   2.660   2.903   7.853
28978WAT     H187176   2.581   2.897   7.791
28978WAT     H287177   2.696   2.997   7.852
28979WAT      O87178   8.487   6.632   7.566
28979WAT     H187179   8.452   6.632   7.660
28979WAT     H287180   8.501   6.726   7.536
28980WAT      O87181   4.676   1.537   4.312
28980WAT     H187182   4.758   1.513   4.261
28980WAT     H287183   4.620   1.600   4.259
28981WAT      O87184   1.983   4.911   4.636
28981WAT     H187185   1.893   4.933   4.598
28981WAT     H287186   1.978   4.909   4.735
28982WAT      O87187   0.569   1.434   7.626
28982WAT     H187188   0.523   1.522   7.615
28982WAT     H287189   0.548   1.376   7.547
28983WAT      O87190   7.367   5.934   3.654
28983WAT     H187191   7.368   6.032   3.672
28983WAT     H287192   7.455   5.894   3.679
28984WAT      O87193   4.745   5.245   8.266
28984WAT     H187194   4.778   5.173   8.206
28984WAT     H287195   4.823   5.300   8.297
28985WAT      O87196   4.285   1.779   1.468
28985WAT     H187197   4.260   1.842   1.394
28985WAT     H287198   4.263   1.820   1.556
28986WAT      O87199   4.592   2.700   2.023
28986WAT     H187200   4.640   2.717   1.936
28986WAT     H287201   4.494   2.707   2.008
28987WAT      O87202   5.904   3.615   7.143
28987WAT     H187203   5.913   3.540   7.209
28987WAT     H287204   5.965   3.690   7.170
28988WAT      O87205   0.024   9.213   0.976
28988WAT     H187206  -0.032   9.232   0.895
28988WAT     H287207  -0.010   9.132   1.023
28989WAT      O87208   3.200   5.319   9.432
28989WAT     H187209   3.186   5.246   9.498
28989WAT     H287210   3.111   5.349   9.396
28990WAT      O87211   7.973   2.725   5.317
28990WAT     H187212   7.877   2.752   5.310
28990WAT     H287213   8.002   2.682   5.232
28991WAT      O87214   8.930   5.302   8.453
28991WAT     H187215   9.014   5.265   8.413
28991WAT     H287216   8.855   5.239   8.435
28992WAT      O87217   6.808   3.482   6.399
28992WAT     H187218   6.831   3.413   6.468
28992WAT     H287219   6.717   3.518   6.418
28993WAT      O87220   1.739   5.113   0.428
28993WAT     H187221   1.705   5.021   0.409
28993WAT     H287222   1.673   5.180   0.396
28994WAT      O87223   3.333   1.561   2.370
28994WAT     H187224   3.240   1.535   2.394
28994WAT     H287225   3.355   1.649   2.412
28995WAT      O87226   6.033   9.472   7.950
28995WAT     H187227   6.132   9.464   7.951
28995WAT     H287228   5.992   9.390   7.992
28996WAT      O87229   9.442   7.813   5.767
28996WAT     H187230   9.344   7.792   5.764
28996WAT     H287231   9.458   7.890   5.830
28997WAT      O87232   3.231   7.753   2.265
28997WAT     H187233   3.244   7.797   2.354
28997WAT     H287234   3.140   7.711   2.261
28998WAT      O87235   4.613   6.584   0.307
28998WAT     H187236   4.607   6.653   0.234
28998WAT     H287237   4.708   6.575   0.336
28999WAT      O87238   3.903   5.838   4.327
28999WAT     H187239   3.811   5.805   4.303
28999WAT     H287240   3.898   5.894   4.409
29000WAT      O87241   7.583   6.368   7.941
29000WAT     H187242   7.580   6.437   8.014
29000WAT     H287243   7.602   6.413   7.854
29001WAT      O87244   7.032   0.159   3.585
29001WAT     H187245   7.100   0.230   3.568
29001WAT     H287246   6.943   0.201   3.605
29002WAT      O87247   3.310   7.472   7.223
29002WAT     H187248   3.349   7.432   7.306
29002WAT     H287249   3.231   7.418   7.194
29003WAT      O87250   1.706   2.804   0.305
29003WAT     H187251   1.669   2.826   0.396
29003WAT     H287252   1.743   2.887   0.263
29004WAT      O87253   3.623   1.999   8.566
29004WAT     H187254   3.702   1.994   8.626
29004WAT     H287255   3.539   1.988   8.620
29005WAT      O87256   4.529   2.285   6.045
29005WAT     H187257   4.571   2.205   6.087
29005WAT     H287258   4.438   2.300   6.085
29006WAT      O87259   4.877   0.582   4.585
29006WAT     H187260   4.834   0.550   4.501
29006WAT     H287261   4.806   0.609   4.650
29007WAT      O87262   9.790   9.096   8.188
29007WAT     H187263   9.717   9.046   8.142
29007WAT     H287264   9.871   9.037   8.197
29008WAT      O87265   7.075   1.478   4.953
29008WAT     H187266   7.043   1.549   5.017
29008WAT     H287267   7.029   1.489   4.865
29009WAT      O87268   3.807   6.189   9.541
29009WAT     H187269   3.755   6.126   9.600
29009WAT     H287270   3.744   6.235   9.478
29010WAT      O87271   2.020   4.141   0.546
29010WAT     H187272   1.991   4.108   0.636
29010WAT     H287273   1.944   4.187   0.501
29011WAT      O87274   8.170   6.226   7.544
29011WAT     H187275   8.255   6.173   7.540
29011WAT     H287276   8.191   6.320   7.569
29012WAT      O87277   1.517   4.905   6.714
29012WAT     H187278   1.431   4.867   6.747
29012WAT     H287279   1.498   4.971   6.641
29013WAT      O87280   3.179   8.432   6.988
29013WAT     H187281   3.115   8.508   6.979
29013WAT     H287282   3.244   8.434   6.912
29014WAT      O87283   8.518   3.591   0.971
29014WAT     H187284   8.435   3.620   1.019
29014WAT     H287285   8.492   3.546   0.885
29015WAT      O87286   2.134   9.014   6.663
29015WAT     H187287   2.182   8.940   6.614
29015WAT     H287288   2.180   9.101   6.645
29016WAT      O87289   4.896   6.171   8.970
29016WAT     H187290   4.957   6.156   9.047
29016WAT     H287291   4.855   6.262   8.976
29017WAT      O87292   7.493   4.466   8.284
29017WAT     H187293   7.579   4.462   8.336
29017WAT     H287294   7.470   4.561   8.266
29018WAT      O87295   2.053   7.860   4.775
29018WAT     H187296   1.978   7.925   4.786
29018WAT     H287297   2.044   7.814   4.686
29019WAT      O87298   7.180   3.672   3.173
29019WAT     H187299   7.193   3.754   3.118
29019WAT     H287300   7.250   3.668   3.244
29020WAT      O87301   9.561   0.559   2.350
29020WAT     H187302   9.529   0.563   2.256
29020WAT     H287303   9.510   0.489   2.400
29021WAT      O87304   1.275   3.547   3.288
29021WAT     H187305   1.300   3.464   3.339
29021WAT     H287306   1.349   3.569   3.224
29022WAT      O87307   4.939   0.672   7.585
29022WAT     H187308   4.963   0.736   7.511
29022WAT     H287309   4.997   0.590   7.577
29023WAT      O87310   9.784   2.432   4.982
29023WAT     H187311   9.779   2.472   5.074
29023WAT     H287312   9.721   2.481   4.921
29024WAT      O87313   0.100   5.142   1.923
29024WAT     H187314   0.054   5.210   1.866
29024WAT     H287315   0.046   5.124   2.004
29025WAT      O87316   4.084   9.818   4.690
29025WAT     H187317   4.119   9.841   4.781
29025WAT     H287318   4.107   9.892   4.626
29026WAT      O87319   3.873   2.211   2.709
29026WAT     H187320   3.830   2.128   2.746
29026WAT     H287321   3.949   2.238   2.768
29027WAT      O87322   3.146   1.687   7.491
29027WAT     H187323   3.193   1.689   7.403
29027WAT     H287324   3.194   1.624   7.552
29028WAT      O87325   6.304   6.838   1.479
29028WAT     H187326   6.313   6.825   1.380
29028WAT     H287327   6.322   6.934   1.501
29029WAT      O87328   5.548   8.256   0.422
29029WAT     H187329   5.622   8.276   0.359
29029WAT     H287330   5.467   8.227   0.371
29030WAT      O87331   6.263   8.786   5.180
29030WAT     H187332   6.288   8.695   5.148
29030WAT     H287333   6.277   8.852   5.107
29031WAT      O87334   7.612   7.146   9.012
29031WAT     H187335   7.540   7.203   8.971
29031WAT     H287336   7.700   7.168   8.969
29032WAT      O87337   3.596   9.702   7.716
29032WAT     H187338   3.510   9.719   7.764
29032WAT     H287339   3.607   9.604   7.701
29033WAT      O87340   7.436   8.109   3.962
29033WAT     H187341   7.430   8.039   3.890
29033WAT     H287342   7.527   8.106   4.003
29034WAT      O87343   7.155   4.931   9.586
29034WAT     H187344   7.155   4.973   9.677
29034WAT     H287345   7.228   4.971   9.531
29035WAT      O87346   7.141   1.097   4.554
29035WAT     H187347   7.150   1.009   4.600
29035WAT     H287348   7.067   1.150   4.595
29036WAT      O87349   3.672   7.916   9.329
29036WAT     H187350   3.610   7.853   9.376
29036WAT     H287351   3.683   7.888   9.234
29037WAT      O87352   2.846   4.317   5.976
29037WAT     H187353   2.871   4.222   5.989
29037WAT     H287354   2.906   4.376   6.030
29038WAT      O87355   1.937   9.365   1.781
29038WAT     H187356   1.888   9.432   1.726
29038WAT     H287357   1.996   9.310   1.722
29039WAT      O87358   8.954   5.267   9.118
29039WAT     H187359   8.915   5.175   9.108
29039WAT     H287360   9.042   5.261   9.165
29040WAT      O87361   7.244   8.500   0.960
29040WAT     H187362   7.252   8.463   0.868
29040WAT     H287363   7.330   8.486   1.009
29041WAT      O87364   6.712   6.351   1.960
29041WAT     H187365   6.711   6.251   1.969
29041WAT     H287366   6.661   6.377   1.878
29042WAT      O87367   1.017   2.225   2.792
29042WAT     H187368   1.111   2.220   2.760
29042WAT     H287369   1.014   2.275   2.878
29043WAT      O87370   1.898   0.981   8.112
29043WAT     H187371   1.876   0.992   8.015
29043WAT     H287372   1.997   0.971   8.122
29044WAT      O87373   6.080   2.672   5.787
29044WAT     H187374   6.160   2.730   5.804
29044WAT     H287375   6.053   2.681   5.691
29045WAT      O87376   3.736   5.297   4.536
29045WAT     H187377   3.678   5.236   4.483
29045WAT     H287378   3.687   5.325   4.620
29046WAT      O87379   3.972   3.164   3.276
29046WAT     H187380   3.903   3.100   3.311
29046WAT     H287381   3.950   3.189   3.182
29047WAT      O87382   4.824   6.366   7.362
29047WAT     H187383   4.829   6.266   7.358
29047WAT     H287384   4.907   6.405   7.322
29048WAT      O87385   4.143   0.311   9.026
29048WAT     H187386   4.201   0.254   8.967
29048WAT     H287387   4.179   0.309   9.120
29049WAT      O87388   5.373   6.467   3.405
29049WAT     H187389   5.409   6.374   3.392
29049WAT     H287390   5.417   6.508   3.485
29050WAT      O87391   0.572   6.790   9.450
29050WAT     H187392   0.647   6.849   9.418
29050WAT     H287393   0.556   6.717   9.383
29051WAT      O87394   2.993   0.398   4.780
29051WAT     H187395   3.012   0.459   4.857
29051WAT     H287396   2.967   0.453   4.700
29052WAT      O87397   0.883   5.216   8.943
29052WAT     H187398   0.955   5.283   8.925
29052WAT     H287399   0.794   5.261   8.937
29053WAT      O87400   7.544   7.647   6.521
29053WAT     H187401   7.449   7.625   6.503
29053WAT     H287402   7.575   7.718   6.458
29054WAT      O87403   9.261   2.679   6.945
29054WAT     H187404   9.235   2.657   7.039
29054WAT     H287405   9.331   2.751   6.945
29055WAT      O87406   9.288   0.897   9.221
29055WAT     H187407   9.298   0.803   9.188
29055WAT     H287408   9.259   0.955   9.145
29056WAT      O87409   3.431   9.198   1.959
29056WAT     H187410   3.528   9.178   1.949
29056WAT     H287411   3.416   9.296   1.946
29057WAT      O87412   7.545   2.226   8.628
29057WAT     H187413   7.643   2.211   8.618
29057WAT     H287414   7.509   2.271   8.546
29058WAT      O87415   8.462   3.385   1.292
29058WAT     H187416   8.393   3.434   1.238
29058WAT     H287417   8.533   3.449   1.322
29059WAT      O87418   7.245   9.535   7.610
29059WAT     H187419   7.210   9.504   7.522
29059WAT     H287420   7.326   9.592   7.596
29060WAT      O87421   1.212   4.356   9.720
29060WAT     H187422   1.155   4.340   9.639
29060WAT     H287423   1.165   4.320   9.801
29061WAT      O87424   0.265   0.367   2.137
29061WAT     H187425   0.185   0.424   2.122
29061WAT     H287426   0.347   0.424   2.142
29062WAT      O87427   1.848   4.850   0.611
29062WAT     H187428   1.766   4.870   0.558
29062WAT     H287429   1.881   4.758   0.588
29063WAT      O87430   3.135   7.453   2.714
29063WAT     H187431   3.104   7.445   2.619
29063WAT     H287432   3.081   7.392   2.772
29064WAT      O87433   1.632   9.254   4.547
29064WAT     H187434   1.671   9.164   4.529
29064WAT     H287435   1.559   9.273   4.481
29065WAT      O87436   5.856   8.476   9.081
29065WAT     H187437   5.883   8.468   9.177
29065WAT     H287438   5.770   8.527   9.075
29066WAT      O87439   1.176   9.415   4.065
29066WAT     H187440   1.215   9.338   4.114
29066WAT     H287441   1.117   9.381   3.991
29067WAT      O87442   2.977   0.904   0.618
29067WAT     H187443   2.881   0.910   0.589
29067WAT     H287444   3.027   0.983   0.583
29068WAT      O87445   2.961   3.545   7.596
29068WAT     H187446   3.002   3.602   7.525
29068WAT     H287447   2.996   3.572   7.685
29069WAT      O87448   4.655   2.885   8.769
29069WAT     H187449   4.750   2.901   8.743
29069WAT     H287450   4.652   2.818   8.843
29070WAT      O87451   5.474   0.141   3.524
29070WAT     H187452   5.412   0.189   3.586
29070WAT     H287453   5.450   0.162   3.429
29071WAT      O87454   0.097   7.139   1.435
29071WAT     H187455   0.037   7.060   1.445
29071WAT     H287456   0.193   7.110   1.439
29072WAT      O87457   5.809   7.810   7.833
29072WAT     H187458   5.769   7.865   7.759
29072WAT     H287459   5.905   7.794   7.814
29073WAT      O87460   9.559   0.034   0.590
29073WAT     H187461   9.591  -0.004   0.676
29073WAT     H287462   9.459   0.036   0.590
29074WAT      O87463   9.113   8.333   8.775
29074WAT     H187464   9.038   8.281   8.735
29074WAT     H287465   9.105   8.429   8.749
29075WAT      O87466   0.602   6.677   7.741
29075WAT     H187467   0.696   6.711   7.735
29075WAT     H287468   0.566   6.695   7.833
29076WAT      O87469   6.684   4.536   8.223
29076WAT     H187470   6.683   4.618   8.167
29076WAT     H287471   6.666   4.456   8.165
29077WAT      O87472   0.054   6.281   6.193
29077WAT     H187473   0.091   6.214   6.257
29077WAT     H287474  -0.001   6.235   6.124
29078WAT      O87475   6.393   4.386   8.246
29078WAT     H187476   6.457   4.371   8.321
29078WAT     H287477   6.443   4.388   8.160
29079WAT      O87478   4.971   7.690   6.004
29079WAT     H187479   4.935   7.636   5.929
29079WAT     H287480   5.060   7.653   6.032
29080WAT      O87481   0.076   7.611   8.606
29080WAT     H187482   0.096   7.554   8.526
29080WAT     H287483   0.153   7.607   8.669
29081WAT      O87484   4.470   2.992   4.488
29081WAT     H187485   4.424   3.080   4.479
29081WAT     H287486   4.568   3.007   4.503
29082WAT      O87487   9.354   4.538   9.024
29082WAT     H187488   9.437   4.522   9.078
29082WAT     H287489   9.354   4.632   8.991
29083WAT      O87490   1.689   4.493   6.906
29083WAT     H187491   1.730   4.432   6.838
29083WAT     H287492   1.589   4.486   6.901
29084WAT      O87493   1.655   7.662   5.957
29084WAT     H187494   1.678   7.749   5.915
29084WAT     H287495   1.637   7.675   6.055
29085WAT      O87496   1.242   8.433   4.306
29085WAT     H187497   1.157   8.430   4.253
29085WAT     H287498   1.316   8.468   4.248
29086WAT      O87499   6.494   9.384   7.113
29086WAT     H187500   6.431   9.356   7.040
29086WAT     H287501   6.549   9.461   7.081
29087WAT      O87502   6.989   2.348   3.831
29087WAT     H187503   6.985   2.251   3.808
29087WAT     H287504   6.960   2.402   3.752
29088WAT      O87505   6.848   7.009   4.934
29088WAT     H187506   6.947   7.010   4.946
29088WAT     H287507   6.814   7.103   4.930
29089WAT      O87508   8.836   1.591   4.189
29089WAT     H187509   8.842   1.521   4.119
29089WAT     H287510   8.745   1.589   4.230
29090WAT      O87511   3.256   3.657   2.078
29090WAT     H187512   3.271   3.617   2.169
29090WAT     H287513   3.158   3.663   2.060
29091WAT      O87514   8.901   1.088   4.787
29091WAT     H187515   8.940   1.176   4.761
29091WAT     H287516   8.825   1.065   4.726
29092WAT      O87517   3.650   5.050   6.536
29092WAT     H187518   3.637   5.050   6.437
29092WAT     H287519   3.576   4.998   6.579
29093WAT      O87520   2.203   4.160   8.034
29093WAT     H187521   2.116   4.209   8.043
29093WAT     H287522   2.237   4.136   8.124
29094WAT      O87523   6.838   7.520   9.536
29094WAT     H187524   6.901   7.537   9.612
29094WAT     H287525   6.882   7.544   9.450
29095WAT      O87526   4.470  -0.000   9.167
29095WAT     H187527   4.484  -0.024   9.263
29095WAT     H287528   4.442   0.096   9.161
29096WAT      O87529   1.775   8.106   0.383
29096WAT     H187530   1.689   8.076   0.424
29096WAT     H287531   1.829   8.157   0.451
29097WAT      O87532   8.497   9.798   2.235
29097WAT     H187533   8.424   9.757   2.290
29097WAT     H287534   8.496   9.759   2.143
29098WAT      O87535   5.089   5.224   8.741
29098WAT     H187536   5.100   5.255   8.646
29098WAT     H287537   5.165   5.163   8.764
29099WAT      O87538   8.955   5.500   8.202
29099WAT     H187539   8.930   5.414   8.158
29099WAT     H287540   8.933   5.576   8.141
29100WAT      O87541   6.524   2.570   6.682
29100WAT     H187542   6.506   2.550   6.779
29100WAT     H287543   6.606   2.627   6.675
29101WAT      O87544   4.441   6.531   9.629
29101WAT     H187545   4.372   6.466   9.596
29101WAT     H287546   4.452   6.604   9.562
29102WAT      O87547   9.843   3.381   4.358
29102WAT     H187548   9.857   3.307   4.424
29102WAT     H287549   9.866   3.348   4.267
29103WAT      O87550   6.524   5.684   2.419
29103WAT     H187551   6.502   5.647   2.510
29103WAT     H287552   6.439   5.715   2.375
29104WAT      O87553   2.733   9.800   1.787
29104WAT     H187554   2.689   9.877   1.740
29104WAT     H287555   2.720   9.810   1.886
29105WAT      O87556   9.270   7.867   6.088
29105WAT     H187557   9.330   7.946   6.083
29105WAT     H287558   9.208   7.867   6.009
29106WAT      O87559   7.339   7.837   6.056
29106WAT     H187560   7.426   7.789   6.065
29106WAT     H287561   7.272   7.796   6.119
29107WAT      O87562   5.989   4.663   9.179
29107WAT     H187563   5.909   4.622   9.222
29107WAT     H287564   5.983   4.763   9.184
29108WAT      O87565   6.351   9.166   0.734
29108WAT     H187566   6.262   9.137   0.698
29108WAT     H287567   6.342   9.186   0.831
29109WAT      O87568   6.970   6.561   6.492
29109WAT     H187569   7.040   6.621   6.530
29109WAT     H287570   6.880   6.587   6.528
29110WAT      O87571   8.711   2.934   0.723
29110WAT     H187572   8.709   2.834   0.713
29110WAT     H287573   8.751   2.958   0.811
29111WAT      O87574   9.327   6.058   3.370
29111WAT     H187575   9.288   6.126   3.432
29111WAT     H287576   9.259   6.032   3.302
29112WAT      O87577   0.138   4.499   0.670
29112WAT     H187578   0.117   4.463   0.579
29112WAT     H287579   0.055   4.505   0.724
29113WAT      O87580   9.514   7.864   6.574
29113WAT     H187581   9.589   7.807   6.542
29113WAT     H287582   9.428   7.832   6.534
29114WAT      O87583   1.435   2.271   3.409
29114WAT     H187584   1.402   2.178   3.393
29114WAT     H287585   1.512   2.268   3.473
29115WAT      O87586   4.613   0.907   8.833
29115WAT     H187587   4.711   0.906   8.851
29115WAT     H287588   4.565   0.860   8.907
29116WAT      O87589   6.573   1.447   8.147
29116WAT     H187590   6.566   1.347   8.145
29116WAT     H287591   6.654   1.475   8.096
29117WAT      O87592   6.872   5.997   0.233
29117WAT     H187593   6.850   5.929   0.163
29117WAT     H287594   6.873   6.088   0.191
29118WAT      O87595   1.079   0.773   4.154
29118WAT     H187596   1.012   0.704   4.126
29118WAT     H287597   1.031   0.859   4.172
29119WAT      O87598   7.413   6.284   8.331
29119WAT     H187599   7.352   6.355   8.297
29119WAT     H287600   7.422   6.211   8.263
29120WAT      O87601   3.690   7.077   9.017
29120WAT     H187602   3.650   7.169   9.022
29120WAT     H287603   3.620   7.012   8.988
29121WAT      O87604   5.941   7.760   8.193
29121WAT     H187605   5.929   7.823   8.115
29121WAT     H287606   5.851   7.728   8.224
29122WAT      O87607   4.684   4.642   0.000
29122WAT     H187608   4.625   4.562   0.005
29122WAT     H287609   4.779   4.613  -0.005
29123WAT      O87610   0.325   1.232   9.467
29123WAT     H187611   0.239   1.219   9.516
29123WAT     H287612   0.392   1.276   9.527
29124WAT      O87613   6.662   2.407   2.537
29124WAT     H187614   6.606   2.371   2.611
29124WAT     H287615   6.691   2.500   2.559
29125WAT      O87616   7.476   6.140   9.353
29125WAT     H187617   7.413   6.080   9.304
29125WAT     H287618   7.513   6.208   9.291
29126WAT      O87619   7.592   3.827   5.415
29126WAT     H187620   7.570   3.898   5.348
29126WAT     H287621   7.689   3.831   5.438
29127WAT      O87622   0.024   3.686   4.545
29127WAT     H187623  -0.046   3.625   4.582
29127WAT     H287624   0.015   3.776   4.586
29128WAT      O87625   2.646   9.394   8.495
29128WAT     H187626   2.605   9.479   8.528
29128WAT     H287627   2.631   9.385   8.397
29129WAT      O87628   6.234   2.459   3.869
29129WAT     H187629   6.325   2.416   3.864
29129WAT     H287630   6.222   2.522   3.793
29130WAT      O87631   8.393   3.674   4.051
29130WAT     H187632   8.350   3.649   3.964
29130WAT     H287633   8.367   3.767   4.076
29131WAT      O87634   9.670   1.284   0.617
29131WAT     H187635   9.576   1.275   0.649
29131WAT     H287636   9.719   1.348   0.676
29132WAT      O87637   9.029   1.265   9.339
29132WAT     H187638   8.993   1.297   9.251
29132WAT     H287639   9.046   1.343   9.399
29133WAT      O87640   1.161   2.894   4.877
29133WAT     H187641   1.105   2.957   4.824
29133WAT     H287642   1.206   2.942   4.951
29134WAT      O87643   4.668   1.048   6.174
29134WAT     H187644   4.617   0.962   6.177
29134WAT     H287645   4.659   1.089   6.083
29135WAT      O87646   5.843   0.179   0.124
29135WAT     H187647   5.927   0.183   0.070
29135WAT     H287648   5.789   0.261   0.107
29136WAT      O87649   2.374   7.485   1.799
29136WAT     H187650   2.297   7.494   1.736
29136WAT     H287651   2.438   7.417   1.764
29137WAT      O87652   3.740   0.677   7.535
29137WAT     H187653   3.644   0.691   7.513
29137WAT     H287654   3.776   0.759   7.580
29138WAT      O87655   0.896   8.655   9.548
29138WAT     H187656   0.894   8.736   9.606
29138WAT     H287657   0.975   8.598   9.573
29139WAT      O87658   3.637   0.067   3.325
29139WAT     H187659   3.669   0.048   3.418
29139WAT     H287660   3.628   0.165   3.313
29140WAT      O87661   0.917   0.116   0.494
29140WAT     H187662   0.962   0.136   0.407
29140WAT     H287663   0.984   0.117   0.568
29141WAT      O87664   6.614   0.834   5.211
29141WAT     H187665   6.525   0.845   5.167
29141WAT     H287666   6.662   0.757   5.169
29142WAT      O87667   5.529   6.012   2.871
29142WAT     H187668   5.500   5.926   2.913
29142WAT     H287669   5.458   6.043   2.807
29143WAT      O87670   5.307   1.277   4.778
29143WAT     H187671   5.365   1.356   4.800
29143WAT     H287672   5.306   1.214   4.856
29144WAT      O87673   1.509   4.740   2.118
29144WAT     H187674   1.591   4.701   2.077
29144WAT     H287675   1.468   4.805   2.054
29145WAT      O87676   4.157   8.117   7.293
29145WAT     H187677   4.183   8.021   7.286
29145WAT     H287678   4.237   8.175   7.272
29146WAT      O87679   9.100   4.447   2.266
29146WAT     H187680   9.024   4.400   2.311
29146WAT     H287681   9.081   4.456   2.169
29147WAT      O87682   3.694   0.838   6.188
29147WAT     H187683   3.739   0.906   6.245
29147WAT     H287684   3.726   0.747   6.213
29148WAT      O87685   6.348   3.568   3.523
29148WAT     H187686   6.357   3.537   3.428
29148WAT     H287687   6.272   3.518   3.567
29149WAT      O87688   3.974   9.749   8.912
29149WAT     H187689   4.003   9.769   9.006
29149WAT     H287690   4.054   9.731   8.856
29150WAT      O87691   5.424   2.632   5.589
29150WAT     H187692   5.347   2.691   5.611
29150WAT     H287693   5.503   2.659   5.645
29151WAT      O87694   1.697   6.299   0.143
29151WAT     H187695   1.724   6.329   0.235
29151WAT     H287696   1.683   6.200   0.144
29152WAT      O87697   1.651   1.076   4.993
29152WAT     H187698   1.562   1.060   4.949
29152WAT     H287699   1.657   1.172   5.020
29153WAT      O87700   7.778   3.801   8.288
29153WAT     H187701   7.833   3.798   8.205
29153WAT     H287702   7.696   3.745   8.276
29154WAT      O87703   6.868   2.829   1.420
29154WAT     H187704   6.822   2.872   1.498
29154WAT     H287705   6.806   2.765   1.375
29155WAT      O87706   3.182   6.662   0.328
29155WAT     H187707   3.098   6.620   0.296
29155WAT     H287708   3.258   6.638   0.267
29156WAT      O87709   6.058   3.407   1.871
29156WAT     H187710   6.154   3.425   1.892
29156WAT     H287711   6.011   3.373   1.952
29157WAT      O87712   3.625   9.281   5.676
29157WAT     H187713   3.574   9.242   5.599
29157WAT     H287714   3.694   9.216   5.706
29158WAT      O87715   0.424   5.991   3.823
29158WAT     H187716   0.480   6.042   3.888
29158WAT     H287717   0.482   5.959   3.748
29159WAT      O87718   4.583   7.222   2.718
29159WAT     H187719   4.631   7.160   2.779
29159WAT     H287720   4.485   7.220   2.738
29160WAT      O87721   5.362   2.454   2.288
29160WAT     H187722   5.348   2.362   2.251
29160WAT     H287723   5.442   2.454   2.348
29161WAT      O87724   0.065   2.863   8.432
29161WAT     H187725   0.003   2.788   8.413
29161WAT     H287726   0.086   2.865   8.530
29162WAT      O87727   0.447   7.975   5.575
29162WAT     H187728   0.509   7.965   5.498
29162WAT     H287729   0.500   7.993   5.658
29163WAT      O87730   2.542   0.330   8.477
29163WAT     H187731   2.527   0.289   8.388
29163WAT     H287732   2.508   0.269   8.549
29164WAT      O87733   7.489   4.218   8.165
29164WAT     H187734   7.469   4.297   8.223
29164WAT     H287735   7.584   4.191   8.178
29165WAT      O87736   7.597   0.330   2.398
29165WAT     H187737   7.561   0.250   2.445
29165WAT     H287738   7.663   0.301   2.328
29166WAT      O87739   6.895   1.493   3.991
29166WAT     H187740   6.954   1.495   3.910
29166WAT     H287741   6.863   1.586   4.011
29167WAT      O87742   5.172   6.071   5.702
29167WAT     H187743   5.106   6.100   5.772
29167WAT     H287744   5.198   5.976   5.717
29168WAT      O87745   3.529   7.983   4.175
29168WAT     H187746   3.573   7.953   4.090
29168WAT     H287747   3.546   7.915   4.246
29169WAT      O87748   5.926   7.153   7.783
29169WAT     H187749   5.873   7.238   7.776
29169WAT     H287750   5.919   7.101   7.698
29170WAT      O87751   0.287   5.208   1.483
29170WAT     H187752   0.291   5.308   1.477
29170WAT     H287753   0.196   5.177   1.456
29171WAT      O87754   3.361   0.215   3.049
29171WAT     H187755   3.367   0.223   2.950
29171WAT     H287756   3.386   0.121   3.076
29172WAT      O87757   3.034   5.885   5.742
29172WAT     H187758   3.109   5.951   5.747
29172WAT     H287759   3.013   5.851   5.833
29173WAT      O87760   2.741   5.020   0.354
29173WAT     H187761   2.805   4.979   0.289
29173WAT     H287762   2.714   4.951   0.422
29174WAT      O87763   0.226   9.735   9.293
29174WAT     H187764   0.309   9.753   9.241
29174WAT     H287765   0.167   9.816   9.292
29175WAT      O87766   3.594   7.456   6.097
29175WAT     H187767   3.502   7.440   6.062
29175WAT     H287768   3.604   7.553   6.122
29176WAT      O87769   6.664   4.258   0.864
29176WAT     H187770   6.698   4.285   0.954
29176WAT     H287771   6.740   4.224   0.809
29177WAT      O87772   5.413   1.564   8.442
29177WAT     H187773   5.484   1.527   8.381
29177WAT     H287774   5.456   1.604   8.522
29178WAT      O87775   6.253   2.725   2.850
29178WAT     H187776   6.293   2.634   2.842
29178WAT     H287777   6.198   2.745   2.769
29179WAT      O87778   3.003   4.344   0.847
29179WAT     H187779   2.910   4.346   0.812
29179WAT     H287780   3.064   4.300   0.781
29180WAT      O87781   3.116   3.114   4.420
29180WAT     H187782   3.088   3.056   4.497
29180WAT     H287783   3.143   3.055   4.344
29181WAT      O87784   9.802   7.102   0.507
29181WAT     H187785   9.790   7.152   0.593
29181WAT     H287786   9.745   7.020   0.507
29182WAT      O87787   5.751   4.436   9.809
29182WAT     H187788   5.690   4.505   9.770
29182WAT     H287789   5.699   4.351   9.823
29183WAT      O87790   7.701   1.088   8.690
29183WAT     H187791   7.741   1.156   8.751
29183WAT     H287792   7.722   0.997   8.724
29184WAT      O87793   2.452   8.294   4.037
29184WAT     H187794   2.380   8.282   4.105
29184WAT     H287795   2.417   8.265   3.947
29185WAT      O87796   4.284   1.484   6.131
29185WAT     H187797   4.220   1.434   6.190
29185WAT     H287798   4.329   1.420   6.069
29186WAT      O87799   1.515   2.012   8.021
29186WAT     H187800   1.465   1.936   8.062
29186WAT     H287801   1.603   1.979   7.986
29187WAT      O87802   1.685   6.002   4.044
29187WAT     H187803   1.784   5.990   4.046
29187WAT     H287804   1.644   5.930   3.988
29188WAT      O87805   2.381   0.317   6.817
29188WAT     H187806   2.354   0.228   6.855
29188WAT     H287807   2.299   0.371   6.798
29189WAT      O87808   1.645   9.039   8.274
29189WAT     H187809   1.688   9.029   8.184
29189WAT     H287810   1.579   8.965   8.288
29190WAT      O87811   8.138   3.780   7.780
29190WAT     H187812   8.189   3.755   7.697
29190WAT     H287813   8.089   3.866   7.763
29191WAT      O87814   8.053   6.133   4.738
29191WAT     H187815   8.142   6.089   4.747
29191WAT     H287816   8.064   6.232   4.742
29192WAT      O87817   1.793   2.418   8.627
29192WAT     H187818   1.875   2.471   8.603
29192WAT     H287819   1.713   2.478   8.626
29193WAT      O87820   5.983   8.145   1.661
29193WAT     H187821   5.904   8.205   1.675
29193WAT     H287822   6.057   8.174   1.722
29194WAT      O87823   9.426   2.889   0.125
29194WAT     H187824   9.344   2.833   0.115
29194WAT     H287825   9.499   2.851   0.067
29195WAT      O87826   7.132   7.460   7.743
29195WAT     H187827   7.183   7.530   7.792
29195WAT     H287828   7.040   7.494   7.723
29196WAT      O87829   6.801   3.047   7.739
29196WAT     H187830   6.725   3.088   7.690
29196WAT     H287831   6.864   3.005   7.674
29197WAT      O87832   5.593   7.122   4.500
29197WAT     H187833   5.514   7.067   4.471
29197WAT     H287834   5.627   7.088   4.587
29198WAT      O87835   6.728   9.206   0.328
29198WAT     H187836   6.814   9.256   0.328
29198WAT     H287837   6.741   9.117   0.284
29199WAT      O87838   0.540   6.787   8.539
29199WAT     H187839   0.614   6.838   8.583
29199WAT     H287840   0.501   6.722   8.605
29200WAT      O87841   6.066   5.881   8.539
29200WAT     H187842   6.134   5.848   8.474
29200WAT     H287843   6.014   5.955   8.498
29201WAT      O87844   9.642   0.106   7.729
29201WAT     H187845   9.678   0.018   7.695
29201WAT     H287846   9.543   0.108   7.718
29202WAT      O87847   4.368   7.377   0.026
29202WAT     H187848   4.301   7.381  -0.048
29202WAT     H287849   4.352   7.296   0.082
29203WAT      O87850   5.832   2.679   6.595
29203WAT     H187851   5.902   2.621   6.635
29203WAT     H287852   5.828   2.766   6.644
29204WAT      O87853   8.235   5.117   2.373
29204WAT     H187854   8.210   5.167   2.456
29204WAT     H287855   8.332   5.091   2.378
29205WAT      O87856   5.473   6.993   2.828
29205WAT     H187857   5.442   6.978   2.734
29205WAT     H287858   5.552   7.054   2.828
29206WAT      O87859   5.044   2.559   3.875
29206WAT     H187860   4.956   2.536   3.917
29206WAT     H287861   5.043   2.654   3.846
29207WAT      O87862   3.787   1.027   1.714
29207WAT     H187863   3.709   1.089   1.714
29207WAT     H287864   3.770   0.950   1.776
29208WAT      O87865   3.048   3.360   1.903
29208WAT     H187866   3.033   3.326   1.996
29208WAT     H287867   2.960   3.379   1.859
29209WAT      O87868   1.526   3.317   5.346
29209WAT     H187869   1.427   3.302   5.349
29209WAT     H287870   1.545   3.414   5.361
29210WAT      O87871   6.560   2.446   3.577
29210WAT     H187872   6.506   2.451   3.493
29210WAT     H287873   6.571   2.350   3.604
29211WAT      O87874   4.610   1.373   5.539
29211WAT     H187875   4.536   1.420   5.492
29211WAT     H287876   4.620   1.281   5.501
29212WAT      O87877   9.319   0.210   6.656
29212WAT     H187878   9.226   0.173   6.668
29212WAT     H287879   9.341   0.214   6.559
29213WAT      O87880   2.798   0.932   2.238
29213WAT     H187881   2.889   0.916   2.200
29213WAT     H287882   2.781   0.868   2.313
29214WAT      O87883   8.470   4.461   5.287
29214WAT     H187884   8.426   4.450   5.198
29214WAT     H287885   8.564   4.426   5.282
29215WAT      O87886   1.615   4.743   2.372
29215WAT     H187887   1.562   4.740   2.287
29215WAT     H287888   1.706   4.780   2.353
29216WAT      O87889   2.265   3.875   3.042
29216WAT     H187890   2.276   3.953   3.104
29216WAT     H287891   2.343   3.870   2.980
29217WAT      O87892   9.433   4.367   1.669
29217WAT     H187893   9.338   4.371   1.699
29217WAT     H287894   9.437   4.332   1.575
29218WAT      O87895   9.003   9.206   9.067
29218WAT     H187896   9.090   9.162   9.045
29218WAT     H287897   8.991   9.207   9.166
29219WAT      O87898   6.264   8.037   3.631
29219WAT     H187899   6.354   8.001   3.607
29219WAT     H287900   6.194   7.967   3.612
29220WAT      O87901   7.253   0.198   4.760
29220WAT     H187902   7.259   0.252   4.676
29220WAT     H287903   7.179   0.235   4.818
29221WAT      O87904   2.769   2.104   9.425
29221WAT     H187905   2.782   2.200   9.450
29221WAT     H287906   2.738   2.053   9.505
29222WAT      O87907   8.392   6.065   2.385
29222WAT     H187908   8.381   6.123   2.304
29222WAT     H287909   8.425   5.975   2.357
29223WAT      O87910   4.910   7.603   6.775
29223WAT     H187911   4.920   7.680   6.837
29223WAT     H287912   4.979   7.534   6.795
29224WAT      O87913   4.200   2.536   4.491
29224WAT     H187914   4.245   2.609   4.541
29224WAT     H287915   4.101   2.540   4.508
29225WAT      O87916   5.958   3.826   0.165
29225WAT     H187917   5.897   3.898   0.199
29225WAT     H287918   5.950   3.820   0.066
29226WAT      O87919   2.986   0.274   0.068
29226WAT     H187920   3.066   0.269   0.128
29226WAT     H287921   2.999   0.348   0.002
29227WAT      O87922   2.423   9.473   3.983
29227WAT     H187923   2.508   9.456   3.934
29227WAT     H287924   2.428   9.563   4.027
29228WAT      O87925   6.875   6.474   9.799
29228WAT     H187926   6.800   6.407   9.803
29228WAT     H287927   6.838   6.565   9.783
29229WAT      O87928   0.385   8.676   2.418
29229WAT     H187929   0.359   8.639   2.508
29229WAT     H287930   0.458   8.743   2.430
29230WAT      O87931   9.622   9.010   0.873
29230WAT     H187932   9.721   9.013   0.864
29230WAT     H287933   9.596   8.933   0.931
29231WAT      O87934   8.017   8.286   7.983
29231WAT     H187935   7.998   8.319   8.075
29231WAT     H287936   8.098   8.227   7.985
29232WAT      O87937   2.704   0.613   3.567
29232WAT     H187938   2.660   0.537   3.521
29232WAT     H287939   2.789   0.636   3.520
29233WAT      O87940   2.638   8.581   4.713
29233WAT     H187941   2.628   8.596   4.615
29233WAT     H287942   2.609   8.662   4.763
29234WAT      O87943   1.339   0.725   6.374
29234WAT     H187944   1.358   0.793   6.445
29234WAT     H287945   1.414   0.725   6.308
29235WAT      O87946   7.119   2.846   8.526
29235WAT     H187947   7.052   2.793   8.474
29235WAT     H287948   7.199   2.789   8.545
29236WAT      O87949   0.869   3.191   2.981
29236WAT     H187950   0.817   3.240   2.911
29236WAT     H287951   0.944   3.249   3.014
29237WAT      O87952   6.124   6.771   2.974
29237WAT     H187953   6.074   6.779   2.888
29237WAT     H287954   6.203   6.710   2.961
29238WAT      O87955   5.960   8.041   3.846
29238WAT     H187956   5.990   7.978   3.775
29238WAT     H287957   5.962   8.135   3.811
29239WAT      O87958   9.570   7.944   1.200
29239WAT     H187959   9.576   8.022   1.263
29239WAT     H287960   9.480   7.901   1.208
29240WAT      O87961   8.809   1.231   8.071
29240WAT     H187962   8.865   1.279   8.138
29240WAT     H287963   8.766   1.151   8.115
29241WAT      O87964   5.710   7.787   2.099
29241WAT     H187965   5.616   7.761   2.120
29241WAT     H287966   5.756   7.817   2.182
29242WAT      O87967   1.252   5.876   1.611
29242WAT     H187968   1.180   5.933   1.570
29242WAT     H287969   1.341   5.918   1.593
29243WAT      O87970   8.872   2.644   4.912
29243WAT     H187971   8.970   2.623   4.912
29243WAT     H287972   8.853   2.715   4.980
29244WAT      O87973   9.793   8.778   4.002
29244WAT     H187974   9.697   8.790   3.975
29244WAT     H287975   9.826   8.690   3.970
29245WAT      O87976   3.497   0.704   7.425
29245WAT     H187977   3.539   0.766   7.358
29245WAT     H287978   3.456   0.627   7.376
29246WAT      O87979   8.463   9.232   9.805
29246WAT     H187980   8.379   9.240   9.752
29246WAT     H287981   8.442   9.223   9.902
29247WAT      O87982   0.558   8.372   7.829
29247WAT     H187983   0.521   8.327   7.747
29247WAT     H287984   0.512   8.337   7.910
29248WAT      O87985   2.342   9.110   6.229
29248WAT     H187986   2.283   9.177   6.275
29248WAT     H287987   2.414   9.081   6.292
29249WAT      O87988   1.932   4.027   4.635
29249WAT     H187989   1.870   3.977   4.695
29249WAT     H287990   1.900   4.021   4.541
29250WAT      O87991   5.561   4.119   8.796
29250WAT     H187992   5.552   4.039   8.855
29250WAT     H287993   5.657   4.138   8.778
29251WAT      O87994   3.999   6.689   2.988
29251WAT     H187995   4.089   6.732   2.996
29251WAT     H287996   3.953   6.722   2.906
29252WAT      O87997   7.211   0.471   7.124
29252WAT     H187998   7.182   0.391   7.072
29252WAT     H287999   7.137   0.539   7.124
29253WAT      O88000   2.368   2.449   3.559
29253WAT     H188001   2.410   2.416   3.474
29253WAT     H288002   2.330   2.540   3.544
29254WAT      O88003   8.481   9.226   2.825
29254WAT     H188004   8.490   9.198   2.920
29254WAT     H288005   8.540   9.305   2.807
29255WAT      O88006   3.708   7.608   5.840
29255WAT     H188007   3.659   7.562   5.915
29255WAT     H288008   3.653   7.684   5.807
29256WAT      O88009   9.865   1.628   9.846
29256WAT     H188010   9.869   1.596   9.751
29256WAT     H288011   9.823   1.557   9.903
29257WAT      O88012   4.025   8.539   2.794
29257WAT     H188013   3.982   8.485   2.867
29257WAT     H288014   4.034   8.634   2.824
29258WAT      O88015   3.589   3.383   1.782
29258WAT     H188016   3.588   3.284   1.772
29258WAT     H288017   3.499   3.415   1.812
29259WAT      O88018   4.265   6.922   9.763
29259WAT     H188019   4.183   6.957   9.808
29259WAT     H288020   4.289   6.833   9.803
29260WAT      O88021   1.311   6.333   8.093
29260WAT     H188022   1.290   6.430   8.086
29260WAT     H288023   1.378   6.319   8.166
29261WAT      O88024   7.112   0.331   4.539
29261WAT     H188025   7.125   0.298   4.445
29261WAT     H288026   7.014   0.343   4.556
29262WAT      O88027   1.897   7.843   4.264
29262WAT     H188028   1.881   7.745   4.259
29262WAT     H288029   1.980   7.866   4.212
29263WAT      O88030   9.241   3.537   4.269
29263WAT     H188031   9.274   3.508   4.179
29263WAT     H288032   9.309   3.597   4.311
29264WAT      O88033   4.631   6.526   0.804
29264WAT     H188034   4.686   6.475   0.738
29264WAT     H288035   4.667   6.512   0.896
29265WAT      O88036   4.633   8.453   4.071
29265WAT     H188037   4.547   8.462   4.021
29265WAT     H288038   4.704   8.507   4.026
29266WAT      O88039   3.541   7.503   3.769
29266WAT     H188040   3.566   7.570   3.839
29266WAT     H288041   3.620   7.484   3.711
29267WAT      O88042   5.053   7.289   6.122
29267WAT     H188043   4.960   7.255   6.109
29267WAT     H288044   5.100   7.232   6.189
29268WAT      O88045   5.363   5.610   2.165
29268WAT     H188046   5.307   5.679   2.210
29268WAT     H288047   5.304   5.536   2.131
29269WAT      O88048   4.058   3.545   8.124
29269WAT     H188049   4.017   3.568   8.036
29269WAT     H288050   4.138   3.604   8.140
29270WAT      O88051   6.282   5.977   4.730
29270WAT     H188052   6.250   5.904   4.791
29270WAT     H288053   6.313   6.055   4.785
29271WAT      O88054   3.228   0.251   6.532
29271WAT     H188055   3.256   0.337   6.489
29271WAT     H288056   3.147   0.267   6.588
29272WAT      O88057   3.370   5.961   6.649
29272WAT     H188058   3.287   6.007   6.618
29272WAT     H288059   3.450   6.006   6.610
29273WAT      O88060   1.833   4.825   6.665
29273WAT     H188061   1.854   4.801   6.570
29273WAT     H288062   1.735   4.844   6.674
29274WAT      O88063   3.539   2.824   4.049
29274WAT     H188064   3.599   2.838   3.970
29274WAT     H288065   3.452   2.870   4.034
29275WAT      O88066   5.173   7.537   6.120
29275WAT     H188067   5.143   7.442   6.116
29275WAT     H288068   5.272   7.541   6.113
29276WAT      O88069   5.341   7.085   0.906
29276WAT     H188070   5.332   7.057   0.810
29276WAT     H288071   5.420   7.146   0.915
29277WAT      O88072   1.454   4.133   0.586
29277WAT     H188073   1.428   4.139   0.682
29277WAT     H288074   1.451   4.224   0.545
29278WAT      O88075   7.368   3.758   1.179
29278WAT     H188076   7.409   3.824   1.241
29278WAT     H288077   7.335   3.805   1.097
29279WAT      O88078   3.553   3.089   7.275
29279WAT     H188079   3.481   3.148   7.238
29279WAT     H288080   3.542   3.081   7.374
29280WAT      O88081   5.248   5.448   1.417
29280WAT     H188082   5.247   5.416   1.512
29280WAT     H288083   5.293   5.381   1.359
29281WAT      O88084   1.148   4.745   2.044
29281WAT     H188085   1.201   4.707   1.968
29281WAT     H288086   1.092   4.821   2.010
29282WAT      O88087   6.375   6.688   9.042
29282WAT     H188088   6.388   6.592   9.019
29282WAT     H288089   6.295   6.697   9.102
29283WAT      O88090   7.835   4.191   0.712
29283WAT     H188091   7.768   4.138   0.660
29283WAT     H288092   7.794   4.277   0.740
29284WAT      O88093   6.875   0.987   6.013
29284WAT     H188094   6.923   0.900   6.023
29284WAT     H288095   6.825   1.008   6.097
29285WAT      O88096   3.922   4.126   8.470
29285WAT     H188097   3.897   4.042   8.517
29285WAT     H288098   3.838   4.176   8.446
29286WAT      O88099   8.763   9.375   4.511
29286WAT     H188100   8.805   9.337   4.594
29286WAT     H288101   8.751   9.302   4.443
29287WAT      O88102   8.965   2.950   1.894
29287WAT     H188103   8.975   2.865   1.844
29287WAT     H288104   8.876   2.951   1.941
29288WAT      O88105   3.136   0.220   4.545
29288WAT     H188106   3.188   0.163   4.608
29288WAT     H288107   3.080   0.285   4.597
29289WAT      O88108   6.825   6.127   6.020
29289WAT     H188109   6.779   6.182   5.949
29289WAT     H288110   6.793   6.156   6.110
29290WAT      O88111   5.394   3.220   0.937
29290WAT     H188112   5.440   3.131   0.931
29290WAT     H288113   5.412   3.261   1.026
29291WAT      O88114   0.611   7.548   8.624
29291WAT     H188115   0.604   7.519   8.529
29291WAT     H288116   0.632   7.469   8.681
29292WAT      O88117   4.118   6.594   5.811
29292WAT     H188118   4.180   6.657   5.764
29292WAT     H288119   4.059   6.549   5.744
29293WAT      O88120   1.014   2.510   0.410
29293WAT     H188121   1.098   2.461   0.435
29293WAT     H288122   1.023   2.547   0.317
29294WAT      O88123   4.897   4.222   7.948
29294WAT     H188124   4.944   4.134   7.946
29294WAT     H288125   4.955   4.291   7.992
29295WAT      O88126   1.328   7.465   4.635
29295WAT     H188127   1.343   7.564   4.630
29295WAT     H288128   1.308   7.430   4.544
29296WAT      O88129   3.061   5.362   0.662
29296WAT     H188130   3.105   5.410   0.587
29296WAT     H288131   3.099   5.270   0.670
29297WAT      O88132   2.755   8.217   9.862
29297WAT     H188133   2.708   8.154   9.800
29297WAT     H288134   2.809   8.165   9.928
29298WAT      O88135   0.905   6.720   1.073
29298WAT     H188136   0.999   6.686   1.085
29298WAT     H288137   0.866   6.681   0.989
29299WAT      O88138   6.472   3.720   1.888
29299WAT     H188139   6.465   3.633   1.937
29299WAT     H288140   6.566   3.733   1.856
29300WAT      O88141   8.609   5.303   4.072
29300WAT     H188142   8.517   5.282   4.102
29300WAT     H288143   8.620   5.403   4.066
29301WAT      O88144   6.346   9.194   0.306
29301WAT     H188145   6.404   9.273   0.328
29301WAT     H288146   6.368   9.118   0.367
29302WAT      O88147   3.456   2.911   4.746
29302WAT     H188148   3.446   3.002   4.708
29302WAT     H288149   3.538   2.907   4.804
29303WAT      O88150   7.189   3.156   3.629
29303WAT     H188151   7.127   3.077   3.624
29303WAT     H288152   7.148   3.234   3.581
29304WAT      O88153   4.864   3.801   4.316
29304WAT     H188154   4.779   3.824   4.364
29304WAT     H288155   4.891   3.879   4.259
29305WAT      O88156   9.355   3.110   5.511
29305WAT     H188157   9.389   3.202   5.490
29305WAT     H288158   9.423   3.042   5.484
29306WAT      O88159   2.043   5.908   3.045
29306WAT     H188160   2.091   5.909   3.132
29306WAT     H288161   2.006   5.817   3.027
29307WAT      O88162   6.848   2.996   0.227
29307WAT     H188163   6.917   3.057   0.265
29307WAT     H288164   6.819   2.930   0.297
29308WAT      O88165   7.773   6.703   7.811
29308WAT     H188166   7.730   6.737   7.895
29308WAT     H288167   7.730   6.616   7.785
29309WAT      O88168   8.059   6.051   6.639
29309WAT     H188169   8.086   5.955   6.649
29309WAT     H288170   8.140   6.105   6.615
29310WAT      O88171   3.272   0.614   5.770
29310WAT     H188172   3.366   0.598   5.799
29310WAT     H288173   3.221   0.528   5.774
29311WAT      O88174   8.943   2.509   6.837
29311WAT     H188175   8.948   2.462   6.925
29311WAT     H288176   8.906   2.601   6.851
29312WAT      O88177   4.453   6.262   2.425
29312WAT     H188178   4.383   6.332   2.412
29312WAT     H288179   4.532   6.302   2.470
29313WAT      O88180   9.557   0.076   2.752
29313WAT     H188181   9.622   0.008   2.786
29313WAT     H288182   9.606   0.144   2.698
29314WAT      O88183   8.968   2.812   2.586
29314WAT     H188184   8.963   2.912   2.580
29314WAT     H288185   8.953   2.784   2.681
29315WAT      O88186   0.136   6.625   3.512
29315WAT     H188187   0.168   6.553   3.573
29315WAT     H288188   0.055   6.668   3.551
29316WAT      O88189   3.038   9.282   0.112
29316WAT     H188190   3.111   9.336   0.153
29316WAT     H288191   2.951   9.330   0.122
29317WAT      O88192   7.157   7.077   5.782
29317WAT     H188193   7.256   7.064   5.776
29317WAT     H288194   7.111   6.992   5.757
29318WAT      O88195   6.269   3.835   8.012
29318WAT     H188196   6.258   3.751   8.065
29318WAT     H288197   6.364   3.842   7.981
29319WAT      O88198   9.302   5.388   0.919
29319WAT     H188199   9.211   5.403   0.959
29319WAT     H288200   9.325   5.465   0.859
29320WAT      O88201   4.400   4.055   9.302
29320WAT     H188202   4.399   3.957   9.283
29320WAT     H288203   4.494   4.088   9.304
29321WAT      O88204   4.674   6.724   5.325
29321WAT     H188205   4.738   6.725   5.401
29321WAT     H288206   4.587   6.764   5.354
29322WAT      O88207   5.496   3.276   7.259
29322WAT     H188208   5.404   3.302   7.288
29322WAT     H288209   5.563   3.312   7.323
29323WAT      O88210   8.939   3.090   2.563
29323WAT     H188211   8.927   3.110   2.466
29323WAT     H288212   8.851   3.063   2.602
29324WAT      O88213   5.770   9.427   9.620
29324WAT     H188214   5.693   9.455   9.563
29324WAT     H288215   5.817   9.350   9.577
29325WAT      O88216   3.858   5.219   1.404
29325WAT     H188217   3.813   5.130   1.399
29325WAT     H288218   3.876   5.254   1.312
29326WAT      O88219   6.148   5.076   2.741
29326WAT     H188220   6.230   5.045   2.788
29326WAT     H288221   6.067   5.053   2.796
29327WAT      O88222   1.293   3.901   0.495
29327WAT     H188223   1.236   3.921   0.574
29327WAT     H288224   1.341   3.984   0.466
29328WAT      O88225   4.119   9.827   4.075
29328WAT     H188226   4.058   9.764   4.124
29328WAT     H288227   4.137   9.791   3.983
29329WAT      O88228   4.294   2.382   0.439
29329WAT     H188229   4.196   2.379   0.462
29329WAT     H288230   4.314   2.313   0.369
29330WAT      O88231   2.068   6.971   8.741
29330WAT     H188232   2.125   7.013   8.812
29330WAT     H288233   2.025   7.043   8.686
29331WAT      O88234   2.065   5.753   5.744
29331WAT     H188235   2.154   5.794   5.763
29331WAT     H288236   2.074   5.654   5.740
29332WAT      O88237   8.342   1.499   5.887
29332WAT     H188238   8.291   1.493   5.802
29332WAT     H288239   8.364   1.407   5.919
29333WAT      O88240   8.290   6.105   8.026
29333WAT     H188241   8.355   6.139   8.094
29333WAT     H288242   8.258   6.180   7.969
29334WAT      O88243   4.629   7.711   6.643
29334WAT     H188244   4.611   7.798   6.687
29334WAT     H288245   4.725   7.707   6.615
29335WAT      O88246   4.821   9.555   7.116
29335WAT     H188247   4.752   9.623   7.141
29335WAT     H288248   4.857   9.512   7.199
29336WAT      O88249   7.999   7.209   0.948
29336WAT     H188250   7.957   7.131   0.993
29336WAT     H288251   8.087   7.182   0.909
29337WAT      O88252   1.049   0.870   0.551
29337WAT     H188253   1.089   0.784   0.519
29337WAT     H288254   0.956   0.878   0.515
29338WAT      O88255   9.173   1.337   8.040
29338WAT     H188256   9.204   1.426   8.073
29338WAT     H288257   9.169   1.273   8.117
29339WAT      O88258   2.080   3.716   9.227
29339WAT     H188259   2.042   3.642   9.172
29339WAT     H288260   2.166   3.748   9.185
29340WAT      O88261   8.240   7.532   2.569
29340WAT     H188262   8.142   7.510   2.565
29340WAT     H288263   8.279   7.493   2.653
29341WAT      O88264   2.866   2.180   6.429
29341WAT     H188265   2.893   2.171   6.333
29341WAT     H288266   2.893   2.271   6.463
29342WAT      O88267   3.609   7.688   2.917
29342WAT     H188268   3.536   7.735   2.968
29342WAT     H288269   3.593   7.590   2.920
29343WAT      O88270   7.384   0.743   3.740
29343WAT     H188271   7.350   0.691   3.662
29343WAT     H288272   7.421   0.680   3.808
29344WAT      O88273   9.787   1.581   7.542
29344WAT     H188274   9.863   1.610   7.484
29344WAT     H288275   9.733   1.512   7.494
29345WAT      O88276   3.542   3.782   2.891
29345WAT     H188277   3.608   3.830   2.949
29345WAT     H288278   3.476   3.848   2.855
29346WAT      O88279   1.494   9.100   0.627
29346WAT     H188280   1.512   9.124   0.532
29346WAT     H288281   1.520   9.005   0.643
29347WAT      O88282   6.214   0.391   0.346
29347WAT     H188283   6.265   0.313   0.310
29347WAT     H288284   6.124   0.361   0.377
29348WAT      O88285   1.966   4.796   3.965
29348WAT     H188286   2.065   4.805   3.966
29348WAT     H288287   1.927   4.859   3.899
29349WAT      O88288   8.264   1.428   2.862
29349WAT     H188289   8.356   1.415   2.827
29349WAT     H288290   8.212   1.484   2.797
29350WAT      O88291   5.782   7.291   3.901
29350WAT     H188292   5.861   7.264   3.846
29350WAT     H288293   5.812   7.314   3.994
29351WAT      O88294   1.549   0.075   3.335
29351WAT     H188295   1.507   0.112   3.418
29351WAT     H288296   1.539   0.140   3.260
29352WAT      O88297   3.056   1.390   2.391
29352WAT     H188298   3.056   1.311   2.329
29352WAT     H288299   2.973   1.444   2.375
29353WAT      O88300   4.109   2.587   3.900
29353WAT     H188301   4.187   2.601   3.839
29353WAT     H288302   4.114   2.495   3.939
29354WAT      O88303   9.852   3.850   3.911
29354WAT     H188304   9.812   3.804   3.832
29354WAT     H288305   9.916   3.789   3.957
29355WAT      O88306   2.514   4.644   3.131
29355WAT     H188307   2.450   4.703   3.179
29355WAT     H288308   2.547   4.572   3.192
29356WAT      O88309   1.308   2.858   3.890
29356WAT     H188310   1.262   2.799   3.823
29356WAT     H288311   1.393   2.893   3.851
29357WAT      O88312   3.359   9.410   5.610
29357WAT     H188313   3.286   9.426   5.543
29357WAT     H288314   3.410   9.328   5.584
29358WAT      O88315   9.192   3.846   3.608
29358WAT     H188316   9.184   3.873   3.512
29358WAT     H288317   9.256   3.770   3.616
29359WAT      O88318   4.601   2.563   8.485
29359WAT     H188319   4.560   2.520   8.404
29359WAT     H288320   4.673   2.627   8.455
29360WAT      O88321   3.169   0.196   6.107
29360WAT     H188322   3.237   0.234   6.169
29360WAT     H288323   3.177   0.096   6.105
29361WAT      O88324   8.503   8.026   5.720
29361WAT     H188325   8.472   8.120   5.705
29361WAT     H288326   8.572   8.002   5.651
29362WAT      O88327   2.134   1.835   9.854
29362WAT     H188328   2.135   1.935   9.860
29362WAT     H288329   2.075   1.807   9.779
29363WAT      O88330   1.399   3.476   6.812
29363WAT     H188331   1.322   3.423   6.777
29363WAT     H288332   1.454   3.420   6.873
29364WAT      O88333   0.660   2.096   4.493
29364WAT     H188334   0.678   2.020   4.556
29364WAT     H288335   0.634   2.177   4.545
29365WAT      O88336   0.117   6.582   6.668
29365WAT     H188337   0.201   6.612   6.713
29365WAT     H288338   0.137   6.500   6.614
29366WAT      O88339   5.689   8.151   3.195
29366WAT     H188340   5.725   8.059   3.180
29366WAT     H288341   5.609   8.165   3.138
29367WAT      O88342   2.085   7.441   8.742
29367WAT     H188343   2.063   7.357   8.692
29367WAT     H288344   2.005   7.501   8.744
29368WAT      O88345   8.870   2.785   6.870
29368WAT     H188346   8.851   2.870   6.919
29368WAT     H288347   8.948   2.797   6.809
29369WAT      O88348   1.170   6.060   6.687
29369WAT     H188349   1.267   6.084   6.699
29369WAT     H288350   1.161   5.961   6.683
29370WAT      O88351   2.760   7.505   0.768
29370WAT     H188352   2.696   7.476   0.697
29370WAT     H288353   2.834   7.438   0.776
29371WAT      O88354   8.934   9.755   6.427
29371WAT     H188355   9.023   9.718   6.404
29371WAT     H288356   8.902   9.716   6.514
29372WAT      O88357   1.026   1.650   1.744
29372WAT     H188358   1.070   1.568   1.780
29372WAT     H288359   1.087   1.728   1.754
29373WAT      O88360   0.322   7.422   2.027
29373WAT     H188361   0.249   7.490   2.026
29373WAT     H288362   0.410   7.467   2.016
29374WAT      O88363   0.195   8.278   0.635
29374WAT     H188364   0.247   8.359   0.609
29374WAT     H288365   0.175   8.281   0.733
29375WAT      O88366   2.840   1.724   5.355
29375WAT     H188367   2.892   1.747   5.273
29375WAT     H288368   2.862   1.789   5.428
29376WAT      O88369   6.176   7.904   8.113
29376WAT     H188370   6.097   7.902   8.174
29376WAT     H288371   6.207   7.810   8.096
29377WAT      O88372   0.881   7.345   7.140
29377WAT     H188373   0.943   7.270   7.160
29377WAT     H288374   0.927   7.413   7.083
29378WAT      O88375   0.824   9.427   2.103
29378WAT     H188376   0.766   9.363   2.052
29378WAT     H288377   0.766   9.493   2.151
29379WAT      O88378   8.639   4.955   8.962
29379WAT     H188379   8.578   4.881   8.932
29379WAT     H288380   8.584   5.035   8.986
29380WAT      O88381   4.204   5.432   9.652
29380WAT     H188382   4.299   5.422   9.625
29380WAT     H288383   4.193   5.408   9.749
29381WAT      O88384   3.919   6.213   8.485
29381WAT     H188385   3.980   6.273   8.537
29381WAT     H288386   3.838   6.264   8.455
29382WAT      O88387   2.644   0.268   8.044
29382WAT     H188388   2.736   0.287   8.011
29382WAT     H288389   2.595   0.354   8.057
29383WAT      O88390   3.101   7.623   3.019
29383WAT     H188391   3.139   7.544   3.066
29383WAT     H288392   3.014   7.598   2.976
29384WAT      O88393   7.483   2.724   3.190
29384WAT     H188394   7.415   2.677   3.134
29384WAT     H288395   7.439   2.797   3.241
29385WAT      O88396   2.714   0.820   1.585
29385WAT     H188397   2.711   0.912   1.544
29385WAT     H288398   2.738   0.753   1.514
29386WAT      O88399   5.888   2.141   0.662
29386WAT     H188400   5.852   2.107   0.749
29386WAT     H288401   5.847   2.230   0.641
29387WAT      O88402   2.480   6.870   6.167
29387WAT     H188403   2.403   6.866   6.230
29387WAT     H288404   2.565   6.878   6.220
29388WAT      O88405   9.446   6.063   6.371
29388WAT     H188406   9.538   6.066   6.333
29388WAT     H288407   9.384   6.019   6.306
29389WAT      O88408   2.426   6.237   0.303
29389WAT     H188409   2.526   6.242   0.304
29389WAT     H288410   2.395   6.221   0.209
29390WAT      O88411   4.672   6.473   5.250
29390WAT     H188412   4.659   6.558   5.301
29390WAT     H288413   4.603   6.406   5.280
29391WAT      O88414   5.020   2.811   0.411
29391WAT     H188415   4.935   2.863   0.403
29391WAT     H288416   5.071   2.843   0.491
29392WAT      O88417   3.321   8.998   6.055
29392WAT     H188418   3.249   9.046   6.104
29392WAT     H288419   3.370   8.938   6.118
29393WAT      O88420   1.951   3.608   8.534
29393WAT     H188421   1.964   3.707   8.538
29393WAT     H288422   1.881   3.581   8.601
29394WAT      O88423   7.450   4.054   8.694
29394WAT     H188424   7.530   4.107   8.666
29394WAT     H288425   7.451   4.043   8.794
29395WAT      O88426   7.424   6.147   2.875
29395WAT     H188427   7.490   6.182   2.808
29395WAT     H288428   7.370   6.223   2.910
29396WAT      O88429   1.588   4.513   1.769
29396WAT     H188430   1.665   4.547   1.823
29396WAT     H288431   1.526   4.462   1.829
29397WAT      O88432   9.007   2.801   5.477
29397WAT     H188433   9.102   2.777   5.461
29397WAT     H288434   8.971   2.749   5.553
29398WAT      O88435   8.565   1.326   4.875
29398WAT     H188436   8.575   1.398   4.806
29398WAT     H288437   8.577   1.236   4.832
29399WAT      O88438   7.050   3.307   1.419
29399WAT     H188439   7.053   3.405   1.399
29399WAT     H288440   7.142   3.274   1.437
29400WAT      O88441   9.111   5.795   8.594
29400WAT     H188442   9.063   5.714   8.558
29400WAT     H288443   9.192   5.812   8.538
29401WAT      O88444   7.561   5.995   6.737
29401WAT     H188445   7.465   6.009   6.712
29401WAT     H288446   7.578   5.898   6.753
29402WAT      O88447   2.509   4.346   5.148
29402WAT     H188448   2.470   4.325   5.238
29402WAT     H288449   2.485   4.440   5.123
29403WAT      O88450   0.542   9.442   2.237
29403WAT     H188451   0.609   9.508   2.272
29403WAT     H288452   0.523   9.461   2.141
29404WAT      O88453   4.742   9.126   8.087
29404WAT     H188454   4.832   9.170   8.095
29404WAT     H288455   4.671   9.189   8.116
29405WAT      O88456   6.030   8.584   0.405
29405WAT     H188457   6.076   8.588   0.494
29405WAT     H288458   5.971   8.664   0.395
29406WAT      O88459   8.937   3.700   0.500
29406WAT     H188460   8.930   3.670   0.405
29406WAT     H288461   8.846   3.712   0.539
29407WAT      O88462   4.214   3.470   0.021
29407WAT     H188463   4.187   3.555  -0.023
29407WAT     H288464   4.281   3.423  -0.036
29408WAT      O88465   6.563   0.406   6.349
29408WAT     H188466   6.490   0.344   6.322
29408WAT     H288467   6.527   0.499   6.357
29409WAT      O88468   8.890   4.110   5.979
29409WAT     H188469   8.880   4.074   6.072
29409WAT     H288470   8.805   4.095   5.928
29410WAT      O88471   5.454   8.444   6.424
29410WAT     H188472   5.514   8.523   6.437
29410WAT     H288473   5.495   8.382   6.358
29411WAT      O88474   0.356   1.100   7.518
29411WAT     H188475   0.332   1.112   7.614
29411WAT     H288476   0.301   1.026   7.479
29412WAT      O88477   6.959   0.718   6.037
29412WAT     H188478   6.958   0.640   5.975
29412WAT     H288479   7.010   0.694   6.119
29413WAT      O88480   6.099   9.190   9.597
29413WAT     H188481   6.113   9.101   9.641
29413WAT     H288482   6.148   9.193   9.511
29414WAT      O88483   7.013   7.200   5.968
29414WAT     H188484   7.071   7.170   5.892
29414WAT     H288485   6.993   7.122   6.027
29415WAT      O88486   6.982   4.279   7.416
29415WAT     H188487   6.915   4.216   7.456
29415WAT     H288488   6.977   4.367   7.463
29416WAT      O88489   5.936   7.788   5.821
29416WAT     H188490   5.998   7.864   5.840
29416WAT     H288491   5.888   7.762   5.905
29417WAT      O88492   5.464   6.141   1.880
29417WAT     H188493   5.490   6.237   1.869
29417WAT     H288494   5.540   6.090   1.921
29418WAT      O88495   1.913   4.522   8.474
29418WAT     H188496   1.873   4.451   8.416
29418WAT     H288497   2.005   4.495   8.501
29419WAT      O88498   6.310   8.702   2.151
29419WAT     H188499   6.274   8.786   2.111
29419WAT     H288500   6.249   8.670   2.224
29420WAT      O88501   9.819   2.121   3.814
29420WAT     H188502   9.892   2.145   3.750
29420WAT     H288503   9.738   2.176   3.793
29421WAT      O88504   9.725   7.699   7.987
29421WAT     H188505   9.671   7.782   7.976
29421WAT     H288506   9.793   7.713   8.059
29422WAT      O88507   1.987   6.200   6.482
29422WAT     H188508   1.949   6.181   6.573
29422WAT     H288509   1.969   6.296   6.459
29423WAT      O88510   7.898   1.250   5.862
29423WAT     H188511   7.975   1.303   5.897
29423WAT     H288512   7.812   1.295   5.887
29424WAT      O88513   7.268   0.669   5.731
29424WAT     H188514   7.272   0.694   5.634
29424WAT     H288515   7.225   0.579   5.740
29425WAT      O88516   6.298   1.693   4.827
29425WAT     H188517   6.352   1.723   4.748
29425WAT     H288518   6.204   1.726   4.817
29426WAT      O88519   1.225   9.165   4.166
29426WAT     H188520   1.172   9.104   4.107
29426WAT     H288521   1.183   9.169   4.256
29427WAT      O88522   5.965   5.286   1.322
29427WAT     H188523   6.031   5.219   1.357
29427WAT     H288524   5.906   5.243   1.254
29428WAT      O88525   1.760   9.503   2.683
29428WAT     H188526   1.724   9.467   2.597
29428WAT     H288527   1.685   9.526   2.745
29429WAT      O88528   1.957   7.330   4.260
29429WAT     H188529   2.004   7.304   4.345
29429WAT     H288530   1.862   7.299   4.264
29430WAT      O88531   4.056   4.879   8.057
29430WAT     H188532   4.119   4.843   7.989
29430WAT     H288533   4.041   4.811   8.129
29431WAT      O88534   0.943   0.547   1.322
29431WAT     H188535   1.007   0.479   1.357
29431WAT     H288536   0.994   0.628   1.292
29432WAT      O88537   1.591   6.358   3.289
29432WAT     H188538   1.558   6.278   3.339
29432WAT     H288539   1.531   6.376   3.210
29433WAT      O88540   0.624   5.803   6.028
29433WAT     H188541   0.671   5.719   5.999
29433WAT     H288542   0.597   5.855   5.947
29434WAT      O88543   6.109   1.758   6.676
29434WAT     H188544   6.164   1.827   6.723
29434WAT     H288545   6.031   1.803   6.632
29435WAT      O88546   2.263   7.798   8.294
29435WAT     H188547   2.357   7.799   8.328
29435WAT     H288548   2.244   7.708   8.254
29436WAT      O88549   2.415   3.870   8.722
29436WAT     H188550   2.398   3.817   8.638
29436WAT     H288551   2.448   3.809   8.794
29437WAT      O88552   5.983   6.823   2.744
29437WAT     H188553   6.005   6.921   2.749
29437WAT     H288554   5.919   6.807   2.669
29438WAT      O88555   7.470   9.680   7.572
29438WAT     H188556   7.563   9.695   7.605
29438WAT     H288557   7.434   9.765   7.533
29439WAT      O88558   7.804   0.097   0.213
29439WAT     H188559   7.854   0.041   0.147
29439WAT     H288560   7.712   0.060   0.224
29440WAT      O88561   1.160   7.046   8.516
29440WAT     H188562   1.184   7.141   8.534
29440WAT     H288563   1.075   7.042   8.464
29441WAT      O88564   5.031   4.643   5.941
29441WAT     H188565   5.121   4.633   5.897
29441WAT     H288566   5.014   4.563   5.999
29442WAT      O88567   6.334   2.991   4.295
29442WAT     H188568   6.398   3.066   4.314
29442WAT     H288569   6.240   3.023   4.307
29443WAT      O88570   4.049   7.134   3.064
29443WAT     H188571   4.028   7.048   3.110
29443WAT     H288572   4.011   7.133   2.972
29444WAT      O88573   2.429   1.025   1.455
29444WAT     H188574   2.422   1.106   1.397
29444WAT     H288575   2.473   0.952   1.403
29445WAT      O88576   6.931   0.077   5.869
29445WAT     H188577   6.964   0.160   5.914
29445WAT     H288578   6.857   0.037   5.923
29446WAT      O88579   2.034   6.097   5.499
29446WAT     H188580   1.956   6.159   5.506
29446WAT     H288581   2.018   6.032   5.425
29447WAT      O88582   0.632   9.721   8.847
29447WAT     H188583   0.577   9.765   8.918
29447WAT     H288584   0.575   9.707   8.766
29448WAT      O88585   3.099   2.560   3.171
29448WAT     H188586   3.063   2.472   3.204
29448WAT     H288587   3.115   2.620   3.249
29449WAT      O88588   9.274   2.291   9.071
29449WAT     H188589   9.302   2.220   9.007
29449WAT     H288590   9.315   2.378   9.044
29450WAT      O88591   9.008   0.628   2.682
29450WAT     H188592   8.942   0.587   2.619
29450WAT     H288593   9.076   0.559   2.708
29451WAT      O88594   1.251   5.598   5.196
29451WAT     H188595   1.341   5.630   5.166
29451WAT     H288596   1.260   5.552   5.285
29452WAT      O88597   1.198   3.555   9.245
29452WAT     H188598   1.289   3.519   9.263
29452WAT     H288599   1.179   3.550   9.147
29453WAT      O88600   0.177   3.769   2.686
29453WAT     H188601   0.091   3.768   2.635
29453WAT     H288602   0.180   3.690   2.748
29454WAT      O88603   1.960   9.434   6.290
29454WAT     H188604   1.978   9.480   6.377
29454WAT     H288605   1.916   9.498   6.227
29455WAT      O88606   4.769   3.574   3.794
29455WAT     H188607   4.780   3.604   3.888
29455WAT     H288608   4.853   3.591   3.743
29456WAT      O88609   8.470   8.258   8.117
29456WAT     H188610   8.424   8.204   8.187
29456WAT     H288611   8.447   8.355   8.127
29457WAT      O88612   3.018   0.292   6.762
29457WAT     H188613   3.010   0.193   6.758
29457WAT     H288614   2.926   0.333   6.760
29458WAT      O88615   4.044   9.309   3.579
29458WAT     H188616   3.963   9.319   3.520
29458WAT     H288617   4.125   9.344   3.531
29459WAT      O88618   6.524   1.304   9.126
29459WAT     H188619   6.552   1.395   9.157
29459WAT     H288620   6.603   1.243   9.129
29460WAT      O88621   2.173   5.567   6.011
29460WAT     H188622   2.172   5.512   5.927
29460WAT     H288623   2.263   5.561   6.053
29461WAT      O88624   6.388   5.481   3.511
29461WAT     H188625   6.439   5.474   3.425
29461WAT     H288626   6.447   5.522   3.581
29462WAT      O88627   6.059   7.854   6.147
29462WAT     H188628   6.136   7.859   6.084
29462WAT     H288629   5.973   7.848   6.096
29463WAT      O88630   4.909   1.800   0.711
29463WAT     H188631   4.953   1.819   0.623
29463WAT     H288632   4.925   1.878   0.772
29464WAT      O88633   5.233   7.263   6.393
29464WAT     H188634   5.147   7.215   6.408
29464WAT     H288635   5.293   7.209   6.334
29465WAT      O88636   8.795   9.601   9.739
29465WAT     H188637   8.744   9.520   9.709
29465WAT     H288638   8.794   9.604   9.839
29466WAT      O88639   0.225   4.769   0.629
29466WAT     H188640   0.145   4.794   0.575
29466WAT     H288641   0.205   4.687   0.683
29467WAT      O88642   7.823   4.287   9.193
29467WAT     H188643   7.778   4.352   9.255
29467WAT     H288644   7.861   4.337   9.115
29468WAT      O88645   1.550   2.462   2.474
29468WAT     H188646   1.571   2.524   2.398
29468WAT     H288647   1.556   2.511   2.560
29469WAT      O88648   0.264   0.542   0.264
29469WAT     H188649   0.288   0.479   0.338
29469WAT     H288650   0.338   0.544   0.197
29470WAT      O88651   9.423   0.144   8.031
29470WAT     H188652   9.350   0.213   8.033
29470WAT     H288653   9.383   0.056   8.005
29471WAT      O88654   6.318   8.972   4.969
29471WAT     H188655   6.415   8.988   4.987
29471WAT     H288656   6.266   9.054   4.993
29472WAT      O88657   0.611   5.488   8.409
29472WAT     H188658   0.632   5.395   8.377
29472WAT     H288659   0.513   5.498   8.420
29473WAT      O88660   6.572   0.840   7.234
29473WAT     H188661   6.668   0.865   7.216
29473WAT     H288662   6.519   0.922   7.254
29474WAT      O88663   5.096   5.865   3.780
29474WAT     H188664   5.187   5.824   3.784
29474WAT     H288665   5.027   5.793   3.776
29475WAT      O88666   1.911   8.171   9.186
29475WAT     H188667   1.890   8.201   9.093
29475WAT     H288668   1.910   8.071   9.189
29476WAT      O88669   7.884   1.941   8.824
29476WAT     H188670   7.805   1.884   8.799
29476WAT     H288671   7.894   1.941   8.924
29477WAT      O88672   0.497   1.692   1.691
29477WAT     H188673   0.469   1.647   1.776
29477WAT     H288674   0.541   1.779   1.712
29478WAT      O88675   5.914   6.089   1.280
29478WAT     H188676   5.977   6.013   1.298
29478WAT     H288677   5.823   6.052   1.259
29479WAT      O88678   7.442   9.370   9.495
29479WAT     H188679   7.403   9.328   9.577
29479WAT     H288680   7.368   9.401   9.436
29480WAT      O88681   2.979   1.128   2.621
29480WAT     H188682   2.952   1.057   2.687
29480WAT     H288683   2.897   1.168   2.581
29481WAT      O88684   8.674   9.806   6.475
29481WAT     H188685   8.758   9.780   6.427
29481WAT     H288686   8.648   9.899   6.449
29482WAT      O88687   9.666   8.022   2.140
29482WAT     H188688   9.568   8.017   2.160
29482WAT     H288689   9.686   8.105   2.088
29483WAT      O88690   6.918   8.169   1.120
29483WAT     H188691   6.835   8.185   1.174
29483WAT     H288692   6.948   8.255   1.080
29484WAT      O88693   9.283   0.940   8.178
29484WAT     H188694   9.270   0.855   8.228
29484WAT     H288695   9.299   0.920   8.081
29485WAT      O88696   0.257   3.917   2.043
29485WAT     H188697   0.272   3.827   2.003
29485WAT     H288698   0.193   3.969   1.987
29486WAT      O88699   1.227   6.086   7.258
29486WAT     H188700   1.155   6.031   7.301
29486WAT     H288701   1.247   6.050   7.167
29487WAT      O88702   9.501   7.616   4.221
29487WAT     H188703   9.572   7.549   4.244
29487WAT     H288704   9.412   7.570   4.219
29488WAT      O88705   2.358   0.018   7.339
29488WAT     H188706   2.390  -0.027   7.422
29488WAT     H288707   2.397  -0.028   7.259
29489WAT      O88708   3.339   7.025   0.868
29489WAT     H188709   3.382   7.066   0.949
29489WAT     H288710   3.403   6.960   0.826
29490WAT      O88711   5.199   5.796   2.315
29490WAT     H188712   5.222   5.884   2.358
29490WAT     H288713   5.100   5.791   2.303
29491WAT      O88714   0.211   2.641   6.594
29491WAT     H188715   0.306   2.646   6.622
29491WAT     H288716   0.156   2.704   6.649
29492WAT      O88717   9.334   4.500   1.437
29492WAT     H188718   9.393   4.573   1.403
29492WAT     H288719   9.298   4.524   1.527
29493WAT      O88720   8.348   8.387   3.113
29493WAT     H188721   8.329   8.374   3.015
29493WAT     H288722   8.340   8.300   3.161
29494WAT      O88723   1.127   9.660   2.041
29494WAT     H188724   1.173   9.744   2.013
29494WAT     H288725   1.038   9.654   1.996
29495WAT      O88726   2.997   1.663   2.949
29495WAT     H188727   3.096   1.655   2.934
29495WAT     H288728   2.979   1.669   3.048
29496WAT      O88729   2.700   2.488   2.716
29496WAT     H188730   2.771   2.420   2.736
29496WAT     H288731   2.684   2.491   2.617
29497WAT      O88732   1.869   7.180   0.126
29497WAT     H188733   1.968   7.178   0.111
29497WAT     H288734   1.850   7.225   0.214
29498WAT      O88735   0.686   2.675   4.727
29498WAT     H188736   0.701   2.702   4.632
29498WAT     H288737   0.690   2.756   4.785
29499WAT      O88738   5.437   0.683   7.683
29499WAT     H188739   5.489   0.768   7.671
29499WAT     H288740   5.433   0.659   7.779
29500WAT      O88741   2.753   1.133   2.911
29500WAT     H188742   2.802   1.213   2.875
29500WAT     H288743   2.818   1.057   2.922
29501WAT      O88744   9.470   6.446   6.610
29501WAT     H188745   9.406   6.369   6.606
29501WAT     H288746   9.509   6.453   6.702
29502WAT      O88747   2.826   4.707   3.274
29502WAT     H188748   2.768   4.681   3.351
29502WAT     H288749   2.792   4.791   3.233
29503WAT      O88750   6.168   4.981   9.766
29503WAT     H188751   6.169   4.881   9.774
29503WAT     H288752   6.176   5.007   9.669
29504WAT      O88753   0.286   4.165   3.891
29504WAT     H188754   0.385   4.172   3.896
29504WAT     H288755   0.248   4.155   3.984
29505WAT      O88756   1.723   5.280   1.397
29505WAT     H188757   1.634   5.246   1.428
29505WAT     H288758   1.719   5.380   1.386
29506WAT      O88759   6.711   7.058   8.069
29506WAT     H188760   6.658   7.037   7.987
29506WAT     H288761   6.793   7.002   8.072
29507WAT      O88762   9.683   0.152   6.288
29507WAT     H188763   9.708   0.167   6.193
29507WAT     H288764   9.743   0.083   6.328
29508WAT      O88765   0.076   8.088   4.148
29508WAT     H188766   0.153   8.116   4.091
29508WAT     H288767   0.066   8.152   4.225
29509WAT      O88768   9.235   2.877   9.014
29509WAT     H188769   9.265   2.849   8.923
29509WAT     H288770   9.279   2.820   9.083
29510WAT      O88771   4.576   3.353   7.688
29510WAT     H188772   4.610   3.438   7.728
29510WAT     H288773   4.531   3.298   7.758
29511WAT      O88774   7.854   1.447   4.102
29511WAT     H188775   7.807   1.534   4.118
29511WAT     H288776   7.847   1.422   4.005
29512WAT      O88777   1.315   1.407   7.457
29512WAT     H188778   1.376   1.331   7.438
29512WAT     H288779   1.230   1.396   7.404
29513WAT      O88780   4.661   0.518   4.831
29513WAT     H188781   4.641   0.603   4.880
29513WAT     H288782   4.689   0.448   4.897
29514WAT      O88783   1.736   6.789   4.863
29514WAT     H188784   1.735   6.889   4.858
29514WAT     H288785   1.793   6.753   4.789
29515WAT      O88786   1.748   5.407   6.133
29515WAT     H188787   1.733   5.427   6.230
29515WAT     H288788   1.660   5.382   6.091
29516WAT      O88789   7.048   7.679   2.299
29516WAT     H188790   7.002   7.600   2.258
29516WAT     H288791   7.059   7.664   2.397
29517WAT      O88792   3.496   3.749   9.306
29517WAT     H188793   3.417   3.726   9.249
29517WAT     H288794   3.556   3.812   9.257
29518WAT      O88795   3.632   1.224   2.674
29518WAT     H188796   3.552   1.281   2.653
29518WAT     H288797   3.607   1.156   2.742
29519WAT      O88798   5.730   0.658   7.002
29519WAT     H188799   5.698   0.715   7.078
29519WAT     H288800   5.671   0.578   6.993
29520WAT      O88801   7.708   8.213   7.177
29520WAT     H188802   7.713   8.134   7.115
29520WAT     H288803   7.699   8.181   7.271
29521WAT      O88804   5.519   7.373   9.171
29521WAT     H188805   5.520   7.389   9.073
29521WAT     H288806   5.554   7.455   9.218
29522WAT      O88807   5.451   2.806   5.222
29522WAT     H188808   5.382   2.774   5.287
29522WAT     H288809   5.542   2.780   5.254
29523WAT      O88810   7.502   0.899   0.443
29523WAT     H188811   7.407   0.865   0.445
29523WAT     H288812   7.501   0.999   0.437
29524WAT      O88813   8.895   1.957   8.299
29524WAT     H188814   8.889   1.902   8.216
29524WAT     H288815   8.812   2.012   8.309
29525WAT      O88816   1.637   1.887   0.071
29525WAT     H188817   1.635   1.981   0.104
29525WAT     H288818   1.661   1.886  -0.026
29526WAT      O88819   6.088   6.256   5.525
29526WAT     H188820   6.087   6.335   5.586
29526WAT     H288821   6.113   6.286   5.433
29527WAT      O88822   5.502   7.621   5.731
29527WAT     H188823   5.594   7.582   5.736
29527WAT     H288824   5.442   7.557   5.682
29528WAT      O88825   3.406   4.051   9.372
29528WAT     H188826   3.370   3.996   9.447
29528WAT     H288827   3.480   4.001   9.326
29529WAT      O88828   4.106   3.488   4.510
29529WAT     H188829   4.156   3.541   4.442
29529WAT     H288830   4.024   3.539   4.539
29530WAT      O88831   8.307   1.179   9.605
29530WAT     H188832   8.238   1.177   9.678
29530WAT     H288833   8.359   1.093   9.605
29531WAT      O88834   0.467   3.551   0.691
29531WAT     H188835   0.371   3.526   0.683
29531WAT     H288836   0.524   3.469   0.680
29532WAT      O88837   3.718   4.329   1.166
29532WAT     H188838   3.624   4.297   1.156
29532WAT     H288839   3.763   4.329   1.077
29533WAT      O88840   0.519   5.711   7.426
29533WAT     H188841   0.548   5.639   7.489
29533WAT     H288842   0.435   5.753   7.459
29534WAT      O88843   9.669   8.267   2.920
29534WAT     H188844   9.639   8.353   2.880
29534WAT     H288845   9.597   8.198   2.909
29535WAT      O88846   0.050   8.748   8.913
29535WAT     H188847   0.101   8.673   8.873
29535WAT     H288848  -0.046   8.744   8.883
29536WAT      O88849   1.906   5.089   5.334
29536WAT     H188850   1.848   5.116   5.411
29536WAT     H288851   1.991   5.142   5.335
29537WAT      O88852   9.539   7.383   2.202
29537WAT     H188853   9.510   7.333   2.284
29537WAT     H288854   9.526   7.481   2.217
29538WAT      O88855   7.562   4.464   5.508
29538WAT     H188856   7.546   4.366   5.525
29538WAT     H288857   7.481   4.504   5.467
29539WAT      O88858   2.567   2.654   3.290
29539WAT     H188859   2.504   2.630   3.216
29539WAT     H288860   2.582   2.753   3.291
29540WAT      O88861   6.814   4.217   2.542
29540WAT     H188862   6.788   4.160   2.620
29540WAT     H288863   6.898   4.180   2.500
29541WAT      O88864   5.085   6.779   3.880
29541WAT     H188865   5.184   6.789   3.870
29541WAT     H288866   5.052   6.713   3.812
29542WAT      O88867   9.005   9.177   6.894
29542WAT     H188868   9.036   9.087   6.864
29542WAT     H288869   8.932   9.167   6.961
29543WAT      O88870   1.639   6.126   0.413
29543WAT     H188871   1.631   6.068   0.494
29543WAT     H288872   1.626   6.222   0.439
29544WAT      O88873   7.857   3.092   1.118
29544WAT     H188874   7.851   3.000   1.079
29544WAT     H288875   7.782   3.106   1.182
29545WAT      O88876   4.572   5.547   1.165
29545WAT     H188877   4.547   5.472   1.104
29545WAT     H288878   4.670   5.544   1.184
29546WAT      O88879   0.466   1.924   2.145
29546WAT     H188880   0.426   1.963   2.062
29546WAT     H288881   0.443   1.981   2.223
29547WAT      O88882   5.653   9.114   0.636
29547WAT     H188883   5.687   9.187   0.577
29547WAT     H288884   5.680   9.133   0.731
29548WAT      O88885   5.247   5.657   7.466
29548WAT     H188886   5.289   5.566   7.461
29548WAT     H288887   5.157   5.655   7.423
29549WAT      O88888   4.882   7.261   4.629
29549WAT     H188889   4.950   7.254   4.702
29549WAT     H288890   4.884   7.353   4.590
29550WAT      O88891   0.694   4.723   9.601
29550WAT     H188892   0.791   4.699   9.599
29550WAT     H288893   0.678   4.801   9.541
29551WAT      O88894   0.847   7.675   4.313
29551WAT     H188895   0.937   7.686   4.271
29551WAT     H288896   0.777   7.669   4.242
29552WAT      O88897   1.062   5.122   3.979
29552WAT     H188898   1.040   5.158   3.888
29552WAT     H288899   1.045   5.193   4.048
29553WAT      O88900   5.991   8.063   1.409
29553WAT     H188901   6.086   8.082   1.381
29553WAT     H288902   5.979   8.085   1.505
29554WAT      O88903   8.220   8.421   4.290
29554WAT     H188904   8.273   8.372   4.221
29554WAT     H288905   8.279   8.483   4.340
29555WAT      O88906   8.561   3.763   7.702
29555WAT     H188907   8.632   3.726   7.762
29555WAT     H288908   8.555   3.862   7.713
29556WAT      O88909   9.415   7.797   9.093
29556WAT     H188910   9.320   7.767   9.109
29556WAT     H288911   9.476   7.719   9.098
29557WAT      O88912   6.772   4.096   2.820
29557WAT     H188913   6.848   4.050   2.775
29557WAT     H288914   6.789   4.100   2.919
29558WAT      O88915   7.479   1.286   8.297
29558WAT     H188916   7.547   1.262   8.228
29558WAT     H288917   7.510   1.367   8.347
29559WAT      O88918   6.966   0.733   3.201
29559WAT     H188919   6.888   0.749   3.260
29559WAT     H288920   7.022   0.816   3.196
29560WAT      O88921   3.655   2.094   8.300
29560WAT     H188922   3.749   2.061   8.288
29560WAT     H288923   3.620   2.061   8.388
29561WAT      O88924   1.577   4.187   5.865
29561WAT     H188925   1.577   4.187   5.965
29561WAT     H288926   1.500   4.242   5.832
29562WAT      O88927   7.702   0.472   6.883
29562WAT     H188928   7.620   0.529   6.870
29562WAT     H288929   7.675   0.382   6.918
29563WAT      O88930   9.598   3.545   3.841
29563WAT     H188931   9.515   3.565   3.789
29563WAT     H288932   9.579   3.552   3.939
29564WAT      O88933   1.038   9.302   2.182
29564WAT     H188934   0.964   9.367   2.165
29564WAT     H288935   1.018   9.215   2.137
29565WAT      O88936   8.950   6.053   3.559
29565WAT     H188937   8.851   6.043   3.565
29565WAT     H288938   8.994   5.972   3.597
29566WAT      O88939   6.742   8.125   4.007
29566WAT     H188940   6.760   8.223   4.010
29566WAT     H288941   6.648   8.108   4.037
29567WAT      O88942   3.732   9.583   2.395
29567WAT     H188943   3.755   9.487   2.375
29567WAT     H288944   3.775   9.643   2.328
29568WAT      O88945   5.634   0.984   8.493
29568WAT     H188946   5.647   0.942   8.583
29568WAT     H288947   5.695   0.939   8.427
29569WAT      O88948   1.102   9.313   9.374
29569WAT     H188949   1.192   9.347   9.402
29569WAT     H288950   1.112   9.259   9.290
29570WAT      O88951   5.690   2.482   7.505
29570WAT     H188952   5.655   2.576   7.511
29570WAT     H288953   5.699   2.457   7.408
29571WAT      O88954   1.984   7.614   9.438
29571WAT     H188955   1.965   7.701   9.484
29571WAT     H288956   1.956   7.538   9.497
29572WAT      O88957   5.079   7.336   4.175
29572WAT     H188958   5.024   7.306   4.253
29572WAT     H288959   5.030   7.409   4.126
29573WAT      O88960   6.064   0.476   2.147
29573WAT     H188961   6.123   0.418   2.091
29573WAT     H288962   5.998   0.419   2.196
29574WAT      O88963   1.334   6.182   0.525
29574WAT     H188964   1.370   6.273   0.503
29574WAT     H288965   1.239   6.175   0.497
29575WAT      O88966   0.498   6.803   9.109
29575WAT     H188967   0.508   6.719   9.161
29575WAT     H288968   0.440   6.867   9.160
29576WAT      O88969   4.068   7.059   5.731
29576WAT     H188970   4.070   7.149   5.775
29576WAT     H288971   3.976   7.040   5.697
29577WAT      O88972   7.635   0.939   5.625
29577WAT     H188973   7.702   1.003   5.661
29577WAT     H288974   7.621   0.865   5.691
29578WAT      O88975   6.003   9.353   9.791
29578WAT     H188976   5.916   9.335   9.837
29578WAT     H288977   6.020   9.282   9.723
29579WAT      O88978   1.497   5.104   3.224
29579WAT     H188979   1.465   5.065   3.138
29579WAT     H288980   1.597   5.100   3.227
29580WAT      O88981   8.815   2.965   0.036
29580WAT     H188982   8.858   3.003  -0.047
29580WAT     H288983   8.716   2.967   0.025
29581WAT      O88984   9.479   5.894   5.201
29581WAT     H188985   9.383   5.894   5.173
29581WAT     H288986   9.507   5.988   5.221
29582WAT      O88987   0.345   0.393   4.572
29582WAT     H188988   0.437   0.424   4.548
29582WAT     H288989   0.348   0.346   4.660
29583WAT      O88990   5.241   8.468   9.359
29583WAT     H188991   5.179   8.514   9.423
29583WAT     H288992   5.311   8.420   9.411
29584WAT      O88993   1.019   0.879   1.891
29584WAT     H188994   1.018   0.905   1.795
29584WAT     H288995   1.067   0.792   1.902
29585WAT      O88996   7.576   4.350   2.632
29585WAT     H188997   7.625   4.269   2.666
29585WAT     H288998   7.601   4.429   2.689
29586WAT      O88999   5.017   8.101   0.565
29586WAT     H189000   5.084   8.137   0.631
29586WAT     H289001   5.066   8.060   0.488
29587WAT      O89002   1.766   5.779   9.412
29587WAT     H189003   1.832   5.823   9.472
29587WAT     H289004   1.808   5.762   9.323
29588WAT      O89005   8.174   3.524   3.420
29588WAT     H189006   8.209   3.510   3.327
29588WAT     H289007   8.167   3.436   3.466
29589WAT      O89008   1.834   0.189   4.577
29589WAT     H189009   1.830   0.215   4.673
29589WAT     H289010   1.748   0.144   4.551
29590WAT      O89011   6.392   6.420   6.666
29590WAT     H189012   6.354   6.363   6.739
29590WAT     H289013   6.349   6.397   6.579
29591WAT      O89014   7.162   0.349   2.024
29591WAT     H189015   7.230   0.283   1.992
29591WAT     H289016   7.111   0.310   2.100
29592WAT      O89017   2.430   7.302   5.675
29592WAT     H189018   2.386   7.324   5.588
29592WAT     H289019   2.407   7.371   5.743
29593WAT      O89020   7.932   3.368   0.288
29593WAT     H189021   7.959   3.306   0.362
29593WAT     H289022   8.013   3.412   0.250
29594WAT      O89023   2.882   2.037   2.848
29594WAT     H189024   2.877   1.976   2.769
29594WAT     H289025   2.809   2.015   2.913
29595WAT      O89026   9.561   2.218   0.290
29595WAT     H189027   9.584   2.276   0.368
29595WAT     H289028   9.473   2.174   0.306
29596WAT      O89029   3.938   7.515   2.722
29596WAT     H189030   3.865   7.448   2.707
29596WAT     H289031   3.943   7.576   2.643
29597WAT      O89032   0.371   2.119   3.919
29597WAT     H189033   0.349   2.074   3.832
29597WAT     H289034   0.451   2.178   3.906
29598WAT      O89035   3.663   0.340   6.884
29598WAT     H189036   3.677   0.439   6.886
29598WAT     H289037   3.707   0.298   6.964
29599WAT      O89038   1.087   0.260   8.754
29599WAT     H189039   1.094   0.197   8.830
29599WAT     H289040   0.999   0.309   8.759
29600WAT      O89041   5.028   9.341   5.453
29600WAT     H189042   5.034   9.339   5.553
29600WAT     H289043   5.019   9.247   5.418
29601WAT      O89044   1.312   3.061   3.613
29601WAT     H189045   1.397   3.036   3.659
29601WAT     H289046   1.234   3.028   3.666
29602WAT      O89047   7.676   0.373   6.297
29602WAT     H189048   7.682   0.409   6.390
29602WAT     H289049   7.588   0.397   6.258
29603WAT      O89050   3.572   7.625   8.971
29603WAT     H189051   3.510   7.655   9.043
29603WAT     H289052   3.567   7.688   8.894
29604WAT      O89053   6.800   9.370   2.609
29604WAT     H189054   6.847   9.290   2.647
29604WAT     H289055   6.833   9.453   2.654
29605WAT      O89056   2.144   7.081   3.251
29605WAT     H189057   2.124   7.019   3.175
29605WAT     H289058   2.226   7.050   3.298
29606WAT      O89059   5.370   7.574   7.886
29606WAT     H189060   5.408   7.597   7.797
29606WAT     H289061   5.428   7.612   7.958
29607WAT      O89062   6.387   9.061   6.747
29607WAT     H189063   6.398   8.964   6.726
29607WAT     H289064   6.334   9.105   6.674
29608WAT      O89065   6.134   7.918   2.750
29608WAT     H189066   6.111   7.851   2.679
29608WAT     H289067   6.098   7.886   2.838
29609WAT      O89068   4.897   5.525   8.849
29609WAT     H189069   4.901   5.439   8.900
29609WAT     H289070   4.812   5.573   8.871
29610WAT      O89071   2.553   8.532   7.471
29610WAT     H189072   2.556   8.512   7.569
29610WAT     H289073   2.459   8.527   7.439
29611WAT      O89074   4.679   4.693   6.910
29611WAT     H189075   4.604   4.759   6.913
29611WAT     H289076   4.733   4.708   6.827
29612WAT      O89077   7.228   8.860   6.855
29612WAT     H189078   7.307   8.801   6.835
29612WAT     H289079   7.250   8.955   6.831
29613WAT      O89080   3.110   8.083   1.344
29613WAT     H189081   3.099   8.123   1.254
29613WAT     H289082   3.105   7.983   1.337
29614WAT      O89083   3.579   4.956   9.044
29614WAT     H189084   3.628   5.003   9.118
29614WAT     H289085   3.548   4.867   9.076
29615WAT      O89086   3.406   1.326   8.663
29615WAT     H189087   3.490   1.274   8.678
29615WAT     H289088   3.344   1.313   8.741
29616WAT      O89089   8.199   4.800   6.795
29616WAT     H189090   8.162   4.880   6.747
29616WAT     H289091   8.145   4.782   6.877
29617WAT      O89092   7.352   0.605   0.808
29617WAT     H189093   7.349   0.550   0.724
29617WAT     H289094   7.370   0.545   0.886
29618WAT      O89095   7.557   0.251   2.732
29618WAT     H189096   7.551   0.187   2.655
29618WAT     H289097   7.479   0.314   2.729
29619WAT      O89098   4.844   5.834   9.261
29619WAT     H189099   4.854   5.827   9.162
29619WAT     H289100   4.924   5.793   9.306
29620WAT      O89101   7.701   7.398   3.287
29620WAT     H189102   7.601   7.389   3.285
29620WAT     H289103   7.742   7.341   3.216
29621WAT      O89104   8.111   4.739   2.695
29621WAT     H189105   8.172   4.813   2.666
29621WAT     H289106   8.124   4.660   2.635
29622WAT      O89107   8.879   6.183   6.654
29622WAT     H189108   8.787   6.167   6.617
29622WAT     H289109   8.916   6.268   6.616
29623WAT      O89110   9.194   7.758   9.454
29623WAT     H189111   9.143   7.842   9.438
29623WAT     H289112   9.209   7.711   9.366
29624WAT      O89113   3.101   4.921   8.247
29624WAT     H189114   3.026   4.917   8.181
29624WAT     H289115   3.105   5.012   8.288
29625WAT      O89116   9.734   2.501   7.733
29625WAT     H189117   9.792   2.577   7.704
29625WAT     H289118   9.707   2.514   7.829
29626WAT      O89119   3.600   4.058   7.055
29626WAT     H189120   3.590   4.156   7.069
29626WAT     H289121   3.696   4.032   7.068
29627WAT      O89122   9.584   6.598   5.099
29627WAT     H189123   9.682   6.576   5.098
29627WAT     H289124   9.534   6.522   5.140
29628WAT      O89125   8.590   5.804   1.272
29628WAT     H189126   8.624   5.799   1.366
29628WAT     H289127   8.502   5.852   1.271
29629WAT      O89128   8.285   4.451   0.533
29629WAT     H189129   8.226   4.413   0.605
29629WAT     H289130   8.340   4.524   0.572
29630WAT      O89131   9.531   2.507   6.984
29630WAT     H189132   9.506   2.510   7.081
29630WAT     H289133   9.618   2.460   6.973
29631WAT      O89134   1.773   0.321   6.823
29631WAT     H189135   1.812   0.376   6.749
29631WAT     H289136   1.682   0.356   6.846
29632WAT      O89137   9.466   4.693   3.564
29632WAT     H189138   9.419   4.710   3.651
29632WAT     H289139   9.409   4.726   3.488
29633WAT      O89140   9.726   0.904   4.585
29633WAT     H189141   9.719   0.829   4.520
29633WAT     H289142   9.646   0.964   4.576
29634WAT      O89143   5.118   7.870   9.197
29634WAT     H189144   5.134   7.875   9.296
29634WAT     H289145   5.064   7.949   9.169
29635WAT      O89146   6.649   2.986   7.962
29635WAT     H189147   6.621   2.890   7.958
29635WAT     H289148   6.722   3.002   7.895
29636WAT      O89149   9.703   3.640   7.570
29636WAT     H189150   9.677   3.650   7.474
29636WAT     H289151   9.751   3.722   7.600
29637WAT      O89152   3.742   9.258   3.419
29637WAT     H189153   3.674   9.198   3.459
29637WAT     H289154   3.826   9.207   3.401
29638WAT      O89155   9.820   2.088   1.347
29638WAT     H189156   9.890   2.064   1.280
29638WAT     H289157   9.830   2.030   1.428
29639WAT      O89158   7.616   6.630   5.429
29639WAT     H189159   7.582   6.627   5.523
29639WAT     H289160   7.665   6.716   5.415
29640WAT      O89161   2.814   9.050   5.919
29640WAT     H189162   2.728   9.026   5.964
29640WAT     H289163   2.851   9.133   5.961
29641WAT      O89164   7.707   8.269   3.437
29641WAT     H189165   7.793   8.261   3.386
29641WAT     H289166   7.695   8.363   3.467
29642WAT      O89167   9.448   3.606   6.228
29642WAT     H189168   9.391   3.684   6.253
29642WAT     H289169   9.477   3.615   6.132
29643WAT      O89170   2.163   3.600   6.523
29643WAT     H189171   2.171   3.623   6.620
29643WAT     H289172   2.194   3.677   6.467
29644WAT      O89173   3.370   5.013   6.611
29644WAT     H189174   3.371   5.111   6.627
29644WAT     H289175   3.321   4.994   6.526
29645WAT      O89176   2.157   3.416   9.488
29645WAT     H189177   2.197   3.338   9.535
29645WAT     H289178   2.184   3.500   9.535
29646WAT      O89179   0.693   3.303   5.979
29646WAT     H189180   0.654   3.243   5.910
29646WAT     H289181   0.648   3.392   5.975
29647WAT      O89182   5.866   7.949   3.474
29647WAT     H189183   5.781   7.963   3.525
29647WAT     H289184   5.939   7.925   3.537
29648WAT      O89185   3.898   7.019   2.218
29648WAT     H189186   3.901   6.958   2.139
29648WAT     H289187   3.978   7.003   2.276
29649WAT      O89188   1.142   3.858   9.278
29649WAT     H189189   1.071   3.902   9.224
29649WAT     H289190   1.194   3.795   9.221
29650WAT      O89191   0.961   8.423   0.025
29650WAT     H189192   0.872   8.452  -0.009
29650WAT     H289193   1.021   8.503   0.032
29651WAT      O89194   4.379   5.870   6.341
29651WAT     H189195   4.370   5.772   6.320
29651WAT     H289196   4.457   5.907   6.289
29652WAT      O89197   3.167   8.097   6.518
29652WAT     H189198   3.263   8.070   6.521
29652WAT     H289199   3.145   8.150   6.600
29653WAT      O89200   0.607   9.601   7.892
29653WAT     H189201   0.669   9.566   7.962
29653WAT     H289202   0.528   9.645   7.936
29654WAT      O89203   4.058   3.229   0.239
29654WAT     H189204   4.004   3.285   0.176
29654WAT     H289205   3.998   3.160   0.280
29655WAT      O89206   3.658   0.599   4.273
29655WAT     H189207   3.640   0.680   4.216
29655WAT     H289208   3.737   0.617   4.332
29656WAT      O89209   0.207   5.567   5.732
29656WAT     H189210   0.297   5.604   5.707
29656WAT     H289211   0.184   5.492   5.670
29657WAT      O89212   3.686   0.276   0.009
29657WAT     H189213   3.765   0.337   0.013
29657WAT     H289214   3.637   0.278   0.096
29658WAT      O89215   6.747   2.322   3.981
29658WAT     H189216   6.836   2.329   3.935
29658WAT     H289217   6.715   2.227   3.976
29659WAT      O89218   2.022   0.010   8.183
29659WAT     H189219   2.019   0.072   8.105
29659WAT     H289220   2.101  -0.051   8.174
29660WAT      O89221   2.061   4.810   2.764
29660WAT     H189222   2.104   4.900   2.758
29660WAT     H289223   2.030   4.781   2.674
29661WAT      O89224   7.726   5.480   3.289
29661WAT     H189225   7.719   5.393   3.240
29661WAT     H289226   7.822   5.500   3.308
29662WAT      O89227   5.601   5.220   4.105
29662WAT     H189228   5.643   5.234   4.195
29662WAT     H289229   5.666   5.246   4.033
29663WAT      O89230   2.225   4.154   9.876
29663WAT     H189231   2.205   4.058   9.859
29663WAT     H289232   2.206   4.207   9.793
29664WAT      O89233   9.380   8.938   0.678
29664WAT     H189234   9.453   8.962   0.741
29664WAT     H289235   9.292   8.940   0.726
29665WAT      O89236   0.755   5.065   1.356
29665WAT     H189237   0.755   5.135   1.284
29665WAT     H289238   0.804   5.100   1.436
29666WAT      O89239   5.274   3.945   7.506
29666WAT     H189240   5.354   3.991   7.468
29666WAT     H289241   5.286   3.846   7.501
29667WAT      O89242   3.920   6.651   3.571
29667WAT     H189243   3.832   6.635   3.617
29667WAT     H289244   3.917   6.612   3.480
29668WAT      O89245   7.890   6.835   6.938
29668WAT     H189246   7.841   6.749   6.956
29668WAT     H289247   7.982   6.830   6.977
29669WAT      O89248   7.895   8.679   3.039
29669WAT     H189249   7.889   8.587   3.000
29669WAT     H289250   7.924   8.744   2.968
29670WAT      O89251   8.445   0.052   8.728
29670WAT     H189252   8.406   0.053   8.820
29670WAT     H289253   8.432  -0.038   8.687
29671WAT      O89254   1.740   1.957   7.435
29671WAT     H189255   1.758   1.866   7.400
29671WAT     H289256   1.642   1.966   7.457
29672WAT      O89257   6.658   1.010   8.904
29672WAT     H189258   6.727   0.938   8.900
29672WAT     H289259   6.676   1.069   8.982
29673WAT      O89260   5.184   3.362   2.944
29673WAT     H189261   5.210   3.265   2.943
29673WAT     H289262   5.105   3.374   3.004
29674WAT      O89263   5.797   3.965   5.874
29674WAT     H189264   5.755   3.947   5.785
29674WAT     H289265   5.776   3.890   5.937
29675WAT      O89266   8.126   3.995   5.747
29675WAT     H189267   8.088   4.083   5.718
29675WAT     H289268   8.194   3.964   5.680
29676WAT      O89269   3.997   2.482   5.451
29676WAT     H189270   4.036   2.554   5.509
29676WAT     H289271   3.932   2.427   5.504
29677WAT      O89272   4.223   7.335   0.414
29677WAT     H189273   4.166   7.374   0.341
29677WAT     H289274   4.165   7.284   0.477
29678WAT      O89275   6.474   1.712   0.220
29678WAT     H189276   6.571   1.693   0.207
29678WAT     H289277   6.431   1.635   0.267
29679WAT      O89278   5.000   2.650   2.320
29679WAT     H189279   4.962   2.639   2.228
29679WAT     H289280   4.930   2.691   2.380
29680WAT      O89281   5.958   2.204   2.352
29680WAT     H189282   5.942   2.253   2.438
29680WAT     H289283   5.872   2.162   2.322
29681WAT      O89284   3.373   8.483   9.682
29681WAT     H189285   3.410   8.560   9.631
29681WAT     H289286   3.316   8.427   9.622
29682WAT      O89287   4.649   8.087   0.213
29682WAT     H189288   4.710   8.075   0.135
29682WAT     H289289   4.563   8.128   0.182
29683WAT      O89290   1.570   7.430   1.640
29683WAT     H189291   1.563   7.528   1.624
29683WAT     H289292   1.648   7.393   1.588
29684WAT      O89293   1.490   8.970   7.850
29684WAT     H189294   1.588   8.949   7.843
29684WAT     H289295   1.469   9.051   7.797
29685WAT      O89296   7.459   8.231   3.332
29685WAT     H189297   7.461   8.239   3.232
29685WAT     H289298   7.552   8.234   3.367
29686WAT      O89299   3.075   3.929   8.144
29686WAT     H189300   3.088   4.027   8.137
29686WAT     H289301   3.018   3.897   8.068
29687WAT      O89302   0.950   6.172   1.981
29687WAT     H189303   1.042   6.185   2.016
29687WAT     H289304   0.947   6.200   1.885
29688WAT      O89305   2.680   0.376   4.608
29688WAT     H189306   2.616   0.392   4.683
29688WAT     H289307   2.740   0.455   4.598
29689WAT      O89308   0.671   3.354   9.720
29689WAT     H189309   0.597   3.421   9.717
29689WAT     H289310   0.747   3.384   9.663
29690WAT      O89311   2.434   3.809   3.682
29690WAT     H189312   2.442   3.727   3.738
29690WAT     H289313   2.418   3.783   3.587
29691WAT      O89314   6.106   8.272   8.509
29691WAT     H189315   6.090   8.234   8.418
29691WAT     H289316   6.178   8.221   8.555
29692WAT      O89317   8.803   2.846   5.091
29692WAT     H189318   8.715   2.856   5.045
29692WAT     H289319   8.789   2.839   5.190
29693WAT      O89320   8.783   8.577   9.482
29693WAT     H189321   8.794   8.505   9.551
29693WAT     H289322   8.688   8.580   9.451
29694WAT      O89323   4.634   3.441   3.396
29694WAT     H189324   4.565   3.386   3.348
29694WAT     H289325   4.606   3.454   3.491
29695WAT      O89326   5.724   0.237   3.471
29695WAT     H189327   5.770   0.193   3.549
29695WAT     H289328   5.626   0.220   3.476
29696WAT      O89329   9.865   3.794   1.711
29696WAT     H189330   9.887   3.856   1.636
29696WAT     H289331   9.938   3.797   1.779
29697WAT      O89332   8.994   8.586   1.664
29697WAT     H189333   9.042   8.633   1.590
29697WAT     H289334   9.047   8.592   1.748
29698WAT      O89335   1.058   0.979   2.332
29698WAT     H189336   1.032   1.040   2.257
29698WAT     H289337   0.981   0.971   2.396
29699WAT      O89338   2.901   7.813   9.656
29699WAT     H189339   2.837   7.788   9.583
29699WAT     H289340   2.946   7.899   9.634
29700WAT      O89341   4.518   6.054   3.923
29700WAT     H189342   4.564   6.114   3.856
29700WAT     H289343   4.542   6.084   4.015
29701WAT      O89344   9.004   2.971   4.924
29701WAT     H189345   8.930   2.992   4.988
29701WAT     H289346   8.978   3.002   4.832
29702WAT      O89347   1.800   5.148   6.346
29702WAT     H189348   1.763   5.230   6.303
29702WAT     H289349   1.727   5.083   6.365
29703WAT      O89350   8.222   3.105   4.975
29703WAT     H189351   8.285   3.174   4.939
29703WAT     H289352   8.217   3.113   5.074
29704WAT      O89353   2.662   1.193   0.356
29704WAT     H189354   2.603   1.273   0.345
29704WAT     H289355   2.753   1.222   0.386
29705WAT      O89356   2.698   5.831   0.928
29705WAT     H189357   2.736   5.876   0.847
29705WAT     H289358   2.632   5.893   0.971
29706WAT      O89359   2.792   0.232   4.878
29706WAT     H189360   2.856   0.304   4.852
29706WAT     H289361   2.792   0.161   4.808
29707WAT      O89362   2.832   7.561   2.928
29707WAT     H189363   2.757   7.526   2.872
29707WAT     H289364   2.828   7.518   3.018
29708WAT      O89365   0.995   3.231   7.194
29708WAT     H189366   0.988   3.228   7.094
29708WAT     H289367   0.936   3.161   7.234
29709WAT      O89368   7.245   4.413   6.240
29709WAT     H189369   7.320   4.471   6.208
29709WAT     H289370   7.233   4.336   6.177
29710WAT      O89371   2.797   8.163   1.480
29710WAT     H189372   2.718   8.221   1.501
29710WAT     H289373   2.822   8.174   1.384
29711WAT      O89374   3.770   5.581   6.066
29711WAT     H189375   3.748   5.498   6.015
29711WAT     H289376   3.751   5.566   6.163
29712WAT      O89377   0.418   3.723   7.107
29712WAT     H189378   0.318   3.712   7.110
29712WAT     H289379   0.446   3.744   7.013
29713WAT      O89380   5.068   2.184   9.587
29713WAT     H189381   4.987   2.238   9.609
29713WAT     H289382   5.114   2.156   9.671
29714WAT      O89383   8.056   2.420   2.609
29714WAT     H189384   8.002   2.460   2.683
29714WAT     H289385   8.063   2.321   2.623
29715WAT      O89386   4.924   0.845   0.056
29715WAT     H189387   4.959   0.891  -0.026
29715WAT     H289388   4.932   0.906   0.134
29716WAT      O89389   7.930   5.568   2.010
29716WAT     H189390   7.970   5.540   1.922
29716WAT     H289391   7.990   5.635   2.054
29717WAT      O89392   6.920   0.777   4.823
29717WAT     H189393   6.919   0.680   4.802
29717WAT     H289394   6.918   0.791   4.922
29718WAT      O89395   7.885   7.395   4.714
29718WAT     H189396   7.898   7.376   4.812
29718WAT     H289397   7.795   7.361   4.685
29719WAT      O89398   8.130   4.601   9.105
29719WAT     H189399   8.202   4.668   9.126
29719WAT     H289400   8.068   4.640   9.037
29720WAT      O89401   0.151   6.058   4.294
29720WAT     H189402   0.230   6.091   4.346
29720WAT     H289403   0.131   6.121   4.220
29721WAT      O89404   0.668   6.881   4.499
29721WAT     H189405   0.709   6.965   4.535
29721WAT     H289406   0.711   6.801   4.542
29722WAT      O89407   4.188   3.239   0.883
29722WAT     H189408   4.094   3.205   0.874
29722WAT     H289409   4.246   3.167   0.920
29723WAT      O89410   4.754   7.782   1.715
29723WAT     H189411   4.797   7.814   1.800
29723WAT     H289412   4.732   7.685   1.725
29724WAT      O89413   3.638   5.752   8.161
29724WAT     H189414   3.630   5.736   8.062
29724WAT     H289415   3.670   5.845   8.176
29725WAT      O89416   3.416   0.498   6.224
29725WAT     H189417   3.443   0.403   6.207
29725WAT     H289418   3.371   0.504   6.313
29726WAT      O89419   1.550   7.002   1.047
29726WAT     H189420   1.495   7.083   1.065
29726WAT     H289421   1.640   7.028   1.014
29727WAT      O89422   0.532   1.109   9.327
29727WAT     H189423   0.561   1.164   9.249
29727WAT     H289424   0.451   1.151   9.369
29728WAT      O89425   1.161   5.776   6.723
29728WAT     H189426   1.208   5.792   6.810
29728WAT     H289427   1.220   5.721   6.664
29729WAT      O89428   1.175   5.792   1.848
29729WAT     H189429   1.090   5.827   1.888
29729WAT     H289430   1.186   5.829   1.756
29730WAT      O89431   5.463   6.502   5.077
29730WAT     H189432   5.440   6.407   5.057
29730WAT     H289433   5.500   6.546   4.994
29731WAT      O89434   8.639   6.467   8.696
29731WAT     H189435   8.630   6.368   8.685
29731WAT     H289436   8.688   6.505   8.617
29732WAT      O89437   6.957   6.169   9.271
29732WAT     H189438   6.912   6.225   9.201
29732WAT     H289439   6.969   6.223   9.354
29733WAT      O89440   6.773   9.675   4.079
29733WAT     H189441   6.825   9.617   4.142
29733WAT     H289442   6.742   9.620   4.002
29734WAT      O89443   0.208   3.589   1.601
29734WAT     H189444   0.266   3.525   1.651
29734WAT     H289445   0.113   3.557   1.603
29735WAT      O89446   6.505   2.061   0.611
29735WAT     H189447   6.428   2.072   0.547
29735WAT     H289448   6.513   1.965   0.636
29736WAT      O89449   0.487   0.167   2.699
29736WAT     H189450   0.535   0.249   2.668
29736WAT     H289451   0.543   0.120   2.767
29737WAT      O89452   0.751   3.633   7.205
29737WAT     H189453   0.661   3.634   7.250
29737WAT     H289454   0.739   3.621   7.107
29738WAT      O89455   6.626   3.603   7.303
29738WAT     H189456   6.663   3.537   7.238
29738WAT     H289457   6.530   3.580   7.323
29739WAT      O89458   9.795   8.203   3.562
29739WAT     H189459   9.833   8.287   3.524
29739WAT     H289460   9.845   8.178   3.645
29740WAT      O89461   3.989   9.303   0.156
29740WAT     H189462   3.989   9.231   0.225
29740WAT     H289463   3.973   9.391   0.201
29741WAT      O89464   8.627   8.370   4.515
29741WAT     H189465   8.582   8.371   4.604
29741WAT     H289466   8.724   8.389   4.526
29742WAT      O89467   8.237   7.540   2.160
29742WAT     H189468   8.297   7.534   2.239
29742WAT     H289469   8.199   7.449   2.141
29743WAT      O89470   0.578   8.195   2.097
29743WAT     H189471   0.494   8.171   2.049
29743WAT     H289472   0.598   8.292   2.083
29744WAT      O89473   9.145   9.204   1.324
29744WAT     H189474   9.243   9.218   1.308
29744WAT     H289475   9.095   9.221   1.239
29745WAT      O89476   5.859   9.315   2.181
29745WAT     H189477   5.951   9.351   2.193
29745WAT     H289478   5.860   9.215   2.190
29746WAT      O89479   1.771   7.049   6.783
29746WAT     H189480   1.826   7.053   6.866
29746WAT     H289481   1.722   7.136   6.771
29747WAT      O89482   5.836   4.706   1.560
29747WAT     H189483   5.911   4.758   1.520
29747WAT     H289484   5.754   4.763   1.566
29748WAT      O89485   9.360   5.896   0.488
29748WAT     H189486   9.447   5.898   0.538
29748WAT     H289487   9.373   5.846   0.402
29749WAT      O89488   6.377   8.536   5.168
29749WAT     H189489   6.324   8.452   5.175
29749WAT     H289490   6.442   8.529   5.092
29750WAT      O89491   6.971   1.489   6.037
29750WAT     H189492   7.017   1.400   6.046
29750WAT     H289493   7.026   1.548   5.978
29751WAT      O89494   2.671   2.321   9.167
29751WAT     H189495   2.574   2.296   9.173
29751WAT     H289496   2.726   2.238   9.154
29752WAT      O89497   0.992   6.571   6.229
29752WAT     H189498   0.968   6.645   6.293
29752WAT     H289499   1.091   6.568   6.218
29753WAT      O89500   3.910   2.662   2.844
29753WAT     H189501   3.911   2.599   2.922
29753WAT     H289502   4.003   2.677   2.812
29754WAT      O89503   8.095   6.502   6.196
29754WAT     H189504   8.036   6.529   6.120
29754WAT     H289505   8.038   6.474   6.274
29755WAT      O89506   6.090   6.180   8.210
29755WAT     H189507   6.164   6.121   8.179
29755WAT     H289508   6.106   6.273   8.179
29756WAT      O89509   7.139   7.226   8.203
29756WAT     H189510   7.139   7.320   8.238
29756WAT     H289511   7.100   7.225   8.111
29757WAT      O89512   0.275   2.330   4.548
29757WAT     H189513   0.180   2.331   4.516
29757WAT     H289514   0.335   2.308   4.471
29758WAT      O89515   2.995   5.106   0.456
29758WAT     H189516   2.981   5.053   0.539
29758WAT     H289517   2.907   5.128   0.414
29759WAT      O89518   2.794   1.687   2.586
29759WAT     H189519   2.764   1.638   2.668
29759WAT     H289520   2.892   1.703   2.590
29760WAT      O89521   5.096   0.709   2.261
29760WAT     H189522   5.130   0.696   2.168
29760WAT     H289523   4.996   0.711   2.261
29761WAT      O89524   7.920   0.643   5.597
29761WAT     H189525   7.951   0.683   5.683
29761WAT     H289526   7.963   0.692   5.521
29762WAT      O89527   1.278   9.704   8.226
29762WAT     H189528   1.361   9.665   8.185
29762WAT     H289529   1.208   9.714   8.156
29763WAT      O89530   4.488   1.144   3.466
29763WAT     H189531   4.479   1.080   3.542
29763WAT     H289532   4.488   1.094   3.379
29764WAT      O89533   3.826   0.350   8.489
29764WAT     H189534   3.906   0.290   8.483
29764WAT     H289535   3.851   0.434   8.538
29765WAT      O89536   1.369   5.528   6.638
29765WAT     H189537   1.329   5.454   6.693
29765WAT     H289538   1.463   5.543   6.665
29766WAT      O89539   5.207   6.244   4.917
29766WAT     H189540   5.178   6.188   4.995
29766WAT     H289541   5.307   6.241   4.909
29767WAT      O89542   5.436   7.534   6.119
29767WAT     H189543   5.462   7.617   6.071
29767WAT     H289544   5.454   7.454   6.062
29768WAT      O89545   0.114   1.282   6.859
29768WAT     H189546   0.207   1.314   6.879
29768WAT     H289547   0.117   1.215   6.784
29769WAT      O89548   2.050   1.613   4.000
29769WAT     H189549   1.989   1.678   4.046
29769WAT     H289550   2.104   1.662   3.932
29770WAT      O89551   6.231   8.313   1.885
29770WAT     H189552   6.286   8.233   1.861
29770WAT     H289553   6.237   8.380   1.811
29771WAT      O89554   7.404   2.979   9.094
29771WAT     H189555   7.355   2.898   9.125
29771WAT     H289556   7.400   2.984   8.994
29772WAT      O89557   4.322   6.890   2.189
29772WAT     H189558   4.339   6.938   2.104
29772WAT     H289559   4.407   6.882   2.241
29773WAT      O89560   4.449   5.130   7.913
29773WAT     H189561   4.478   5.224   7.897
29773WAT     H289562   4.414   5.120   8.006
29774WAT      O89563   4.566   6.846   5.013
29774WAT     H189564   4.660   6.819   5.033
29774WAT     H289565   4.506   6.768   5.027
29775WAT      O89566   0.903   3.945   9.124
29775WAT     H189567   0.880   3.956   9.221
29775WAT     H289568   0.889   3.850   9.097
29776WAT      O89569   9.540   5.009   7.743
29776WAT     H189570   9.493   5.014   7.831
29776WAT     H289571   9.499   4.937   7.687
29777WAT      O89572   2.296   3.442   3.831
29777WAT     H189573   2.369   3.375   3.842
29777WAT     H289574   2.266   3.474   3.920
29778WAT      O89575   1.777   5.437   9.178
29778WAT     H189576   1.706   5.505   9.161
29778WAT     H289577   1.867   5.481   9.177
29779WAT      O89578   8.745   3.601   9.050
29779WAT     H189579   8.785   3.512   9.074
29779WAT     H289580   8.749   3.662   9.129
29780WAT      O89581   4.857   7.256   3.668
29780WAT     H189582   4.938   7.252   3.727
29780WAT     H289583   4.882   7.227   3.576
29781WAT      O89584   7.652   2.887   4.613
29781WAT     H189585   7.621   2.954   4.681
29781WAT     H289586   7.738   2.847   4.643
29782WAT      O89587   0.819   0.495   0.152
29782WAT     H189588   0.770   0.580   0.171
29782WAT     H289589   0.755   0.418   0.159
29783WAT      O89590   1.492   4.345   9.769
29783WAT     H189591   1.525   4.433   9.734
29783WAT     H289592   1.392   4.342   9.762
29784WAT      O89593   4.617   3.965   8.951
29784WAT     H189594   4.666   4.040   8.906
29784WAT     H289595   4.552   3.925   8.887
29785WAT      O89596   7.835   3.358   9.861
29785WAT     H189597   7.881   3.359   9.949
29785WAT     H289598   7.796   3.448   9.843
29786WAT      O89599   3.461   9.441   1.167
29786WAT     H189600   3.422   9.362   1.121
29786WAT     H289601   3.561   9.438   1.159
29787WAT      O89602   4.692   4.806   5.299
29787WAT     H189603   4.692   4.706   5.309
29787WAT     H289604   4.745   4.831   5.218
29788WAT      O89605   2.904   2.920   9.100
29788WAT     H189606   2.946   2.939   9.011
29788WAT     H289607   2.823   2.979   9.112
29789WAT      O89608   7.792   1.966   5.457
29789WAT     H189609   7.696   1.972   5.484
29789WAT     H289610   7.812   2.035   5.388
29790WAT      O89611   5.108   8.085   4.744
29790WAT     H189612   5.121   8.115   4.838
29790WAT     H289613   5.029   8.132   4.704
29791WAT      O89614   3.396   0.043   8.541
29791WAT     H189615   3.327   0.006   8.603
29791WAT     H289616   3.380   0.007   8.449
29792WAT      O89617   3.211   9.515   0.801
29792WAT     H189618   3.219   9.550   0.707
29792WAT     H289619   3.114   9.504   0.824
29793WAT      O89620   1.291   4.720   3.171
29793WAT     H189621   1.375   4.734   3.222
29793WAT     H289622   1.274   4.799   3.112
29794WAT      O89623   2.370   3.744   7.422
29794WAT     H189624   2.349   3.840   7.439
29794WAT     H289625   2.368   3.725   7.324
29795WAT      O89626   6.036   8.035   5.907
29795WAT     H189627   6.114   7.973   5.907
29795WAT     H289628   6.066   8.127   5.933
29796WAT      O89629   6.381   4.148   4.889
29796WAT     H189630   6.299   4.178   4.940
29796WAT     H289631   6.447   4.223   4.885
29797WAT      O89632   6.568   1.763   1.731
29797WAT     H189633   6.658   1.755   1.689
29797WAT     H289634   6.578   1.782   1.828
29798WAT      O89635   2.805   9.054   7.182
29798WAT     H189636   2.804   8.993   7.102
29798WAT     H289637   2.718   9.047   7.230
29799WAT      O89638   9.494   8.379   6.433
29799WAT     H189639   9.482   8.281   6.447
29799WAT     H289640   9.442   8.429   6.503
29800WAT      O89641   2.446   0.557   6.948
29800WAT     H189642   2.450   0.471   6.896
29800WAT     H289643   2.498   0.627   6.900
29801WAT      O89644   5.593   9.679   0.910
29801WAT     H189645   5.553   9.704   0.998
29801WAT     H289646   5.687   9.714   0.906
29802WAT      O89647   0.960   7.177   6.404
29802WAT     H189648   0.938   7.242   6.477
29802WAT     H289649   1.042   7.126   6.430
29803WAT      O89650   4.956   2.970   9.508
29803WAT     H189651   4.948   2.971   9.607
29803WAT     H289652   4.915   2.886   9.472
29804WAT      O89653   8.249   7.546   0.031
29804WAT     H189654   8.336   7.528  -0.016
29804WAT     H289655   8.187   7.469   0.014
29805WAT      O89656   8.698   0.443   8.918
29805WAT     H189657   8.606   0.476   8.897
29805WAT     H289658   8.754   0.441   8.834
29806WAT      O89659   0.930   3.687   8.386
29806WAT     H189660   0.948   3.603   8.335
29806WAT     H289661   0.979   3.764   8.344
29807WAT      O89662   7.857   2.669   0.731
29807WAT     H189663   7.897   2.754   0.766
29807WAT     H289664   7.784   2.639   0.794
29808WAT      O89665   1.069   9.784   4.369
29808WAT     H189666   1.086   9.751   4.462
29808WAT     H289667   1.113   9.722   4.303
29809WAT      O89668   6.646   9.615   0.862
29809WAT     H189669   6.639   9.527   0.815
29809WAT     H289670   6.609   9.688   0.804
29810WAT      O89671   0.409   9.528   1.202
29810WAT     H189672   0.410   9.439   1.247
29810WAT     H289673   0.332   9.582   1.237
29811WAT      O89674   9.504   8.800   4.308
29811WAT     H189675   9.457   8.790   4.396
29811WAT     H289676   9.470   8.732   4.244
29812WAT      O89677   0.208   0.285   5.464
29812WAT     H189678   0.257   0.334   5.536
29812WAT     H289679   0.162   0.205   5.504
29813WAT      O89680   6.293   5.614   3.252
29813WAT     H189681   6.291   5.529   3.305
29813WAT     H289682   6.322   5.689   3.312
29814WAT      O89683   7.543   1.038   5.178
29814WAT     H189684   7.463   1.010   5.124
29814WAT     H289685   7.570   0.962   5.238
29815WAT      O89686   3.464   8.323   8.712
29815WAT     H189687   3.437   8.243   8.657
29815WAT     H289688   3.387   8.387   8.717
29816WAT      O89689   3.152   7.688   5.543
29816WAT     H189690   3.063   7.719   5.509
29816WAT     H289691   3.163   7.717   5.638
29817WAT      O89692   4.250   4.091   9.077
29817WAT     H189693   4.306   4.096   9.160
29817WAT     H289694   4.285   4.156   9.009
29818WAT      O89695   8.533   0.240   5.402
29818WAT     H189696   8.611   0.298   5.378
29818WAT     H289697   8.469   0.237   5.326
29819WAT      O89698   5.322   4.673   9.231
29819WAT     H189699   5.344   4.708   9.139
29819WAT     H289700   5.299   4.576   9.225
29820WAT      O89701   9.106   5.254   7.557
29820WAT     H189702   9.138   5.307   7.635
29820WAT     H289703   9.035   5.191   7.588
29821WAT      O89704   3.854   6.135   5.224
29821WAT     H189705   3.822   6.116   5.131
29821WAT     H289706   3.953   6.121   5.228
29822WAT      O89707   5.712   2.969   3.328
29822WAT     H189708   5.685   2.875   3.305
29822WAT     H289709   5.696   3.028   3.249
29823WAT      O89710   9.259   8.037   9.802
29823WAT     H189711   9.322   7.998   9.735
29823WAT     H289712   9.308   8.104   9.858
29824WAT      O89713   0.063   9.457   5.875
29824WAT     H189714  -0.027   9.459   5.832
29824WAT     H289715   0.120   9.529   5.836
29825WAT      O89716   8.308   0.228   9.645
29825WAT     H189717   8.279   0.143   9.602
29825WAT     H289718   8.351   0.288   9.577
29826WAT      O89719   1.215   0.331   7.994
29826WAT     H189720   1.202   0.406   7.930
29826WAT     H289721   1.147   0.259   7.974
29827WAT      O89722   4.274   6.129   6.347
29827WAT     H189723   4.340   6.066   6.306
29827WAT     H289724   4.318   6.182   6.419
29828WAT      O89725   6.739   0.917   3.322
29828WAT     H189726   6.787   0.986   3.268
29828WAT     H289727   6.674   0.962   3.383
29829WAT      O89728   1.401   0.150   3.546
29829WAT     H189729   1.332   0.223   3.551
29829WAT     H289730   1.365   0.068   3.590
29830WAT      O89731   3.425   6.473   9.541
29830WAT     H189732   3.441   6.396   9.603
29830WAT     H289733   3.398   6.554   9.594
29831WAT      O89734   9.541   8.787   9.713
29831WAT     H189735   9.535   8.690   9.736
29831WAT     H289736   9.488   8.840   9.780
29832WAT      O89737   6.748   6.010   5.463
29832WAT     H189738   6.811   5.968   5.529
29832WAT     H289739   6.796   6.082   5.413
29833WAT      O89740   4.372   3.631   7.632
29833WAT     H189741   4.397   3.548   7.583
29833WAT     H289742   4.402   3.711   7.579
29834WAT      O89743   8.588   4.140   3.293
29834WAT     H189744   8.670   4.171   3.245
29834WAT     H289745   8.574   4.042   3.277
29835WAT      O89746   5.730   7.947   0.261
29835WAT     H189747   5.759   7.855   0.287
29835WAT     H289748   5.658   7.940   0.191
29836WAT      O89749   9.308   7.232   3.705
29836WAT     H189750   9.386   7.223   3.644
29836WAT     H289751   9.269   7.142   3.724
29837WAT      O89752   2.594   9.548   5.044
29837WAT     H189753   2.602   9.633   4.991
29837WAT     H289754   2.586   9.570   5.141
29838WAT      O89755   3.975   8.149   5.559
29838WAT     H189756   4.010   8.197   5.639
29838WAT     H289757   4.028   8.177   5.478
29839WAT      O89758   0.158   0.381   0.854
29839WAT     H189759   0.203   0.373   0.943
29839WAT     H289760   0.221   0.354   0.781
29840WAT      O89761   3.844   8.664   3.647
29840WAT     H189762   3.880   8.629   3.560
29840WAT     H289763   3.804   8.755   3.632
29841WAT      O89764   9.023   3.818   5.749
29841WAT     H189765   9.107   3.832   5.801
29841WAT     H289766   8.944   3.823   5.811
29842WAT      O89767   9.324   2.649   3.466
29842WAT     H189768   9.294   2.735   3.425
29842WAT     H289769   9.350   2.585   3.393
29843WAT      O89770   9.704   6.682   9.680
29843WAT     H189771   9.790   6.641   9.709
29843WAT     H289772   9.645   6.612   9.639
29844WAT      O89773   4.317   4.679   2.954
29844WAT     H189774   4.320   4.625   3.038
29844WAT     H289775   4.341   4.621   2.876
29845WAT      O89776   0.395   8.958   8.270
29845WAT     H189777   0.418   8.940   8.365
29845WAT     H289778   0.476   8.943   8.213
29846WAT      O89779   1.608   8.137   7.198
29846WAT     H189780   1.706   8.151   7.209
29846WAT     H289781   1.580   8.056   7.249
29847WAT      O89782   2.475   6.636   6.034
29847WAT     H189783   2.381   6.601   6.029
29847WAT     H289784   2.473   6.729   6.071
29848WAT      O89785   4.455   4.772   6.753
29848WAT     H189786   4.373   4.730   6.791
29848WAT     H289787   4.487   4.720   6.674
29849WAT      O89788   6.156   3.096   8.226
29849WAT     H189789   6.153   3.156   8.306
29849WAT     H289790   6.068   3.099   8.179
29850WAT      O89791   2.737   2.436   4.402
29850WAT     H189792   2.718   2.343   4.369
29850WAT     H289793   2.834   2.456   4.392
29851WAT      O89794   7.621   5.445   0.689
29851WAT     H189795   7.546   5.491   0.737
29851WAT     H289796   7.704   5.500   0.697
29852WAT      O89797   6.096   6.748   8.177
29852WAT     H189798   6.108   6.650   8.161
29852WAT     H289799   6.186   6.791   8.191
29853WAT      O89800   1.281   3.102   3.116
29853WAT     H189801   1.355   3.143   3.169
29853WAT     H289802   1.214   3.173   3.093
29854WAT      O89803   7.149   0.835   8.725
29854WAT     H189804   7.117   0.857   8.633
29854WAT     H289805   7.247   0.854   8.732
29855WAT      O89806   3.606   6.071   6.532
29855WAT     H189807   3.690   6.118   6.562
29855WAT     H289808   3.560   6.125   6.462
29856WAT      O89809   6.178   5.783   9.406
29856WAT     H189810   6.244   5.772   9.332
29856WAT     H289811   6.102   5.720   9.393
29857WAT      O89812   2.379   7.387   6.064
29857WAT     H189813   2.346   7.423   6.151
29857WAT     H289814   2.339   7.440   5.989
29858WAT      O89815   3.372   8.506   6.505
29858WAT     H189816   3.397   8.491   6.410
29858WAT     H289817   3.276   8.531   6.511
29859WAT      O89818   1.659   8.527   3.245
29859WAT     H189819   1.695   8.618   3.266
29859WAT     H289820   1.710   8.487   3.169
29860WAT      O89821   1.224   5.349   5.015
29860WAT     H189822   1.237   5.428   5.075
29860WAT     H289823   1.143   5.298   5.045
29861WAT      O89824   5.234   2.318   8.716
29861WAT     H189825   5.237   2.321   8.815
29861WAT     H289826   5.139   2.303   8.686
29862WAT      O89827   7.508   5.809   0.182
29862WAT     H189828   7.573   5.868   0.134
29862WAT     H289829   7.467   5.745   0.118
29863WAT      O89830   3.035   0.218   7.237
29863WAT     H189831   2.964   0.228   7.306
29863WAT     H289832   3.124   0.241   7.278
29864WAT      O89833   1.430   6.332   7.611
29864WAT     H189834   1.514   6.311   7.560
29864WAT     H289835   1.353   6.285   7.568
29865WAT      O89836   4.078   4.437   2.118
29865WAT     H189837   4.121   4.369   2.178
29865WAT     H289838   3.987   4.405   2.092
29866WAT      O89839   2.741   5.950   3.643
29866WAT     H189840   2.653   5.978   3.605
29866WAT     H289841   2.727   5.884   3.716
29867WAT      O89842   5.275   4.248   4.514
29867WAT     H189843   5.176   4.230   4.511
29867WAT     H289844   5.324   4.168   4.478
29868WAT      O89845   6.944   4.651   7.041
29868WAT     H189846   6.887   4.584   7.087
29868WAT     H289847   6.892   4.735   7.024
29869WAT      O89848   8.670   6.322   2.737
29869WAT     H189849   8.737   6.296   2.668
29869WAT     H289850   8.580   6.331   2.693
29870WAT      O89851   5.005   1.053   5.548
29870WAT     H189852   4.943   1.129   5.570
29870WAT     H289853   5.091   1.089   5.513
29871WAT      O89854   6.226   0.563   8.887
29871WAT     H189855   6.242   0.657   8.916
29871WAT     H289856   6.260   0.549   8.794
29872WAT      O89857   6.534   9.578   9.460
29872WAT     H189858   6.445   9.542   9.431
29872WAT     H289859   6.563   9.533   9.544
29873WAT      O89860   5.638   7.472   1.495
29873WAT     H189861   5.653   7.516   1.407
29873WAT     H289862   5.603   7.379   1.480
29874WAT      O89863   1.104   3.512   4.648
29874WAT     H189864   1.104   3.486   4.744
29874WAT     H289865   1.191   3.486   4.606
29875WAT      O89866   0.941   8.140   4.292
29875WAT     H189867   0.987   8.192   4.220
29875WAT     H289868   0.903   8.203   4.360
29876WAT      O89869   6.820   4.772   7.700
29876WAT     H189870   6.827   4.816   7.610
29876WAT     H289871   6.870   4.826   7.767
29877WAT      O89872   4.542   1.024   1.755
29877WAT     H189873   4.640   1.005   1.761
29877WAT     H289874   4.502   1.020   1.846
29878WAT      O89875   0.826   8.579   3.991
29878WAT     H189876   0.795   8.574   3.897
29878WAT     H289877   0.749   8.566   4.053
29879WAT      O89878   8.579   3.566   8.445
29879WAT     H189879   8.676   3.591   8.452
29879WAT     H289880   8.523   3.648   8.452
29880WAT      O89881   6.912   6.161   5.331
29880WAT     H189882   7.001   6.116   5.316
29880WAT     H289883   6.922   6.259   5.318
29881WAT      O89884   6.851   0.736   2.075
29881WAT     H189885   6.891   0.650   2.043
29881WAT     H289886   6.784   0.717   2.147
29882WAT      O89887   9.830   7.622   4.147
29882WAT     H189888   9.828   7.546   4.212
29882WAT     H289889   9.817   7.587   4.054
29883WAT      O89890   0.046   1.636   5.316
29883WAT     H189891   0.059   1.703   5.388
29883WAT     H289892   0.131   1.584   5.304
29884WAT      O89893   1.157   6.604   8.395
29884WAT     H189894   1.181   6.526   8.453
29884WAT     H289895   1.130   6.571   8.304
29885WAT      O89896   7.167   4.004   4.827
29885WAT     H189897   7.153   3.992   4.729
29885WAT     H289898   7.174   3.915   4.872
29886WAT      O89899   7.046   5.127   5.941
29886WAT     H189900   7.092   5.059   5.998
29886WAT     H289901   7.106   5.153   5.866
29887WAT      O89902   5.476   1.542   0.719
29887WAT     H189903   5.431   1.571   0.804
29887WAT     H289904   5.546   1.474   0.739
29888WAT      O89905   6.926   5.989   0.561
29888WAT     H189906   6.922   6.086   0.536
29888WAT     H289907   6.847   5.941   0.523
29889WAT      O89908   1.754   7.773   4.860
29889WAT     H189909   1.802   7.848   4.814
29889WAT     H289910   1.722   7.707   4.792
29890WAT      O89911   8.020   4.246   6.084
29890WAT     H189912   7.921   4.243   6.070
29890WAT     H289913   8.065   4.199   6.009
29891WAT      O89914   0.231   9.149   2.285
29891WAT     H189915   0.298   9.076   2.270
29891WAT     H289916   0.206   9.190   2.197
29892WAT      O89917   3.973   5.538   9.493
29892WAT     H189918   3.885   5.506   9.527
29892WAT     H289919   4.044   5.519   9.561
29893WAT      O89920   9.198   3.879   2.711
29893WAT     H189921   9.103   3.850   2.727
29893WAT     H289922   9.198   3.962   2.656
29894WAT      O89923   4.718   6.956   8.034
29894WAT     H189924   4.709   7.050   8.000
29894WAT     H289925   4.768   6.957   8.120
29895WAT      O89926   5.302   6.715   2.264
29895WAT     H189927   5.298   6.810   2.296
29895WAT     H289928   5.212   6.673   2.275
29896WAT      O89929   2.324   8.825   0.810
29896WAT     H189930   2.381   8.850   0.731
29896WAT     H289931   2.367   8.748   0.859
29897WAT      O89932   1.061   1.596   9.416
29897WAT     H189933   1.090   1.610   9.321
29897WAT     H289934   1.086   1.504   9.445
29898WAT      O89935   5.903   5.428   2.697
29898WAT     H189936   5.986   5.473   2.663
29898WAT     H289937   5.826   5.454   2.640
29899WAT      O89938   8.848   6.739   3.258
29899WAT     H189939   8.796   6.656   3.239
29899WAT     H289940   8.802   6.817   3.217
29900WAT      O89941   4.177   1.537   6.957
29900WAT     H189942   4.099   1.592   6.929
29900WAT     H289943   4.236   1.519   6.878
29901WAT      O89944   8.103   7.341   7.370
29901WAT     H189945   8.178   7.326   7.434
29901WAT     H289946   8.060   7.430   7.389
29902WAT      O89947   2.814   0.653   9.819
29902WAT     H189948   2.902   0.690   9.789
29902WAT     H289949   2.743   0.722   9.807
29903WAT      O89950   2.163   5.275   7.277
29903WAT     H189951   2.161   5.175   7.287
29903WAT     H289952   2.090   5.303   7.215
29904WAT      O89953   1.659   0.063   7.237
29904WAT     H189954   1.627   0.028   7.325
29904WAT     H289955   1.756   0.088   7.244
29905WAT      O89956   7.352   1.064   6.432
29905WAT     H189957   7.269   1.076   6.379
29905WAT     H289958   7.423   1.127   6.399
29906WAT      O89959   4.200   9.437   9.884
29906WAT     H189960   4.121   9.389   9.923
29906WAT     H289961   4.271   9.371   9.860
29907WAT      O89962   6.549   3.644   0.952
29907WAT     H189963   6.645   3.669   0.970
29907WAT     H289964   6.493   3.727   0.950
29908WAT      O89965   0.142   0.450   4.152
29908WAT     H189966   0.063   0.389   4.145
29908WAT     H289967   0.213   0.407   4.207
29909WAT      O89968   2.003   2.900   7.661
29909WAT     H189969   2.021   2.988   7.617
29909WAT     H289970   1.909   2.871   7.642
29910WAT      O89971   4.127   4.140   0.897
29910WAT     H189972   4.096   4.230   0.927
29910WAT     H289973   4.197   4.150   0.827
29911WAT      O89974   2.805   8.173   7.195
29911WAT     H189975   2.793   8.202   7.100
29911WAT     H289976   2.841   8.079   7.197
29912WAT      O89977   6.413   4.554   8.621
29912WAT     H189978   6.376   4.521   8.708
29912WAT     H289979   6.402   4.653   8.615
29913WAT      O89980   1.012   7.521   4.478
29913WAT     H189981   1.007   7.554   4.572
29913WAT     H289982   0.953   7.577   4.420
29914WAT      O89983   7.256   3.472   2.040
29914WAT     H189984   7.312   3.403   2.086
29914WAT     H289985   7.162   3.440   2.034
29915WAT      O89986   8.733   0.570   4.151
29915WAT     H189987   8.668   0.507   4.194
29915WAT     H289988   8.699   0.595   4.061
29916WAT      O89989   0.342   6.761   5.631
29916WAT     H189990   0.346   6.849   5.585
29916WAT     H289991   0.272   6.703   5.588
29917WAT      O89992   6.666   0.090   5.362
29917WAT     H189993   6.702   0.071   5.271
29917WAT     H289994   6.737   0.075   5.431
29918WAT      O89995   5.328   7.986   1.493
29918WAT     H189996   5.423   7.959   1.476
29918WAT     H289997   5.283   8.006   1.406
29919WAT      O89998   5.787   1.696   8.925
29919WAT     H189999   5.696   1.730   8.949
29919WAT     H290000   5.834   1.668   9.009
29920WAT      O90001   7.935   5.484   8.696
29920WAT     H190002   7.941   5.530   8.607
29920WAT     H290003   7.877   5.537   8.758
29921WAT      O90004   3.120   6.628   8.775
29921WAT     H190005   3.158   6.719   8.793
29921WAT     H290006   3.020   6.631   8.784
29922WAT      O90007   2.872   9.375   4.098
29922WAT     H190008   2.935   9.445   4.064
29922WAT     H290009   2.877   9.370   4.198
29923WAT      O90010   6.403   2.261   9.711
29923WAT     H190011   6.333   2.332   9.721
29923WAT     H290012   6.446   2.269   9.621
29924WAT      O90013   2.367   0.880   6.310
29924WAT     H190014   2.465   0.874   6.331
29924WAT     H290015   2.353   0.938   6.230
29925WAT      O90016   3.821   4.365   9.277
29925WAT     H190017   3.794   4.286   9.332
29925WAT     H290018   3.747   4.432   9.276
29926WAT      O90019   1.103   1.542   5.199
29926WAT     H190020   1.080   1.598   5.279
29926WAT     H290021   1.024   1.536   5.138
29927WAT      O90022   7.247   0.951   3.066
29927WAT     H190023   7.306   1.029   3.046
29927WAT     H290024   7.186   0.975   3.142
29928WAT      O90025   3.196   7.546   9.682
29928WAT     H190026   3.214   7.627   9.738
29928WAT     H290027   3.230   7.464   9.729
29929WAT      O90028   5.870   6.860   4.359
29929WAT     H190029   5.935   6.786   4.374
29929WAT     H290030   5.909   6.926   4.294
29930WAT      O90031   0.322   2.551   0.294
29930WAT     H190032   0.333   2.589   0.202
29930WAT     H290033   0.360   2.459   0.296
29931WAT      O90034   1.867   6.642   4.600
29931WAT     H190035   1.915   6.636   4.513
29931WAT     H290036   1.823   6.554   4.620
29932WAT      O90037   9.133   1.524   3.230
29932WAT     H190038   9.212   1.507   3.171
29932WAT     H290039   9.078   1.597   3.190
29933WAT      O90040   3.014   2.515   7.817
29933WAT     H190041   2.954   2.592   7.793
29933WAT     H290042   2.986   2.434   7.766
29934WAT      O90043   2.383   7.923   7.672
29934WAT     H190044   2.415   7.925   7.766
29934WAT     H290045   2.457   7.948   7.610
29935WAT      O90046   9.041   6.605   1.998
29935WAT     H190047   9.013   6.700   2.010
29935WAT     H290048   9.139   6.601   1.980
29936WAT      O90049   4.784   8.872   3.993
29936WAT     H190050   4.831   8.887   4.081
29936WAT     H290051   4.841   8.815   3.934
29937WAT      O90052   8.695   6.835   9.605
29937WAT     H190053   8.795   6.840   9.602
29937WAT     H290054   8.663   6.847   9.699
29938WAT      O90055   0.085   1.547   8.443
29938WAT     H190056   0.088   1.629   8.387
29938WAT     H290057   0.178   1.517   8.464
29939WAT      O90058   9.471   5.926   7.449
29939WAT     H190059   9.390   5.979   7.425
29939WAT     H290060   9.445   5.847   7.505
29940WAT      O90061   7.745   4.791   0.497
29940WAT     H190062   7.703   4.701   0.485
29940WAT     H290063   7.685   4.849   0.552
29941WAT      O90064   1.001   6.870   1.830
29941WAT     H190065   1.048   6.788   1.862
29941WAT     H290066   0.962   6.919   1.908
29942WAT      O90067   2.344   8.699   4.459
29942WAT     H190068   2.294   8.638   4.397
29942WAT     H290069   2.279   8.757   4.509
29943WAT      O90070   9.533   1.684   3.620
29943WAT     H190071   9.467   1.617   3.587
29943WAT     H290072   9.514   1.705   3.716
29944WAT      O90073   6.945   3.669   5.217
29944WAT     H190074   6.944   3.700   5.122
29944WAT     H290075   6.862   3.617   5.236
29945WAT      O90076   0.775   4.176   6.511
29945WAT     H190077   0.677   4.194   6.515
29945WAT     H290078   0.817   4.199   6.599
29946WAT      O90079   0.328   2.481   7.918
29946WAT     H190080   0.298   2.574   7.938
29946WAT     H290081   0.332   2.428   8.003
29947WAT      O90082   8.148   0.829   4.820
29947WAT     H190083   8.214   0.902   4.838
29947WAT     H290084   8.190   0.740   4.837
29948WAT      O90085   8.578   0.987   8.021
29948WAT     H190086   8.638   1.032   8.087
29948WAT     H290087   8.541   1.055   7.958
29949WAT      O90088   4.940   3.168   1.708
29949WAT     H190089   4.953   3.069   1.713
29949WAT     H290090   4.842   3.190   1.712
29950WAT      O90091   0.766   8.559   2.210
29950WAT     H190092   0.688   8.525   2.157
29950WAT     H290093   0.741   8.567   2.306
29951WAT      O90094   6.251   5.499   7.850
29951WAT     H190095   6.265   5.409   7.893
29951WAT     H290096   6.323   5.515   7.783
29952WAT      O90097   6.951   6.020   1.381
29952WAT     H190098   6.880   5.984   1.442
29952WAT     H290099   6.950   5.968   1.295
29953WAT      O90100   8.658   2.319   7.616
29953WAT     H190101   8.581   2.359   7.566
29953WAT     H290102   8.652   2.347   7.712
29954WAT      O90103   7.431   8.319   5.614
29954WAT     H190104   7.518   8.362   5.590
29954WAT     H290105   7.358   8.359   5.560
29955WAT      O90106   3.516   4.776   6.398
29955WAT     H190107   3.597   4.811   6.352
29955WAT     H290108   3.439   4.838   6.381
29956WAT      O90109   2.017   9.080   1.145
29956WAT     H190110   2.001   9.025   1.063
29956WAT     H290111   2.024   9.021   1.225
29957WAT      O90112   7.580   2.981   5.376
29957WAT     H190113   7.594   2.891   5.336
29957WAT     H290114   7.651   3.044   5.345
29958WAT      O90115   0.934   6.957   6.822
29958WAT     H190116   0.868   6.932   6.751
29958WAT     H290117   0.981   6.875   6.854
29959WAT      O90118   7.008   4.022   8.313
29959WAT     H190119   7.026   3.935   8.266
29959WAT     H290120   6.937   4.073   8.264
29960WAT      O90121   4.595   5.500   4.465
29960WAT     H190122   4.538   5.488   4.384
29960WAT     H290123   4.662   5.572   4.447
29961WAT      O90124   7.289   6.753   4.819
29961WAT     H190125   7.380   6.793   4.829
29961WAT     H290126   7.272   6.733   4.723
29962WAT      O90127   9.467   8.184   7.059
29962WAT     H190128   9.507   8.261   7.008
29962WAT     H290129   9.523   8.103   7.045
29963WAT      O90130   7.126   3.909   5.952
29963WAT     H190131   7.211   3.921   6.004
29963WAT     H290132   7.063   3.851   6.003
29964WAT      O90133   7.984   0.997   2.881
29964WAT     H190134   7.936   0.970   2.798
29964WAT     H290135   7.925   1.057   2.936
29965WAT      O90136   5.591   9.784   0.386
29965WAT     H190137   5.519   9.810   0.321
29965WAT     H290138   5.674   9.837   0.367
29966WAT      O90139   4.120   5.615   2.618
29966WAT     H190140   4.203   5.621   2.562
29966WAT     H290141   4.126   5.681   2.693
29967WAT      O90142   1.544   7.948   6.751
29967WAT     H190143   1.485   7.981   6.825
29967WAT     H290144   1.639   7.970   6.771
29968WAT      O90145   5.253   4.237   4.022
29968WAT     H190146   5.166   4.196   3.993
29968WAT     H290147   5.297   4.280   3.943
29969WAT      O90148   7.747   6.731   5.817
29969WAT     H190149   7.817   6.748   5.886
29969WAT     H290150   7.721   6.817   5.774
29970WAT      O90151   2.540   7.383   6.524
29970WAT     H190152   2.516   7.285   6.524
29970WAT     H290153   2.559   7.413   6.430
29971WAT      O90154   2.417   6.498   2.029
29971WAT     H190155   2.429   6.401   2.050
29971WAT     H290156   2.451   6.553   2.106
29972WAT      O90157   5.643   4.582   9.404
29972WAT     H190158   5.603   4.674   9.408
29972WAT     H290159   5.571   4.515   9.386
29973WAT      O90160   3.150   2.388   3.495
29973WAT     H190161   3.148   2.323   3.570
29973WAT     H290162   3.221   2.361   3.430
29974WAT      O90163   0.808   5.982   5.548
29974WAT     H190164   0.897   5.989   5.504
29974WAT     H290165   0.758   5.905   5.510
29975WAT      O90166   0.230   6.802   4.711
29975WAT     H190167   0.229   6.782   4.613
29975WAT     H290168   0.146   6.851   4.736
29976WAT      O90169   5.167   9.832   9.294
29976WAT     H190170   5.070   9.814   9.281
29976WAT     H290171   5.184   9.931   9.295
29977WAT      O90172   4.283   9.156   8.121
29977WAT     H190173   4.337   9.236   8.147
29977WAT     H290174   4.186   9.174   8.139
29978WAT      O90175   0.821   2.357   0.901
29978WAT     H190176   0.915   2.351   0.934
29978WAT     H290177   0.813   2.438   0.842
29979WAT      O90178   2.859   0.043   3.511
29979WAT     H190179   2.929  -0.016   3.550
29979WAT     H290180   2.896   0.136   3.501
29980WAT      O90181   6.108   0.075   9.590
29980WAT     H190182   6.065   0.120   9.512
29980WAT     H290183   6.109  -0.024   9.576
29981WAT      O90184   0.990   0.678   6.114
29981WAT     H190185   0.920   0.617   6.078
29981WAT     H290186   1.017   0.744   6.043
29982WAT      O90187   7.298   5.935   9.058
29982WAT     H190188   7.267   6.005   9.122
29982WAT     H290189   7.253   5.948   8.970
29983WAT      O90190   9.696   2.783   6.745
29983WAT     H190191   9.639   2.706   6.714
29983WAT     H290192   9.670   2.808   6.838
29984WAT      O90193   5.840   7.312   1.672
29984WAT     H190194   5.934   7.283   1.691
29984WAT     H290195   5.778   7.263   1.733
29985WAT      O90196   8.701   5.741   5.377
29985WAT     H190197   8.671   5.827   5.336
29985WAT     H290198   8.679   5.741   5.475
29986WAT      O90199   6.816   8.822   4.064
29986WAT     H190200   6.784   8.770   4.143
29986WAT     H290201   6.882   8.767   4.013
29987WAT      O90202   5.227   1.411   7.905
29987WAT     H190203   5.170   1.437   7.827
29987WAT     H290204   5.245   1.313   7.902
29988WAT      O90205   9.573   6.306   8.796
29988WAT     H190206   9.543   6.341   8.707
29988WAT     H290207   9.493   6.295   8.856
29989WAT      O90208   7.022   4.220   1.819
29989WAT     H190209   6.932   4.177   1.814
29989WAT     H290210   7.084   4.161   1.871
29990WAT      O90211   3.701   5.983   7.148
29990WAT     H190212   3.747   6.048   7.088
29990WAT     H290213   3.725   5.889   7.121
29991WAT      O90214   2.625   0.354   3.459
29991WAT     H190215   2.703   0.310   3.414
29991WAT     H290216   2.590   0.293   3.530
29992WAT      O90217   2.372   6.290   9.819
29992WAT     H190218   2.458   6.331   9.849
29992WAT     H290219   2.382   6.256   9.725
29993WAT      O90220   9.193   9.013   3.095
29993WAT     H190221   9.251   8.932   3.103
29993WAT     H290222   9.231   9.074   3.025
29994WAT      O90223   5.834   8.579   0.722
29994WAT     H190224   5.758   8.553   0.781
29994WAT     H290225   5.799   8.632   0.644
29995WAT      O90226   0.034   2.701   8.803
29995WAT     H190227   0.066   2.774   8.743
29995WAT     H290228   0.112   2.643   8.828
29996WAT      O90229   5.047   2.954   5.412
29996WAT     H190230   5.117   3.025   5.416
29996WAT     H290231   4.977   2.980   5.346
29997WAT      O90232   7.036   9.199   5.601
29997WAT     H190233   7.043   9.129   5.672
29997WAT     H290234   7.008   9.286   5.642
29998WAT      O90235   6.341   8.012   9.089
29998WAT     H190236   6.323   8.093   9.144
29998WAT     H290237   6.277   8.008   9.013
29999WAT      O90238   4.968   2.057   0.941
29999WAT     H190239   4.891   2.000   0.972
29999WAT     H290240   4.933   2.132   0.886
30000WAT      O90241   4.687   1.675   0.770
30000WAT     H190242   4.773   1.724   0.756
30000WAT     H290243   4.685   1.594   0.712
30001WAT      O90244   7.723   9.287   5.803
30001WAT     H190245   7.767   9.359   5.750
30001WAT     H290246   7.718   9.204   5.748
30002WAT      O90247   8.498   7.116   7.276
30002WAT     H190248   8.563   7.190   7.290
30002WAT     H290249   8.548   7.029   7.275
30003WAT      O90250   9.468   1.137   2.658
30003WAT     H190251   9.513   1.065   2.711
30003WAT     H290252   9.373   1.111   2.641
30004WAT      O90253   6.537   7.803   5.544
30004WAT     H190254   6.442   7.807   5.575
30004WAT     H290255   6.595   7.774   5.620
30005WAT      O90256   7.196   1.351   8.263
30005WAT     H190257   7.288   1.319   8.240
30005WAT     H290258   7.199   1.446   8.291
30006WAT      O90259   3.050   2.134   1.060
30006WAT     H190260   3.062   2.083   0.975
30006WAT     H290261   3.071   2.230   1.044
30007WAT      O90262   1.849   0.631   6.073
30007WAT     H190263   1.764   0.598   6.032
30007WAT     H290264   1.829   0.710   6.131
30008WAT      O90265   3.438   4.395   1.161
30008WAT     H190266   3.417   4.358   1.071
30008WAT     H290267   3.377   4.355   1.229
30009WAT      O90268   3.446   1.169   9.854
30009WAT     H190269   3.388   1.216   9.921
30009WAT     H290270   3.495   1.094   9.899
30010WAT      O90271   3.954   6.338   7.139
30010WAT     H190272   4.023   6.405   7.111
30010WAT     H290273   3.902   6.373   7.217
30011WAT      O90274   8.352   6.966   9.010
30011WAT     H190275   8.356   7.035   8.937
30011WAT     H290276   8.346   7.011   9.099
30012WAT      O90277   8.747   4.877   7.901
30012WAT     H190278   8.726   4.786   7.866
30012WAT     H290279   8.707   4.946   7.840
30013WAT      O90280   6.169   5.926   9.774
30013WAT     H190281   6.222   5.881   9.702
30013WAT     H290282   6.123   5.857   9.830
30014WAT      O90283   3.129   8.289   6.730
30014WAT     H190284   3.175   8.378   6.720
30014WAT     H290285   3.126   8.264   6.827
30015WAT      O90286   7.989   2.308   8.836
30015WAT     H190287   7.917   2.261   8.888
30015WAT     H290288   8.052   2.354   8.899
30016WAT      O90289   8.180   3.420   5.718
30016WAT     H190290   8.085   3.389   5.712
30016WAT     H290291   8.188   3.511   5.678
30017WAT      O90292   5.341   2.278   7.441
30017WAT     H190293   5.306   2.370   7.458
30017WAT     H290294   5.286   2.211   7.490
30018WAT      O90295   9.574   1.940   4.515
30018WAT     H190296   9.674   1.945   4.507
30018WAT     H290297   9.549   1.850   4.551
30019WAT      O90298   5.621   1.725   3.368
30019WAT     H190299   5.702   1.781   3.387
30019WAT     H290300   5.542   1.766   3.413
30020WAT      O90301   1.392   7.793   0.352
30020WAT     H190302   1.458   7.718   0.347
30020WAT     H290303   1.402   7.841   0.439
30021WAT      O90304   8.820   1.108   3.478
30021WAT     H190305   8.751   1.179   3.464
30021WAT     H290306   8.862   1.120   3.568
30022WAT      O90307   3.368   5.510   9.546
30022WAT     H190308   3.314   5.449   9.488
30022WAT     H290309   3.463   5.479   9.548
30023WAT      O90310   7.647   5.254   2.633
30023WAT     H190311   7.643   5.343   2.587
30023WAT     H290312   7.741   5.220   2.631
30024WAT      O90313   3.889   4.265   1.401
30024WAT     H190314   3.902   4.167   1.416
30024WAT     H290315   3.823   4.278   1.327
30025WAT      O90316   2.874   3.751   9.591
30025WAT     H190317   2.967   3.715   9.586
30025WAT     H290318   2.827   3.734   9.505
30026WAT      O90319   3.996   4.421   3.752
30026WAT     H190320   4.090   4.409   3.720
30026WAT     H290321   3.996   4.472   3.837
30027WAT      O90322   5.623   4.406   2.315
30027WAT     H190323   5.691   4.417   2.242
30027WAT     H290324   5.662   4.353   2.390
30028WAT      O90325   8.926   2.729   0.181
30028WAT     H190326   8.893   2.642   0.142
30028WAT     H290327   8.891   2.805   0.126
30029WAT      O90328   9.250   0.363   0.860
30029WAT     H190329   9.342   0.324   0.862
30029WAT     H290330   9.183   0.289   0.863
30030WAT      O90331   1.969   2.278   8.028
30030WAT     H190332   1.973   2.215   8.107
30030WAT     H290333   1.941   2.368   8.060
30031WAT      O90334   4.136   3.081   4.790
30031WAT     H190335   4.111   3.128   4.705
30031WAT     H290336   4.204   3.135   4.839
30032WAT      O90337   1.820   7.384   1.823
30032WAT     H190338   1.895   7.388   1.888
30032WAT     H290339   1.855   7.364   1.731
30033WAT      O90340   2.877   3.571   3.986
30033WAT     H190341   2.841   3.532   4.070
30033WAT     H290342   2.872   3.670   3.989
30034WAT      O90343   3.359   4.396   0.001
30034WAT     H190344   3.269   4.354   0.009
30034WAT     H290345   3.430   4.327   0.009
30035WAT      O90346   3.923   9.802   0.151
30035WAT     H190347   3.897   9.795   0.055
30035WAT     H290348   3.857   9.859   0.200
30036WAT      O90349   6.202   1.085   3.699
30036WAT     H190350   6.229   0.995   3.734
30036WAT     H290351   6.141   1.074   3.621
30037WAT      O90352   8.737   5.052   6.840
30037WAT     H190353   8.703   4.966   6.801
30037WAT     H290354   8.784   5.104   6.769
30038WAT      O90355   2.080   1.891   8.565
30038WAT     H190356   2.162   1.841   8.537
30038WAT     H290357   2.085   1.986   8.531
30039WAT      O90358   8.905   8.869   2.288
30039WAT     H190359   8.926   8.955   2.242
30039WAT     H290360   8.989   8.829   2.325
30040WAT      O90361   0.219   6.928   8.882
30040WAT     H190362   0.152   6.880   8.938
30040WAT     H290363   0.254   6.867   8.811
30041WAT      O90364   1.938   0.152   3.360
30041WAT     H190365   1.988   0.142   3.274
30041WAT     H290366   1.847   0.190   3.340
30042WAT      O90367   2.348   5.472   8.751
30042WAT     H190368   2.281   5.400   8.735
30042WAT     H290369   2.357   5.489   8.849
30043WAT      O90370   4.880   3.905   5.378
30043WAT     H190371   4.965   3.922   5.329
30043WAT     H290372   4.839   3.820   5.346
30044WAT      O90373   4.516   9.040   9.545
30044WAT     H190374   4.585   9.069   9.611
30044WAT     H290375   4.454   8.974   9.589
30045WAT      O90376   4.726   8.436   0.370
30045WAT     H190377   4.748   8.341   0.389
30045WAT     H290378   4.627   8.445   0.356
30046WAT      O90379   6.299   0.838   0.402
30046WAT     H190380   6.274   0.801   0.491
30046WAT     H290381   6.319   0.762   0.339
30047WAT      O90382   4.599   5.735   1.342
30047WAT     H190383   4.584   5.669   1.268
30047WAT     H290384   4.628   5.685   1.425
30048WAT      O90385   6.712   8.398   8.366
30048WAT     H190386   6.751   8.443   8.286
30048WAT     H290387   6.698   8.465   8.439
30049WAT      O90388   8.815   3.000   0.982
30049WAT     H190389   8.742   3.044   1.034
30049WAT     H290390   8.893   3.062   0.975
30050WAT      O90391   0.119   5.025   3.539
30050WAT     H190392   0.105   5.124   3.545
30050WAT     H290393   0.036   4.978   3.569
30051WAT      O90394   7.472   0.303   1.749
30051WAT     H190395   7.458   0.226   1.810
30051WAT     H290396   7.570   0.316   1.731
30052WAT      O90397   0.026   5.311   4.377
30052WAT     H190398   0.027   5.411   4.374
30052WAT     H290399  -0.041   5.276   4.311
30053WAT      O90400   4.676   2.847   8.382
30053WAT     H190401   4.684   2.818   8.286
30053WAT     H290402   4.767   2.848   8.424
30054WAT      O90403   1.538   2.452   0.584
30054WAT     H190404   1.548   2.483   0.490
30054WAT     H290405   1.580   2.519   0.646
30055WAT      O90406   1.058   8.412   4.083
30055WAT     H190407   0.984   8.471   4.051
30055WAT     H290408   1.111   8.378   4.005
30056WAT      O90409   8.107   6.980   9.764
30056WAT     H190410   8.151   7.000   9.851
30056WAT     H290411   8.176   6.979   9.691
30057WAT      O90412   3.916   7.409   6.001
30057WAT     H190413   3.939   7.506   5.992
30057WAT     H290414   3.830   7.390   5.953
30058WAT      O90415   3.613   2.541   2.943
30058WAT     H190416   3.638   2.517   2.848
30058WAT     H290417   3.517   2.568   2.946
30059WAT      O90418   9.174   9.599   2.698
30059WAT     H190419   9.237   9.563   2.630
30059WAT     H290420   9.091   9.633   2.653
30060WAT      O90421   0.501   7.131   0.411
30060WAT     H190422   0.427   7.106   0.349
30060WAT     H290423   0.475   7.213   0.462
30061WAT      O90424   5.431   8.343   4.631
30061WAT     H190425   5.382   8.258   4.614
30061WAT     H290426   5.450   8.389   4.544
30062WAT      O90427   2.307   5.114   3.286
30062WAT     H190428   2.334   5.083   3.377
30062WAT     H290429   2.256   5.041   3.240
30063WAT      O90430   0.480   3.602   6.565
30063WAT     H190431   0.520   3.662   6.496
30063WAT     H290432   0.415   3.539   6.522
30064WAT      O90433   8.536   0.259   4.449
30064WAT     H190434   8.438   0.249   4.467
30064WAT     H290435   8.578   0.168   4.440
30065WAT      O90436   8.313   9.079   3.843
30065WAT     H190437   8.291   9.107   3.936
30065WAT     H290438   8.341   9.158   3.789
30066WAT      O90439   5.004   7.156   8.647
30066WAT     H190440   4.955   7.190   8.567
30066WAT     H290441   5.099   7.137   8.623
30067WAT      O90442   9.474   5.896   7.833
30067WAT     H190443   9.470   5.833   7.911
30067WAT     H290444   9.474   5.844   7.748
30068WAT      O90445   9.062   0.968   3.174
30068WAT     H190446   8.995   0.937   3.241
30068WAT     H290447   9.144   0.911   3.179
30069WAT      O90448   6.684   8.507   3.714
30069WAT     H190449   6.722   8.425   3.671
30069WAT     H290450   6.754   8.578   3.717
30070WAT      O90451   6.415   4.214   6.432
30070WAT     H190452   6.420   4.284   6.503
30070WAT     H290453   6.505   4.172   6.420
30071WAT      O90454   4.882   4.609   8.203
30071WAT     H190455   4.810   4.581   8.140
30071WAT     H290456   4.854   4.589   8.297
30072WAT      O90457   9.311   6.796   0.739
30072WAT     H190458   9.226   6.744   0.743
30072WAT     H290459   9.341   6.820   0.831
30073WAT      O90460   9.079   6.181   8.771
30073WAT     H190461   9.079   6.200   8.672
30073WAT     H290462   9.081   6.082   8.785
30074WAT      O90463   0.072   0.572   0.662
30074WAT     H190464   0.009   0.641   0.696
30074WAT     H290465   0.106   0.517   0.739
30075WAT      O90466   9.022   1.762   9.329
30075WAT     H190467   9.029   1.825   9.406
30075WAT     H290468   9.075   1.798   9.252
30076WAT      O90469   0.134   0.983   1.869
30076WAT     H190470   0.174   0.965   1.959
30076WAT     H290471   0.194   1.044   1.818
30077WAT      O90472   9.875   6.742   1.673
30077WAT     H190473   9.937   6.728   1.750
30077WAT     H290474   9.834   6.834   1.679
30078WAT      O90475   1.256   4.156   1.978
30078WAT     H190476   1.282   4.242   1.936
30078WAT     H290477   1.323   4.132   2.049
30079WAT      O90478   4.642   0.713   5.021
30079WAT     H190479   4.711   0.670   5.079
30079WAT     H290480   4.551   0.686   5.051
30080WAT      O90481   5.032   7.070   5.858
30080WAT     H190482   5.093   7.023   5.794
30080WAT     H290483   5.025   7.016   5.942
30081WAT      O90484   1.085   7.748   2.651
30081WAT     H190485   1.116   7.801   2.571
30081WAT     H290486   0.985   7.746   2.652
30082WAT      O90487   6.530   6.289   9.195
30082WAT     H190488   6.623   6.282   9.232
30082WAT     H290489   6.464   6.289   9.270
30083WAT      O90490   9.394   7.938   5.442
30083WAT     H190491   9.474   7.896   5.486
30083WAT     H290492   9.372   8.024   5.488
30084WAT      O90493   6.727   2.338   5.516
30084WAT     H190494   6.762   2.249   5.546
30084WAT     H290495   6.713   2.337   5.417
30085WAT      O90496   8.835   2.285   3.736
30085WAT     H190497   8.876   2.217   3.676
30085WAT     H290498   8.853   2.377   3.700
30086WAT      O90499   8.431   6.383   8.349
30086WAT     H190500   8.340   6.366   8.310
30086WAT     H290501   8.445   6.482   8.358
30087WAT      O90502   0.080   2.425   2.840
30087WAT     H190503   0.072   2.326   2.848
30087WAT     H290504   0.014   2.469   2.901
30088WAT      O90505   0.047   4.647   7.504
30088WAT     H190506   0.063   4.631   7.407
30088WAT     H290507   0.066   4.563   7.555
30089WAT      O90508   2.258   7.697   7.065
30089WAT     H190509   2.272   7.720   7.161
30089WAT     H290510   2.182   7.750   7.029
30090WAT      O90511   9.368   8.842   5.303
30090WAT     H190512   9.394   8.909   5.233
30090WAT     H290513   9.276   8.862   5.335
30091WAT      O90514   2.542   6.016   2.484
30091WAT     H190515   2.546   6.114   2.504
30091WAT     H290516   2.484   6.000   2.405
30092WAT      O90517   7.295   3.417   4.804
30092WAT     H190518   7.216   3.416   4.865
30092WAT     H290519   7.368   3.472   4.845
30093WAT      O90520   5.377   2.933   1.756
30093WAT     H190521   5.316   2.893   1.687
30093WAT     H290522   5.362   2.887   1.844
30094WAT      O90523   9.355   9.553   4.802
30094WAT     H190524   9.350   9.565   4.901
30094WAT     H290525   9.414   9.475   4.781
30095WAT      O90526   2.791   1.304   5.213
30095WAT     H190527   2.749   1.386   5.174
30095WAT     H290528   2.729   1.227   5.204
30096WAT      O90529   3.730   3.004   8.623
30096WAT     H190530   3.761   3.013   8.718
30096WAT     H290531   3.804   3.031   8.561
30097WAT      O90532   6.151   9.423   5.380
30097WAT     H190533   6.223   9.354   5.375
30097WAT     H290534   6.063   9.380   5.399
30098WAT      O90535   7.325   7.656   2.220
30098WAT     H190536   7.372   7.615   2.298
30098WAT     H290537   7.227   7.637   2.226
30099WAT      O90538   3.062   0.047   5.495
30099WAT     H190539   3.034  -0.045   5.521
30099WAT     H290540   3.081   0.101   5.577
30100WAT      O90541   6.610   1.236   1.128
30100WAT     H190542   6.537   1.173   1.103
30100WAT     H290543   6.687   1.224   1.066
30101WAT      O90544   2.103   0.069   0.741
30101WAT     H190545   2.122   0.056   0.838
30101WAT     H290546   2.031   0.137   0.729
30102WAT      O90547   0.714   3.980   4.535
30102WAT     H190548   0.632   4.020   4.576
30102WAT     H290549   0.758   3.919   4.600
30103WAT      O90550   9.841   9.268   0.142
30103WAT     H190551   9.882   9.269   0.051
30103WAT     H290552   9.873   9.347   0.194
30104WAT      O90553   3.735   6.980   8.188
30104WAT     H190554   3.800   7.034   8.241
30104WAT     H290555   3.687   7.040   8.124
30105WAT      O90556   9.506   1.144   0.114
30105WAT     H190557   9.543   1.227   0.156
30105WAT     H290558   9.533   1.140   0.017
30106WAT      O90559   6.716   2.882   0.901
30106WAT     H190560   6.646   2.931   0.849
30106WAT     H290561   6.806   2.921   0.882
30107WAT      O90562   5.223   4.063   4.232
30107WAT     H190563   5.156   4.116   4.284
30107WAT     H290564   5.256   4.117   4.155
30108WAT      O90565   6.274   4.016   6.558
30108WAT     H190566   6.339   4.073   6.509
30108WAT     H290567   6.181   4.036   6.527
30109WAT      O90568   4.462   4.088   7.218
30109WAT     H190569   4.498   4.048   7.133
30109WAT     H290570   4.407   4.169   7.196
30110WAT      O90571   9.259   9.630   3.849
30110WAT     H190572   9.229   9.534   3.856
30110WAT     H290573   9.198   9.679   3.787
30111WAT      O90574   2.285   6.382   4.372
30111WAT     H190575   2.307   6.454   4.438
30111WAT     H290576   2.313   6.411   4.281
30112WAT      O90577   8.061   3.421   4.281
30112WAT     H190578   8.103   3.331   4.277
30112WAT     H290579   7.962   3.412   4.293
30113WAT      O90580   8.467   7.999   4.027
30113WAT     H190581   8.516   7.976   4.110
30113WAT     H290582   8.408   8.078   4.043
30114WAT      O90583   5.481   2.768   2.665
30114WAT     H190584   5.566   2.802   2.705
30114WAT     H290585   5.485   2.775   2.566
30115WAT      O90586   2.417   3.405   8.184
30115WAT     H190587   2.460   3.352   8.110
30115WAT     H290588   2.415   3.502   8.159
30116WAT      O90589   9.782   6.091   3.782
30116WAT     H190590   9.818   6.184   3.782
30116WAT     H290591   9.808   6.045   3.868
30117WAT      O90592   9.231   9.051   9.212
30117WAT     H190593   9.319   9.009   9.236
30117WAT     H290594   9.218   9.133   9.267
30118WAT      O90595   1.065   8.809   4.886
30118WAT     H190596   1.092   8.714   4.905
30118WAT     H290597   1.112   8.840   4.803
30119WAT      O90598   6.495   0.874   8.367
30119WAT     H190599   6.540   0.948   8.318
30119WAT     H290600   6.427   0.831   8.308
30120WAT      O90601   1.846   0.450   4.329
30120WAT     H190602   1.899   0.366   4.338
30120WAT     H290603   1.904   0.522   4.290
30121WAT      O90604   2.974   2.567   9.659
30121WAT     H190605   3.051   2.510   9.630
30121WAT     H290606   3.004   2.630   9.731
30122WAT      O90607   8.903   8.628   2.643
30122WAT     H190608   8.837   8.610   2.571
30122WAT     H290609   8.943   8.542   2.675
30123WAT      O90610   3.382   0.137   5.794
30123WAT     H190611   3.283   0.146   5.784
30123WAT     H290612   3.420   0.092   5.713
30124WAT      O90613   0.050   3.997   1.496
30124WAT     H190614   0.070   4.095   1.489
30124WAT     H290615   0.039   3.959   1.403
30125WAT      O90616   4.982   4.999   5.433
30125WAT     H190617   5.039   5.079   5.417
30125WAT     H290618   4.931   5.011   5.518
30126WAT      O90619   1.993   6.336   4.962
30126WAT     H190620   1.973   6.278   5.041
30126WAT     H290621   1.908   6.377   4.929
30127WAT      O90622   4.857   6.320   7.027
30127WAT     H190623   4.908   6.250   6.977
30127WAT     H290624   4.919   6.396   7.050
30128WAT      O90625   6.182   6.235   4.010
30128WAT     H190626   6.090   6.248   3.973
30128WAT     H290627   6.245   6.298   3.965
30129WAT      O90628   9.178   2.536   5.073
30129WAT     H190629   9.176   2.623   5.024
30129WAT     H290630   9.103   2.532   5.139
30130WAT      O90631   2.691   4.255   5.633
30130WAT     H190632   2.672   4.307   5.716
30130WAT     H290633   2.698   4.158   5.655
30131WAT      O90634   3.570   8.115   6.351
30131WAT     H190635   3.499   8.107   6.421
30131WAT     H290636   3.530   8.154   6.268
30132WAT      O90637   0.286   1.446   9.282
30132WAT     H190638   0.296   1.541   9.309
30132WAT     H290639   0.339   1.387   9.343
30133WAT      O90640   7.085   6.593   7.232
30133WAT     H190641   7.017   6.577   7.161
30133WAT     H290642   7.040   6.618   7.317
30134WAT      O90643   3.349   1.363   4.279
30134WAT     H190644   3.268   1.356   4.222
30134WAT     H290645   3.347   1.292   4.349
30135WAT      O90646   6.825   5.003   7.144
30135WAT     H190647   6.747   4.963   7.191
30135WAT     H290648   6.829   4.968   7.051
30136WAT      O90649   4.757   3.895   6.791
30136WAT     H190650   4.700   3.878   6.872
30136WAT     H290651   4.822   3.968   6.811
30137WAT      O90652   5.695   5.462   3.775
30137WAT     H190653   5.706   5.558   3.749
30137WAT     H290654   5.598   5.437   3.769
30138WAT      O90655   4.184   9.567   2.330
30138WAT     H190656   4.156   9.556   2.425
30138WAT     H290657   4.181   9.664   2.305
30139WAT      O90658   4.953   3.247   8.807
30139WAT     H190659   5.048   3.278   8.805
30139WAT     H290660   4.908   3.283   8.889
30140WAT      O90661   8.199   8.616   8.907
30140WAT     H190662   8.239   8.614   8.815
30140WAT     H290663   8.184   8.711   8.935
30141WAT      O90664   3.579   0.384   9.659
30141WAT     H190665   3.487   0.345   9.661
30141WAT     H290666   3.625   0.366   9.746
30142WAT      O90667   8.265   8.642   1.792
30142WAT     H190668   8.166   8.631   1.780
30142WAT     H290669   8.293   8.600   1.879
30143WAT      O90670   7.822   6.034   6.149
30143WAT     H190671   7.908   6.035   6.201
30143WAT     H290672   7.838   5.993   6.060
30144WAT      O90673   2.393   0.340   2.553
30144WAT     H190674   2.301   0.333   2.591
30144WAT     H290675   2.447   0.404   2.608
30145WAT      O90676   4.826   5.357   0.969
30145WAT     H190677   4.795   5.262   0.966
30145WAT     H290678   4.830   5.388   1.064
30146WAT      O90679   3.132   5.744   6.690
30146WAT     H190680   3.181   5.770   6.774
30146WAT     H290681   3.198   5.716   6.621
30147WAT      O90682   5.937   7.045   8.557
30147WAT     H190683   5.932   7.010   8.651
30147WAT     H290684   5.955   6.968   8.495
30148WAT      O90685   1.641   4.952   6.417
30148WAT     H190686   1.559   5.002   6.445
30148WAT     H290687   1.627   4.854   6.433
30149WAT      O90688   7.730   2.161   2.625
30149WAT     H190689   7.714   2.079   2.571
30149WAT     H290690   7.668   2.163   2.703
30150WAT      O90691   1.484   1.669   2.325
30150WAT     H190692   1.498   1.572   2.306
30150WAT     H290693   1.533   1.694   2.408
30151WAT      O90694   8.831   4.137   8.543
30151WAT     H190695   8.859   4.107   8.634
30151WAT     H290696   8.766   4.071   8.505
30152WAT      O90697   0.953   6.301   8.036
30152WAT     H190698   0.989   6.214   8.068
30152WAT     H290699   0.947   6.300   7.936
30153WAT      O90700   9.267   4.036   3.211
30153WAT     H190701   9.255   4.114   3.150
30153WAT     H290702   9.308   4.067   3.297
30154WAT      O90703   1.276   2.741   0.012
30154WAT     H190704   1.315   2.700  -0.071
30154WAT     H290705   1.343   2.803   0.053
30155WAT      O90706   0.500   0.816   9.187
30155WAT     H190707   0.514   0.832   9.089
30155WAT     H290708   0.529   0.896   9.239
30156WAT      O90709   3.202   5.582   0.523
30156WAT     H190710   3.180   5.678   0.540
30156WAT     H290711   3.288   5.576   0.471
30157WAT      O90712   7.359   1.466   0.133
30157WAT     H190713   7.263   1.469   0.162
30157WAT     H290714   7.367   1.416   0.047
30158WAT      O90715   0.388   9.517   8.749
30158WAT     H190716   0.427   9.437   8.794
30158WAT     H290717   0.303   9.492   8.702
30159WAT      O90718   1.483   0.809   0.991
30159WAT     H190719   1.562   0.866   0.966
30159WAT     H290720   1.399   0.861   0.981
30160WAT      O90721   4.086   6.030   5.132
30160WAT     H190722   4.082   5.978   5.046
30160WAT     H290723   4.119   5.970   5.205
30161WAT      O90724   3.571   8.579   1.228
30161WAT     H190725   3.605   8.505   1.286
30161WAT     H290726   3.474   8.565   1.211
30162WAT      O90727   2.389   4.335   5.380
30162WAT     H190728   2.295   4.367   5.365
30162WAT     H290729   2.392   4.275   5.459
30163WAT      O90730   2.220   8.026   5.690
30163WAT     H190731   2.307   7.977   5.698
30163WAT     H290732   2.234   8.123   5.712
30164WAT      O90733   0.533   6.677   5.788
30164WAT     H190734   0.532   6.731   5.872
30164WAT     H290735   0.485   6.728   5.716
30165WAT      O90736   7.131   8.198   8.412
30165WAT     H190737   7.169   8.290   8.405
30165WAT     H290738   7.194   8.140   8.464
30166WAT      O90739   1.201   1.033   5.033
30166WAT     H190740   1.105   1.038   5.006
30166WAT     H290741   1.211   0.969   5.109
30167WAT      O90742   2.201   4.281   3.162
30167WAT     H190743   2.217   4.354   3.229
30167WAT     H290744   2.232   4.194   3.200
30168WAT      O90745   6.182   2.845   6.599
30168WAT     H190746   6.154   2.901   6.521
30168WAT     H290747   6.115   2.852   6.672
30169WAT      O90748   4.573   4.721   7.796
30169WAT     H190749   4.480   4.692   7.772
30169WAT     H290750   4.639   4.664   7.747
30170WAT      O90751   1.092   0.765   6.622
30170WAT     H190752   1.146   0.846   6.646
30170WAT     H290753   1.058   0.774   6.528
30171WAT      O90754   9.831   2.938   2.464
30171WAT     H190755   9.813   2.852   2.511
30171WAT     H290756   9.924   2.938   2.428
30172WAT      O90757   2.178   3.400   4.723
30172WAT     H190758   2.270   3.362   4.707
30172WAT     H290759   2.110   3.331   4.698
30173WAT      O90760   9.563   9.475   2.962
30173WAT     H190761   9.628   9.457   2.888
30173WAT     H290762   9.590   9.558   3.010
30174WAT      O90763   9.329   2.900   5.143
30174WAT     H190764   9.302   2.995   5.131
30174WAT     H290765   9.295   2.846   5.066
30175WAT      O90766   4.058   6.111   7.435
30175WAT     H190767   4.112   6.165   7.370
30175WAT     H290768   3.961   6.125   7.416
30176WAT      O90769   2.532   2.554   4.515
30176WAT     H190770   2.625   2.539   4.481
30176WAT     H290771   2.497   2.470   4.556
30177WAT      O90772   7.831   5.594   7.046
30177WAT     H190773   7.882   5.596   6.961
30177WAT     H290774   7.762   5.667   7.047
30178WAT      O90775   3.977   2.619   4.783
30178WAT     H190776   3.914   2.598   4.708
30178WAT     H290777   3.968   2.715   4.808
30179WAT      O90778   3.465   2.225   9.075
30179WAT     H190779   3.380   2.241   9.024
30179WAT     H290780   3.455   2.264   9.167
30180WAT      O90781   5.151   0.683   5.052
30180WAT     H190782   5.092   0.618   5.005
30180WAT     H290783   5.214   0.725   4.986
30181WAT      O90784   9.046   9.085   9.790
30181WAT     H190785   9.088   9.006   9.744
30181WAT     H290786   9.095   9.168   9.765
30182WAT      O90787   9.697   4.603   6.438
30182WAT     H190788   9.602   4.633   6.443
30182WAT     H290789   9.700   4.503   6.434
30183WAT      O90790   7.910   8.411   4.639
30183WAT     H190791   7.964   8.488   4.605
30183WAT     H290792   7.894   8.421   4.737
30184WAT      O90793   8.949   4.307   2.466
30184WAT     H190794   9.022   4.325   2.532
30184WAT     H290795   8.871   4.367   2.486
30185WAT      O90796   7.749   6.869   4.938
30185WAT     H190797   7.838   6.910   4.919
30185WAT     H290798   7.690   6.935   4.984
30186WAT      O90799   6.985   5.000   5.625
30186WAT     H190800   7.022   5.031   5.537
30186WAT     H290801   7.051   4.940   5.670
30187WAT      O90802   7.768   7.144   1.254
30187WAT     H190803   7.827   7.169   1.331
30187WAT     H290804   7.820   7.085   1.192
30188WAT      O90805   0.725   3.451   9.274
30188WAT     H190806   0.659   3.411   9.211
30188WAT     H290807   0.808   3.394   9.276
30189WAT      O90808   8.195   8.282   3.439
30189WAT     H190809   8.214   8.215   3.511
30189WAT     H290810   8.183   8.372   3.480
30190WAT      O90811   0.681   0.762   7.854
30190WAT     H190812   0.665   0.805   7.765
30190WAT     H290813   0.729   0.826   7.914
30191WAT      O90814   2.582   1.729   8.043
30191WAT     H190815   2.652   1.791   8.007
30191WAT     H290816   2.575   1.742   8.142
30192WAT      O90817   8.545   5.243   7.647
30192WAT     H190818   8.450   5.273   7.642
30192WAT     H290819   8.601   5.301   7.587
30193WAT      O90820   2.320   4.186   1.518
30193WAT     H190821   2.237   4.242   1.514
30193WAT     H290822   2.364   4.198   1.607
30194WAT      O90823   0.650   3.074   3.450
30194WAT     H190824   0.586   3.060   3.526
30194WAT     H290825   0.633   3.163   3.408
30195WAT      O90826   0.332   2.712   2.324
30195WAT     H190827   0.402   2.641   2.331
30195WAT     H290828   0.256   2.678   2.269
30196WAT      O90829   3.196   9.771   8.072
30196WAT     H190830   3.172   9.676   8.092
30196WAT     H290831   3.115   9.829   8.078
30197WAT      O90832   1.462   2.678   6.226
30197WAT     H190833   1.497   2.709   6.314
30197WAT     H290834   1.452   2.579   6.227
30198WAT      O90835   8.214   5.623   8.167
30198WAT     H190836   8.123   5.652   8.139
30198WAT     H290837   8.276   5.702   8.167
30199WAT      O90838   0.351   3.335   4.294
30199WAT     H190839   0.450   3.353   4.296
30199WAT     H290840   0.334   3.246   4.253
30200WAT      O90841   7.773   0.293   1.792
30200WAT     H190842   7.734   0.373   1.745
30200WAT     H290843   7.795   0.223   1.725
30201WAT      O90844   8.837   1.077   5.087
30201WAT     H190845   8.863   1.088   4.991
30201WAT     H290846   8.818   0.981   5.106
30202WAT      O90847   0.807   2.803   2.236
30202WAT     H190848   0.785   2.714   2.196
30202WAT     H290849   0.779   2.804   2.332
30203WAT      O90850   9.627   9.733   9.585
30203WAT     H190851   9.692   9.796   9.628
30203WAT     H290852   9.630   9.743   9.486
30204WAT      O90853   4.635   7.760   3.558
30204WAT     H190854   4.555   7.769   3.617
30204WAT     H290855   4.666   7.665   3.557
30205WAT      O90856   5.746   4.361   5.169
30205WAT     H190857   5.666   4.351   5.228
30205WAT     H290858   5.759   4.278   5.116
30206WAT      O90859   0.292   8.675   9.635
30206WAT     H190860   0.235   8.595   9.656
30206WAT     H290861   0.283   8.742   9.709
30207WAT      O90862   9.785   6.705   8.833
30207WAT     H190863   9.849   6.629   8.818
30207WAT     H290864   9.692   6.673   8.815
30208WAT      O90865   2.048   3.469   5.406
30208WAT     H190866   1.962   3.423   5.384
30208WAT     H290867   2.083   3.435   5.493
30209WAT      O90868   6.200   8.475   9.397
30209WAT     H190869   6.180   8.539   9.323
30209WAT     H290870   6.212   8.525   9.483
30210WAT      O90871   3.518   2.222   7.327
30210WAT     H190872   3.496   2.155   7.398
30210WAT     H290873   3.615   2.219   7.307
30211WAT      O90874   8.253   5.154   0.294
30211WAT     H190875   8.351   5.150   0.280
30211WAT     H290876   8.206   5.162   0.206
30212WAT      O90877   8.828   9.454   4.143
30212WAT     H190878   8.919   9.434   4.179
30212WAT     H290879   8.837   9.489   4.049
30213WAT      O90880   7.157   1.941   4.054
30213WAT     H190881   7.106   2.025   4.073
30213WAT     H290882   7.196   1.906   4.139
30214WAT      O90883   2.343   1.435   8.308
30214WAT     H190884   2.307   1.460   8.218
30214WAT     H290885   2.267   1.411   8.368
30215WAT      O90886   9.410   2.741   6.300
30215WAT     H190887   9.447   2.769   6.389
30215WAT     H290888   9.471   2.772   6.227
30216WAT      O90889   4.009   8.242   7.862
30216WAT     H190890   4.077   8.265   7.792
30216WAT     H290891   3.926   8.294   7.844
30217WAT      O90892   3.128   7.241   9.487
30217WAT     H190893   3.105   7.197   9.400
30217WAT     H290894   3.091   7.334   9.488
30218WAT      O90895   5.436   8.433   2.283
30218WAT     H190896   5.442   8.526   2.249
30218WAT     H290897   5.389   8.375   2.216
30219WAT      O90898   8.792   2.564   2.385
30219WAT     H190899   8.877   2.534   2.342
30219WAT     H290900   8.799   2.662   2.406
30220WAT      O90901   5.607   6.307   3.823
30220WAT     H190902   5.660   6.342   3.746
30220WAT     H290903   5.571   6.384   3.877
30221WAT      O90904   3.466   6.987   7.323
30221WAT     H190905   3.384   7.043   7.336
30221WAT     H290906   3.445   6.910   7.264
30222WAT      O90907   3.506   9.333   7.311
30222WAT     H190908   3.465   9.286   7.233
30222WAT     H290909   3.475   9.291   7.396
30223WAT      O90910   4.853   8.737   3.047
30223WAT     H190911   4.835   8.828   3.085
30223WAT     H290912   4.823   8.735   2.952
30224WAT      O90913   8.270   8.923   1.272
30224WAT     H190914   8.358   8.942   1.317
30224WAT     H290915   8.287   8.895   1.178
30225WAT      O90916   3.360   5.392   6.613
30225WAT     H190917   3.273   5.347   6.634
30225WAT     H290918   3.391   5.443   6.694
30226WAT      O90919   1.639   5.930   3.657
30226WAT     H190920   1.550   5.956   3.620
30226WAT     H290921   1.703   6.005   3.645
30227WAT      O90922   5.658   2.812   8.723
30227WAT     H190923   5.740   2.863   8.697
30227WAT     H290924   5.654   2.803   8.822
30228WAT      O90925   8.109   5.119   6.836
30228WAT     H190926   8.189   5.170   6.804
30228WAT     H290927   8.064   5.076   6.758
30229WAT      O90928   3.387   7.808   5.479
30229WAT     H190929   3.456   7.774   5.415
30229WAT     H290930   3.301   7.761   5.464
30230WAT      O90931   0.600   7.112   0.693
30230WAT     H190932   0.696   7.138   0.707
30230WAT     H290933   0.570   7.144   0.603
30231WAT      O90934   6.166   4.563   8.324
30231WAT     H190935   6.104   4.546   8.246
30231WAT     H290936   6.252   4.515   8.308
30232WAT      O90937   7.345   4.073   0.358
30232WAT     H190938   7.304   3.993   0.401
30232WAT     H290939   7.273   4.136   0.329
30233WAT      O90940   6.235   0.954   9.385
30233WAT     H190941   6.255   0.967   9.288
30233WAT     H290942   6.226   1.043   9.429
30234WAT      O90943   6.140   7.219   6.350
30234WAT     H190944   6.135   7.127   6.313
30234WAT     H290945   6.148   7.285   6.275
30235WAT      O90946   5.987   9.286   2.961
30235WAT     H190947   6.037   9.373   2.954
30235WAT     H290948   5.890   9.301   2.940
30236WAT      O90949   1.328   2.825   7.560
30236WAT     H190950   1.336   2.730   7.592
30236WAT     H290951   1.402   2.845   7.496
30237WAT      O90952   2.831   3.052   3.073
30237WAT     H190953   2.846   3.103   2.988
30237WAT     H290954   2.883   2.967   3.069
30238WAT      O90955   2.462   5.940   0.191
30238WAT     H190956   2.420   5.859   0.232
30238WAT     H290957   2.390   6.004   0.162
30239WAT      O90958   6.339   2.665   6.232
30239WAT     H190959   6.379   2.735   6.291
30239WAT     H290960   6.244   2.688   6.212
30240WAT      O90961   3.849   8.467   4.219
30240WAT     H190962   3.822   8.420   4.304
30240WAT     H290963   3.938   8.433   4.189
30241WAT      O90964   4.342   5.515   4.329
30241WAT     H190965   4.279   5.465   4.389
30241WAT     H290966   4.349   5.609   4.360
30242WAT      O90967   7.609   8.473   5.430
30242WAT     H190968   7.591   8.563   5.469
30242WAT     H290969   7.708   8.460   5.420
30243WAT      O90970   9.079   0.201   4.521
30243WAT     H190971   9.047   0.117   4.566
30243WAT     H290972   9.000   0.249   4.484
30244WAT      O90973   6.814   9.553   8.680
30244WAT     H190974   6.815   9.624   8.751
30244WAT     H290975   6.824   9.596   8.590
30245WAT      O90976   9.136   2.615   7.985
30245WAT     H190977   9.063   2.667   8.029
30245WAT     H290978   9.184   2.561   8.055
30246WAT      O90979   1.765   7.651   5.338
30246WAT     H190980   1.772   7.553   5.352
30246WAT     H290981   1.711   7.669   5.255
30247WAT      O90982   4.979   7.272   2.683
30247WAT     H190983   4.906   7.305   2.624
30247WAT     H290984   4.982   7.172   2.680
30248WAT      O90985   7.809   9.131   0.072
30248WAT     H190986   7.895   9.183   0.074
30248WAT     H290987   7.769   9.132   0.164
30249WAT      O90988   5.025   9.040   9.625
30249WAT     H190989   4.990   9.031   9.718
30249WAT     H290990   5.102   8.977   9.613
30250WAT      O90991   2.865   4.131   9.329
30250WAT     H190992   2.908   4.219   9.347
30250WAT     H290993   2.833   4.091   9.415
30251WAT      O90994   3.506   0.453   2.780
30251WAT     H190995   3.488   0.543   2.818
30251WAT     H290996   3.427   0.393   2.796
30252WAT      O90997   5.364   9.208   8.057
30252WAT     H190998   5.294   9.240   7.993
30252WAT     H290999   5.320   9.174   8.140
30253WAT      O91000   7.697   1.299   4.341
30253WAT     H191001   7.744   1.217   4.372
30253WAT     H291002   7.762   1.358   4.292
30254WAT      O91003   7.966   7.670   7.011
30254WAT     H191004   7.925   7.604   6.948
30254WAT     H291005   8.037   7.624   7.065
30255WAT      O91006   3.944   2.915   6.727
30255WAT     H191007   4.011   2.987   6.709
30255WAT     H291008   3.853   2.955   6.737
30256WAT      O91009   9.428   3.640   7.110
30256WAT     H191010   9.420   3.558   7.053
30256WAT     H291011   9.524   3.661   7.124
30257WAT      O91012   9.775   1.016   9.342
30257WAT     H191013   9.714   0.948   9.382
30257WAT     H291014   9.748   1.107   9.372
30258WAT      O91015   8.318   0.566   4.582
30258WAT     H191016   8.262   0.552   4.664
30258WAT     H291017   8.415   0.559   4.607
30259WAT      O91018   8.600   0.139   9.670
30259WAT     H191019   8.549   0.161   9.587
30259WAT     H291020   8.550   0.071   9.723
30260WAT      O91021   4.590   5.351   4.937
30260WAT     H191022   4.629   5.379   5.025
30260WAT     H291023   4.492   5.370   4.936
30261WAT      O91024   2.489   7.387   0.907
30261WAT     H191025   2.507   7.457   0.838
30261WAT     H291026   2.545   7.405   0.988
30262WAT      O91027   8.474   3.054   5.642
30262WAT     H191028   8.572   3.069   5.632
30262WAT     H291029   8.431   3.137   5.677
30263WAT      O91030   1.456   8.240   7.713
30263WAT     H191031   1.515   8.160   7.701
30263WAT     H291032   1.375   8.231   7.655
30264WAT      O91033   6.241   3.713   6.444
30264WAT     H191034   6.322   3.758   6.406
30264WAT     H291035   6.254   3.697   6.542
30265WAT      O91036   6.623   9.461   3.935
30265WAT     H191037   6.702   9.402   3.920
30265WAT     H291038   6.603   9.511   3.850
30266WAT      O91039   9.810   9.303   7.570
30266WAT     H191040   9.744   9.318   7.644
30266WAT     H291041   9.865   9.386   7.558
30267WAT      O91042   2.532   6.625   6.812
30267WAT     H191043   2.626   6.631   6.780
30267WAT     H291044   2.473   6.679   6.752
30268WAT      O91045   5.762   6.615   7.177
30268WAT     H191046   5.731   6.556   7.102
30268WAT     H291047   5.824   6.685   7.140
30269WAT      O91048   8.403   4.091   6.811
30269WAT     H191049   8.312   4.122   6.839
30269WAT     H291050   8.448   4.163   6.759
30270WAT      O91051   1.027   3.889   2.887
30270WAT     H191052   1.089   3.966   2.904
30270WAT     H291053   1.004   3.845   2.974
30271WAT      O91054   3.972   7.203   6.375
30271WAT     H191055   4.043   7.134   6.391
30271WAT     H291056   4.007   7.271   6.310
30272WAT      O91057   7.512   9.685   6.714
30272WAT     H191058   7.437   9.750   6.727
30272WAT     H291059   7.560   9.706   6.629
30273WAT      O91060   6.584   8.071   7.061
30273WAT     H191061   6.673   8.111   7.035
30273WAT     H291062   6.545   8.123   7.136
30274WAT      O91063   0.362   8.780   3.276
30274WAT     H191064   0.367   8.719   3.355
30274WAT     H291065   0.358   8.875   3.307
30275WAT      O91066   2.949   5.802   2.599
30275WAT     H191067   3.028   5.811   2.660
30275WAT     H291068   2.907   5.713   2.613
30276WAT      O91069   6.580   7.223   8.740
30276WAT     H191070   6.536   7.195   8.825
30276WAT     H291071   6.548   7.315   8.715
30277WAT      O91072   3.403   2.631   6.353
30277WAT     H191073   3.461   2.656   6.276
30277WAT     H291074   3.424   2.688   6.431
30278WAT      O91075   6.576   4.402   8.467
30278WAT     H191076   6.531   4.468   8.528
30278WAT     H291077   6.631   4.452   8.400
30279WAT      O91078   9.569   5.359   1.595
30279WAT     H191079   9.640   5.289   1.604
30279WAT     H291080   9.612   5.449   1.588
30280WAT      O91081   3.732   6.044   1.592
30280WAT     H191082   3.636   6.069   1.593
30280WAT     H291083   3.743   5.949   1.564
30281WAT      O91084   1.851   4.032   7.254
30281WAT     H191085   1.822   4.060   7.345
30281WAT     H291086   1.815   4.096   7.186
30282WAT      O91087   5.538   6.225   6.752
30282WAT     H191088   5.483   6.243   6.834
30282WAT     H291089   5.615   6.166   6.775
30283WAT      O91090   2.914   0.655   7.905
30283WAT     H191091   2.937   0.635   8.000
30283WAT     H291092   2.842   0.724   7.901
30284WAT      O91093   6.304   3.194   1.469
30284WAT     H191094   6.368   3.266   1.495
30284WAT     H291095   6.311   3.118   1.534
30285WAT      O91096   1.878   4.973   5.887
30285WAT     H191097   1.930   4.889   5.903
30285WAT     H291098   1.783   4.960   5.917
30286WAT      O91099   3.137   6.432   8.987
30286WAT     H191100   3.046   6.392   8.977
30286WAT     H291101   3.154   6.495   8.911
30287WAT      O91102   7.805   9.728   8.462
30287WAT     H191103   7.843   9.636   8.473
30287WAT     H291104   7.851   9.790   8.526
30288WAT      O91105   5.011   2.309   8.198
30288WAT     H191106   4.955   2.239   8.154
30288WAT     H291107   5.105   2.303   8.163
30289WAT      O91108   8.874   6.137   6.235
30289WAT     H191109   8.797   6.162   6.294
30289WAT     H291110   8.857   6.048   6.193
30290WAT      O91111   5.518   2.131   6.574
30290WAT     H191112   5.525   2.231   6.575
30290WAT     H291113   5.503   2.100   6.480
30291WAT      O91114   6.118   8.850   1.387
30291WAT     H191115   6.121   8.913   1.310
30291WAT     H291116   6.097   8.900   1.471
30292WAT      O91117   0.613   5.985   1.952
30292WAT     H191118   0.617   5.936   2.039
30292WAT     H291119   0.608   6.083   1.969
30293WAT      O91120   5.712   6.134   4.828
30293WAT     H191121   5.648   6.141   4.752
30293WAT     H291122   5.803   6.110   4.793
30294WAT      O91123   9.107   2.587   8.401
30294WAT     H191124   9.016   2.629   8.395
30294WAT     H291125   9.161   2.634   8.470
30295WAT      O91126   1.427   7.973   5.377
30295WAT     H191127   1.361   7.904   5.406
30295WAT     H291128   1.416   8.056   5.432
30296WAT      O91129   8.058   8.807   2.799
30296WAT     H191130   7.986   8.843   2.740
30296WAT     H291131   8.107   8.882   2.842
30297WAT      O91132   0.892   5.772   3.011
30297WAT     H191133   0.860   5.860   2.977
30297WAT     H291134   0.955   5.786   3.088
30298WAT      O91135   0.055   8.033   5.182
30298WAT     H191136  -0.007   8.106   5.212
30298WAT     H291137   0.060   7.963   5.252
30299WAT      O91138   1.942   4.508   7.085
30299WAT     H191139   1.938   4.558   6.998
30299WAT     H291140   2.008   4.433   7.076
30300WAT      O91141   4.472   9.048   5.735
30300WAT     H191142   4.524   8.962   5.742
30300WAT     H291143   4.509   9.103   5.660
30301WAT      O91144   4.920   8.125   4.247
30301WAT     H191145   4.880   8.091   4.331
30301WAT     H291146   5.020   8.116   4.252
30302WAT      O91147   6.508   5.904   7.568
30302WAT     H191148   6.411   5.899   7.593
30302WAT     H291149   6.559   5.835   7.619
30303WAT      O91150   4.627   0.313   2.388
30303WAT     H191151   4.561   0.262   2.332
30303WAT     H291152   4.703   0.253   2.413
30304WAT      O91153   6.878   0.461   9.061
30304WAT     H191154   6.901   0.366   9.084
30304WAT     H291155   6.906   0.480   8.967
30305WAT      O91156   5.178   6.899   0.410
30305WAT     H191157   5.138   6.807   0.402
30305WAT     H291158   5.137   6.958   0.340
30306WAT      O91159   9.026   7.242   4.696
30306WAT     H191160   8.992   7.322   4.647
30306WAT     H291161   9.064   7.176   4.631
30307WAT      O91162   7.132   8.458   4.694
30307WAT     H191163   7.110   8.548   4.732
30307WAT     H291164   7.090   8.449   4.604
30308WAT      O91165   0.377   4.135   9.818
30308WAT     H191166   0.369   4.101   9.724
30308WAT     H291167   0.341   4.067   9.882
30309WAT      O91168   9.414   6.017   8.228
30309WAT     H191169   9.362   6.074   8.165
30309WAT     H291170   9.492   6.069   8.263
30310WAT      O91171   5.240   8.896   0.559
30310WAT     H191172   5.145   8.925   0.569
30310WAT     H291173   5.288   8.910   0.645
30311WAT      O91174   5.536   8.513   5.201
30311WAT     H191175   5.474   8.450   5.248
30311WAT     H291176   5.582   8.464   5.126
30312WAT      O91177   5.324   1.369   2.124
30312WAT     H191178   5.349   1.452   2.073
30312WAT     H291179   5.362   1.289   2.078
30313WAT      O91180   5.069   5.658   0.963
30313WAT     H191181   4.976   5.648   0.929
30313WAT     H291182   5.119   5.572   0.951
30314WAT      O91183   4.624   5.568   2.614
30314WAT     H191184   4.568   5.571   2.696
30314WAT     H291185   4.673   5.654   2.603
30315WAT      O91186   7.520   9.737   1.559
30315WAT     H191187   7.578   9.683   1.619
30315WAT     H291188   7.533   9.709   1.464
30316WAT      O91189   7.133   5.241   4.725
30316WAT     H191190   7.146   5.338   4.707
30316WAT     H291191   7.151   5.222   4.822
30317WAT      O91192   7.943   6.238   1.733
30317WAT     H191193   7.866   6.175   1.726
30317WAT     H291194   8.012   6.214   1.665
30318WAT      O91195   1.265   0.777   5.204
30318WAT     H191196   1.173   0.749   5.230
30318WAT     H291197   1.311   0.818   5.283
30319WAT      O91198   3.944   9.828   5.199
30319WAT     H191199   3.854   9.868   5.220
30319WAT     H291200   3.953   9.740   5.245
30320WAT      O91201   6.799   9.552   1.891
30320WAT     H191202   6.825   9.556   1.988
30320WAT     H291203   6.714   9.604   1.878
30321WAT      O91204   8.342   8.822   3.788
30321WAT     H191205   8.435   8.813   3.753
30321WAT     H291206   8.329   8.915   3.825
30322WAT      O91207   8.422   2.470   9.815
30322WAT     H191208   8.486   2.440   9.886
30322WAT     H291209   8.343   2.514   9.857
30323WAT      O91210   4.345   3.378   9.415
30323WAT     H191211   4.316   3.421   9.330
30323WAT     H291212   4.265   3.348   9.466
30324WAT      O91213   3.861   8.305   4.779
30324WAT     H191214   3.787   8.239   4.795
30324WAT     H291215   3.890   8.345   4.866
30325WAT      O91216   2.897   6.018   1.924
30325WAT     H191217   2.848   5.933   1.945
30325WAT     H291218   2.880   6.084   1.996
30326WAT      O91219   9.228   4.305   0.750
30326WAT     H191220   9.276   4.222   0.780
30326WAT     H291221   9.134   4.282   0.724
30327WAT      O91222   3.938   1.661   4.282
30327WAT     H191223   4.003   1.699   4.347
30327WAT     H291224   3.875   1.599   4.330
30328WAT      O91225   7.477   6.084   3.303
30328WAT     H191226   7.389   6.101   3.347
30328WAT     H291227   7.464   6.026   3.223
30329WAT      O91228   1.732   9.082   1.160
30329WAT     H191229   1.823   9.123   1.155
30329WAT     H291230   1.677   9.130   1.227
30330WAT      O91231   4.992   0.119   8.347
30330WAT     H191232   5.022   0.109   8.442
30330WAT     H291233   5.063   0.086   8.285
30331WAT      O91234   7.039   6.123   6.366
30331WAT     H191235   7.006   6.031   6.347
30331WAT     H291236   6.978   6.190   6.324
30332WAT      O91237   3.436   4.988   9.522
30332WAT     H191238   3.424   5.002   9.620
30332WAT     H291239   3.523   5.027   9.492
30333WAT      O91240   7.617   6.801   0.542
30333WAT     H191241   7.648   6.721   0.490
30333WAT     H291242   7.696   6.859   0.563
30334WAT      O91243   8.456   5.547   4.286
30334WAT     H191244   8.437   5.457   4.323
30334WAT     H291245   8.371   5.598   4.276
30335WAT      O91246   8.420   7.732   2.851
30335WAT     H191247   8.347   7.794   2.878
30335WAT     H291248   8.390   7.638   2.860
30336WAT      O91249   4.286   3.878   3.800
30336WAT     H191250   4.224   3.805   3.831
30336WAT     H291251   4.333   3.917   3.879
30337WAT      O91252   4.223   2.750   9.680
30337WAT     H191253   4.234   2.847   9.660
30337WAT     H291254   4.135   2.735   9.725
30338WAT      O91255   1.835   2.122   3.663
30338WAT     H191256   1.905   2.175   3.711
30338WAT     H291257   1.817   2.037   3.713
30339WAT      O91258   7.092   6.205   3.806
30339WAT     H191259   7.127   6.198   3.899
30339WAT     H291260   6.996   6.178   3.805
30340WAT      O91261   5.185   7.638   2.815
30340WAT     H191262   5.125   7.614   2.892
30340WAT     H291263   5.143   7.608   2.729
30341WAT      O91264   1.738   0.615   0.370
30341WAT     H191265   1.743   0.701   0.420
30341WAT     H291266   1.831   0.581   0.354
30342WAT      O91267   9.811   1.286   9.448
30342WAT     H191268   9.889   1.265   9.507
30342WAT     H291269   9.843   1.301   9.354
30343WAT      O91270   9.401   4.930   5.501
30343WAT     H191271   9.474   4.874   5.539
30343WAT     H291272   9.426   5.027   5.506
30344WAT      O91273   5.698   6.570   1.138
30344WAT     H191274   5.779   6.536   1.088
30344WAT     H291275   5.698   6.531   1.230
30345WAT      O91276   9.095   8.107   1.294
30345WAT     H191277   9.121   8.192   1.340
30345WAT     H291278   9.046   8.128   1.209
30346WAT      O91279   2.420   4.227   8.436
30346WAT     H191280   2.475   4.156   8.481
30346WAT     H291281   2.376   4.283   8.506
30347WAT      O91282   4.409   3.015   2.439
30347WAT     H191283   4.355   3.070   2.376
30347WAT     H291284   4.467   3.074   2.495
30348WAT      O91285   4.663   4.671   2.642
30348WAT     H191286   4.694   4.624   2.725
30348WAT     H291287   4.740   4.714   2.596
30349WAT      O91288   3.316   1.798   0.847
30349WAT     H191289   3.391   1.785   0.913
30349WAT     H291290   3.271   1.710   0.830
30350WAT      O91291   5.851   6.043   8.433
30350WAT     H191292   5.772   5.982   8.438
30350WAT     H291293   5.844   6.100   8.351
30351WAT      O91294   9.496   2.776   2.933
30351WAT     H191295   9.446   2.724   2.864
30351WAT     H291296   9.591   2.747   2.935
30352WAT      O91297   8.964   7.235   7.688
30352WAT     H191298   9.051   7.271   7.722
30352WAT     H291299   8.947   7.272   7.596
30353WAT      O91300   8.920   7.776   4.859
30353WAT     H191301   8.867   7.694   4.838
30353WAT     H291302   9.005   7.775   4.806
30354WAT      O91303   5.843   1.798   8.677
30354WAT     H191304   5.780   1.869   8.644
30354WAT     H291305   5.820   1.776   8.772
30355WAT      O91306   4.469   2.495   1.449
30355WAT     H191307   4.561   2.494   1.410
30355WAT     H291308   4.422   2.409   1.429
30356WAT      O91309   7.422   8.885   2.544
30356WAT     H191310   7.489   8.851   2.477
30356WAT     H291311   7.461   8.879   2.636
30357WAT      O91312   1.163   9.167   9.129
30357WAT     H191313   1.153   9.240   9.061
30357WAT     H291314   1.153   9.078   9.084
30358WAT      O91315   3.774   8.260   8.147
30358WAT     H191316   3.704   8.192   8.169
30358WAT     H291317   3.863   8.230   8.182
30359WAT      O91318   4.685   4.198   3.238
30359WAT     H191319   4.623   4.257   3.291
30359WAT     H291320   4.652   4.104   3.241
30360WAT      O91321   7.889   2.816   1.979
30360WAT     H191322   7.845   2.727   1.968
30360WAT     H291323   7.987   2.802   1.995
30361WAT      O91324   1.298   5.587   9.500
30361WAT     H191325   1.317   5.489   9.509
30361WAT     H291326   1.270   5.624   9.588
30362WAT      O91327   5.411   4.855   0.396
30362WAT     H191328   5.319   4.821   0.378
30362WAT     H291329   5.428   4.854   0.495
30363WAT      O91330   4.982   1.582   9.548
30363WAT     H191331   5.053   1.613   9.612
30363WAT     H291332   4.943   1.661   9.501
30364WAT      O91333   6.346   0.307   0.736
30364WAT     H191334   6.366   0.372   0.662
30364WAT     H291335   6.260   0.332   0.780
30365WAT      O91336   5.102   7.821   5.425
30365WAT     H191337   5.139   7.834   5.517
30365WAT     H291338   5.105   7.907   5.375
30366WAT      O91339   7.316   3.969   8.474
30366WAT     H191340   7.267   4.043   8.427
30366WAT     H291341   7.374   4.008   8.545
30367WAT      O91342   3.296   3.816   2.405
30367WAT     H191343   3.363   3.799   2.332
30367WAT     H291344   3.319   3.761   2.485
30368WAT      O91345   5.310   3.666   2.657
30368WAT     H191346   5.226   3.701   2.615
30368WAT     H291347   5.389   3.702   2.608
30369WAT      O91348   1.036   9.137   8.804
30369WAT     H191349   0.960   9.151   8.741
30369WAT     H291350   1.045   9.217   8.864
30370WAT      O91351   4.882   3.118   3.207
30370WAT     H191352   4.911   3.037   3.257
30370WAT     H291353   4.901   3.106   3.110
30371WAT      O91354   0.417   1.659   4.130
30371WAT     H191355   0.424   1.755   4.155
30371WAT     H291356   0.361   1.650   4.047
30372WAT      O91357   5.397   8.196   3.408
30372WAT     H191358   5.464   8.204   3.334
30372WAT     H291359   5.308   8.169   3.369
30373WAT      O91360   1.185   1.012   1.231
30373WAT     H191361   1.274   1.012   1.276
30373WAT     H291362   1.198   1.013   1.131
30374WAT      O91363   2.786   0.360   2.468
30374WAT     H191364   2.715   0.318   2.411
30374WAT     H291365   2.870   0.306   2.460
30375WAT      O91366   7.417   3.034   1.275
30375WAT     H191367   7.370   3.122   1.263
30375WAT     H291368   7.411   3.005   1.370
30376WAT      O91369   4.487   7.905   4.921
30376WAT     H191370   4.406   7.955   4.952
30376WAT     H291371   4.461   7.812   4.896
30377WAT      O91372   6.967   4.107   8.011
30377WAT     H191373   6.933   4.138   7.923
30377WAT     H291374   7.064   4.132   8.020
30378WAT      O91375   2.355   2.899   7.437
30378WAT     H191376   2.305   2.869   7.519
30378WAT     H291377   2.452   2.880   7.449
30379WAT      O91378   2.767   2.447   4.803
30379WAT     H191379   2.735   2.542   4.791
30379WAT     H291380   2.692   2.391   4.838
30380WAT      O91381   8.082   7.218   8.088
30380WAT     H191382   8.151   7.262   8.144
30380WAT     H291383   8.074   7.121   8.113
30381WAT      O91384   6.498   2.794   0.568
30381WAT     H191385   6.543   2.723   0.514
30381WAT     H291386   6.403   2.767   0.586
30382WAT      O91387   9.220   7.669   6.744
30382WAT     H191388   9.253   7.702   6.656
30382WAT     H291389   9.298   7.659   6.806
30383WAT      O91390   8.262   4.646   3.821
30383WAT     H191391   8.201   4.666   3.745
30383WAT     H291392   8.242   4.555   3.858
30384WAT      O91393   1.232   6.916   6.245
30384WAT     H191394   1.167   6.865   6.188
30384WAT     H291395   1.183   6.960   6.321
30385WAT      O91396   9.077   3.450   4.455
30385WAT     H191397   9.147   3.494   4.399
30385WAT     H291398   8.987   3.485   4.429
30386WAT      O91399   0.384   0.858   6.961
30386WAT     H191400   0.395   0.762   6.986
30386WAT     H291401   0.379   0.914   7.043
30387WAT      O91402   7.740   0.747   8.436
30387WAT     H191403   7.782   0.833   8.465
30387WAT     H291404   7.783   0.715   8.351
30388WAT      O91405   0.545   5.902   5.782
30388WAT     H191406   0.473   5.971   5.776
30388WAT     H291407   0.566   5.866   5.691
30389WAT      O91408   2.963   8.598   1.183
30389WAT     H191409   3.002   8.515   1.225
30389WAT     H291410   2.888   8.631   1.239
30390WAT      O91411   1.357   8.653   4.996
30390WAT     H191412   1.447   8.646   5.038
30390WAT     H291413   1.306   8.728   5.039
30391WAT      O91414   3.252   6.494   3.582
30391WAT     H191415   3.227   6.474   3.677
30391WAT     H291416   3.203   6.431   3.521
30392WAT      O91417   2.209   9.273   6.906
30392WAT     H191418   2.111   9.253   6.900
30392WAT     H291419   2.243   9.297   6.815
30393WAT      O91420   5.086   4.899   1.966
30393WAT     H191421   5.009   4.836   1.960
30393WAT     H291422   5.066   4.971   2.032
30394WAT      O91423   5.171   8.265   5.612
30394WAT     H191424   5.112   8.276   5.692
30394WAT     H291425   5.260   8.307   5.630
30395WAT      O91426   3.450   6.234   4.778
30395WAT     H191427   3.350   6.234   4.782
30395WAT     H291428   3.487   6.191   4.861
30396WAT      O91429   1.512   3.069   9.413
30396WAT     H191430   1.588   3.016   9.452
30396WAT     H291431   1.427   3.020   9.427
30397WAT      O91432   9.054   3.905   5.256
30397WAT     H191433   9.015   3.923   5.346
30397WAT     H291434   9.154   3.910   5.261
30398WAT      O91435   2.249   7.449   0.209
30398WAT     H191436   2.252   7.512   0.132
30398WAT     H291437   2.217   7.359   0.178
30399WAT      O91438   0.137   9.219   4.413
30399WAT     H191439   0.210   9.158   4.441
30399WAT     H291440   0.135   9.299   4.473
30400WAT      O91441   1.917   8.864   7.156
30400WAT     H191442   1.839   8.918   7.125
30400WAT     H291443   1.894   8.817   7.241
30401WAT      O91444   3.228   9.628   0.529
30401WAT     H191445   3.138   9.602   0.495
30401WAT     H291446   3.283   9.663   0.454
30402WAT      O91447   5.897   5.553   4.632
30402WAT     H191448   5.867   5.577   4.540
30402WAT     H291449   5.909   5.636   4.686
30403WAT      O91450   4.328   0.293   0.789
30403WAT     H191451   4.332   0.279   0.888
30403WAT     H291452   4.372   0.380   0.766
30404WAT      O91453   2.160   6.366   5.247
30404WAT     H191454   2.234   6.367   5.180
30404WAT     H291455   2.112   6.278   5.243
30405WAT      O91456   5.176   0.285   9.709
30405WAT     H191457   5.238   0.294   9.787
30405WAT     H291458   5.228   0.291   9.624
30406WAT      O91459   8.554   5.830   4.516
30406WAT     H191460   8.598   5.788   4.437
30406WAT     H291461   8.581   5.782   4.600
30407WAT      O91462   5.534   7.860   5.261
30407WAT     H191463   5.576   7.930   5.202
30407WAT     H291464   5.487   7.904   5.337
30408WAT      O91465   2.683   6.268   9.757
30408WAT     H191466   2.728   6.250   9.670
30408WAT     H291467   2.665   6.366   9.766
30409WAT      O91468   6.934   3.915   0.933
30409WAT     H191469   6.846   3.962   0.942
30409WAT     H291470   6.925   3.822   0.970
30410WAT      O91471   4.230   7.760   4.014
30410WAT     H191472   4.299   7.825   3.983
30410WAT     H291473   4.249   7.670   3.975
30411WAT      O91474   5.530   4.120   4.450
30411WAT     H191475   5.522   4.195   4.384
30411WAT     H291476   5.532   4.033   4.401
30412WAT      O91477   9.068   1.635   1.352
30412WAT     H191478   8.997   1.569   1.329
30412WAT     H291479   9.142   1.631   1.285
30413WAT      O91480   7.746   4.123   2.746
30413WAT     H191481   7.837   4.165   2.748
30413WAT     H291482   7.751   4.035   2.699
30414WAT      O91483   4.853   3.686   2.808
30414WAT     H191484   4.919   3.619   2.772
30414WAT     H291485   4.886   3.722   2.894
30415WAT      O91486   5.860   1.221   5.709
30415WAT     H191487   5.795   1.217   5.633
30415WAT     H291488   5.954   1.224   5.673
30416WAT      O91489   8.906   2.720   1.734
30416WAT     H191490   8.823   2.731   1.789
30416WAT     H291491   8.897   2.773   1.650
30417WAT      O91492   8.725   5.912   8.524
30417WAT     H191493   8.780   5.989   8.492
30417WAT     H291494   8.690   5.931   8.616
30418WAT      O91495   1.444   5.494   7.503
30418WAT     H191496   1.347   5.513   7.490
30418WAT     H291497   1.469   5.412   7.452
30419WAT      O91498   1.892   0.033   2.447
30419WAT     H191499   1.924   0.081   2.366
30419WAT     H291500   1.949  -0.049   2.461
30420WAT      O91501   5.895   6.257   0.917
30420WAT     H191502   5.856   6.322   0.982
30420WAT     H291503   5.843   6.171   0.920
30421WAT      O91504   0.964   4.738   3.176
30421WAT     H191505   0.886   4.801   3.172
30421WAT     H291506   0.932   4.645   3.161
30422WAT      O91507   3.642   8.084   8.468
30422WAT     H191508   3.558   8.078   8.523
30422WAT     H291509   3.619   8.075   8.371
30423WAT      O91510   9.251   3.550   0.851
30423WAT     H191511   9.324   3.490   0.821
30423WAT     H291512   9.185   3.563   0.777
30424WAT      O91513   5.483   5.988   3.371
30424WAT     H191514   5.543   5.925   3.421
30424WAT     H291515   5.517   6.081   3.382
30425WAT      O91516   1.650   1.040   3.355
30425WAT     H191517   1.731   1.010   3.407
30425WAT     H291518   1.652   1.139   3.345
30426WAT      O91519   6.551   4.050   8.085
30426WAT     H191520   6.506   4.037   8.173
30426WAT     H291521   6.599   3.966   8.060
30427WAT      O91522   5.374   8.038   4.655
30427WAT     H191523   5.364   7.942   4.629
30427WAT     H291524   5.283   8.080   4.661
30428WAT      O91525   4.858   8.610   4.705
30428WAT     H191526   4.847   8.708   4.718
30428WAT     H291527   4.860   8.589   4.607
30429WAT      O91528   6.422   6.967   9.609
30429WAT     H191529   6.416   6.868   9.603
30429WAT     H291530   6.513   6.997   9.583
30430WAT      O91531   1.145   9.697   6.035
30430WAT     H191532   1.071   9.632   6.057
30430WAT     H291533   1.130   9.782   6.087
30431WAT      O91534   3.578   4.960   2.603
30431WAT     H191535   3.653   5.025   2.592
30431WAT     H291536   3.599   4.876   2.552
30432WAT      O91537   3.227   8.823   8.803
30432WAT     H191538   3.238   8.922   8.813
30432WAT     H291539   3.141   8.795   8.845
30433WAT      O91540   4.701   9.679   0.064
30433WAT     H191541   4.604   9.695   0.049
30433WAT     H291542   4.721   9.686   0.161
30434WAT      O91543   1.276   3.352   2.413
30434WAT     H191544   1.228   3.350   2.325
30434WAT     H291545   1.372   3.377   2.399
30435WAT      O91546   2.956   0.312   3.466
30435WAT     H191547   3.054   0.305   3.484
30435WAT     H291548   2.942   0.353   3.376
30436WAT      O91549   5.625   1.472   7.771
30436WAT     H191550   5.715   1.462   7.813
30436WAT     H291551   5.597   1.385   7.730
30437WAT      O91552   4.563   9.702   0.958
30437WAT     H191553   4.646   9.750   0.987
30437WAT     H291554   4.534   9.736   0.869
30438WAT      O91555   4.142   9.834   9.586
30438WAT     H191556   4.057   9.814   9.537
30438WAT     H291557   4.173   9.751   9.633
30439WAT      O91558   5.062   3.848   8.244
30439WAT     H191559   5.011   3.765   8.267
30439WAT     H291560   5.053   3.915   8.318
30440WAT      O91561   6.742   3.392   1.134
30440WAT     H191562   6.784   3.483   1.131
30440WAT     H291563   6.697   3.380   1.223
30441WAT      O91564   5.729   3.952   7.273
30441WAT     H191565   5.739   3.854   7.254
30441WAT     H291566   5.746   3.969   7.371
30442WAT      O91567   3.860   2.306   5.895
30442WAT     H191568   3.868   2.402   5.870
30442WAT     H291569   3.952   2.267   5.904
30443WAT      O91570   8.504   7.565   7.490
30443WAT     H191571   8.408   7.537   7.482
30443WAT     H291572   8.509   7.653   7.537
30444WAT      O91573   7.233   8.165   7.461
30444WAT     H191574   7.254   8.144   7.366
30444WAT     H291575   7.270   8.255   7.484
30445WAT      O91576   8.152   2.261   9.212
30445WAT     H191577   8.216   2.309   9.151
30445WAT     H291578   8.194   2.252   9.302
30446WAT      O91579   3.883   2.048   6.457
30446WAT     H191580   3.917   2.063   6.364
30446WAT     H291581   3.945   2.091   6.523
30447WAT      O91582   7.431   4.781   4.201
30447WAT     H191583   7.365   4.711   4.226
30447WAT     H291584   7.524   4.746   4.215
30448WAT      O91585   3.253   0.447   0.254
30448WAT     H191586   3.313   0.490   0.323
30448WAT     H291587   3.279   0.479   0.163
30449WAT      O91588   4.614   9.386   5.175
30449WAT     H191589   4.541   9.396   5.243
30449WAT     H291590   4.610   9.295   5.135
30450WAT      O91591   0.390   9.194   3.781
30450WAT     H191592   0.297   9.164   3.760
30450WAT     H291593   0.396   9.293   3.767
30451WAT      O91594   0.849   0.304   7.717
30451WAT     H191595   0.934   0.299   7.665
30451WAT     H291596   0.818   0.399   7.721
30452WAT      O91597   8.698   8.226   0.395
30452WAT     H191598   8.690   8.258   0.490
30452WAT     H291599   8.675   8.128   0.391
30453WAT      O91600   8.718   2.048   7.610
30453WAT     H191601   8.627   2.012   7.628
30453WAT     H291602   8.711   2.146   7.587
30454WAT      O91603   4.748   5.632   3.096
30454WAT     H191604   4.651   5.612   3.077
30454WAT     H291605   4.782   5.564   3.162
30455WAT      O91606   3.181   3.377   8.005
30455WAT     H191607   3.269   3.329   8.003
30455WAT     H291608   3.107   3.310   7.999
30456WAT      O91609   0.634   8.597   7.603
30456WAT     H191610   0.598   8.541   7.678
30456WAT     H291611   0.638   8.692   7.632
30457WAT      O91612   7.537   1.316   5.598
30457WAT     H191613   7.537   1.328   5.498
30457WAT     H291614   7.536   1.218   5.620
30458WAT      O91615   2.827   4.213   7.646
30458WAT     H191616   2.867   4.299   7.678
30458WAT     H291617   2.728   4.213   7.661
30459WAT      O91618   8.281   8.456   9.142
30459WAT     H191619   8.192   8.490   9.113
30459WAT     H291620   8.351   8.526   9.125
30460WAT      O91621   3.709   0.359   2.975
30460WAT     H191622   3.676   0.429   2.911
30460WAT     H291623   3.696   0.268   2.934
30461WAT      O91624   4.005   5.515   7.368
30461WAT     H191625   4.052   5.541   7.284
30461WAT     H291626   3.953   5.431   7.353
30462WAT      O91627   1.914   1.696   0.188
30462WAT     H191628   1.915   1.746   0.101
30462WAT     H291629   1.884   1.602   0.171
30463WAT      O91630   6.578   5.601   5.630
30463WAT     H191631   6.665   5.552   5.638
30463WAT     H291632   6.575   5.648   5.542
30464WAT      O91633   5.959   2.774   3.630
30464WAT     H191634   5.880   2.832   3.650
30464WAT     H291635   5.973   2.769   3.531
30465WAT      O91636   2.873   2.416   6.801
30465WAT     H191637   2.963   2.396   6.839
30465WAT     H291638   2.803   2.375   6.859
30466WAT      O91639   5.694   3.294   8.049
30466WAT     H191640   5.649   3.317   7.963
30466WAT     H291641   5.635   3.232   8.101
30467WAT      O91642   1.395   4.055   3.712
30467WAT     H191643   1.334   4.039   3.790
30467WAT     H291644   1.418   3.967   3.670
30468WAT      O91645   2.255   2.583   7.831
30468WAT     H191646   2.211   2.501   7.792
30468WAT     H291647   2.191   2.628   7.894
30469WAT      O91648   5.900   8.260   0.634
30469WAT     H191649   5.951   8.341   0.660
30469WAT     H291650   5.920   8.186   0.699
30470WAT      O91651   1.538   7.225   0.664
30470WAT     H191652   1.564   7.133   0.634
30470WAT     H291653   1.613   7.289   0.646
30471WAT      O91654   7.997   1.947   6.569
30471WAT     H191655   8.011   1.852   6.598
30471WAT     H291656   8.014   2.008   6.647
30472WAT      O91657   0.103   2.462   4.091
30472WAT     H191658   0.190   2.492   4.132
30472WAT     H291659   0.031   2.468   4.159
30473WAT      O91660   2.008   5.676   7.347
30473WAT     H191661   1.964   5.723   7.270
30473WAT     H291662   1.943   5.611   7.387
30474WAT      O91663   2.946   4.475   4.348
30474WAT     H191664   2.898   4.501   4.432
30474WAT     H291665   2.922   4.380   4.324
30475WAT      O91666   1.741   5.429   6.415
30475WAT     H191667   1.835   5.411   6.442
30475WAT     H291668   1.697   5.488   6.483
30476WAT      O91669   5.512   2.357   9.345
30476WAT     H191670   5.435   2.308   9.303
30476WAT     H291671   5.587   2.293   9.363
30477WAT      O91672   5.439   9.485   4.755
30477WAT     H191673   5.434   9.545   4.835
30477WAT     H291674   5.502   9.524   4.688
30478WAT      O91675   2.609   3.960   4.865
30478WAT     H191676   2.572   4.034   4.810
30478WAT     H291677   2.626   3.880   4.808
30479WAT      O91678   5.049   4.021   9.524
30479WAT     H191679   4.980   3.974   9.469
30479WAT     H291680   5.057   3.975   9.613
30480WAT      O91681   4.947   7.207   0.840
30480WAT     H191682   4.851   7.202   0.868
30480WAT     H291683   4.953   7.227   0.742
30481WAT      O91684   9.120   8.077   1.684
30481WAT     H191685   9.077   7.998   1.728
30481WAT     H291686   9.182   8.121   1.749
30482WAT      O91687   1.225   8.122   1.519
30482WAT     H191688   1.175   8.146   1.603
30482WAT     H291689   1.183   8.170   1.442
30483WAT      O91690   5.305   4.388   2.588
30483WAT     H191691   5.284   4.306   2.534
30483WAT     H291692   5.222   4.421   2.631
30484WAT      O91693   4.951   6.475   6.315
30484WAT     H191694   5.050   6.484   6.325
30484WAT     H291695   4.923   6.381   6.334
30485WAT      O91696   6.391   6.124   7.287
30485WAT     H191697   6.367   6.042   7.234
30485WAT     H291698   6.313   6.150   7.344
30486WAT      O91699   2.267   6.581   1.257
30486WAT     H191700   2.321   6.496   1.256
30486WAT     H291701   2.170   6.559   1.259
30487WAT      O91702   1.659   3.653   2.818
30487WAT     H191703   1.748   3.609   2.825
30487WAT     H291704   1.597   3.594   2.765
30488WAT      O91705   6.692   8.649   6.631
30488WAT     H191706   6.654   8.559   6.611
30488WAT     H291707   6.750   8.678   6.555
30489WAT      O91708   6.954   5.137   8.589
30489WAT     H191709   7.018   5.197   8.637
30489WAT     H291710   6.861   5.173   8.599
30490WAT      O91711   8.902   5.309   3.473
30490WAT     H191712   8.937   5.266   3.557
30490WAT     H291713   8.971   5.372   3.437
30491WAT      O91714   8.620   9.356   7.765
30491WAT     H191715   8.534   9.405   7.779
30491WAT     H291716   8.696   9.413   7.794
30492WAT      O91717   6.628   1.148   5.182
30492WAT     H191718   6.657   1.054   5.166
30492WAT     H291719   6.686   1.190   5.251
30493WAT      O91720   5.558   4.193   0.991
30493WAT     H191721   5.641   4.248   0.995
30493WAT     H291722   5.534   4.162   1.083
30494WAT      O91723   4.617   2.555   8.003
30494WAT     H191724   4.716   2.556   7.985
30494WAT     H291725   4.585   2.461   8.010
30495WAT      O91726   3.741   0.366   5.624
30495WAT     H191727   3.749   0.331   5.531
30495WAT     H291728   3.805   0.442   5.637
30496WAT      O91729   6.350   5.779   9.624
30496WAT     H191730   6.371   5.686   9.655
30496WAT     H291731   6.289   5.775   9.545
30497WAT      O91732   3.429   3.648   9.563
30497WAT     H191733   3.378   3.565   9.541
30497WAT     H291734   3.451   3.698   9.479
30498WAT      O91735   4.132   3.223   2.809
30498WAT     H191736   4.161   3.312   2.845
30498WAT     H291737   4.062   3.184   2.869
30499WAT      O91738   9.072   6.273   3.927
30499WAT     H191739   9.027   6.270   3.838
30499WAT     H291740   9.142   6.344   3.927
30500WAT      O91741   5.748   6.389   2.337
30500WAT     H191742   5.803   6.425   2.412
30500WAT     H291743   5.738   6.290   2.348
30501WAT      O91744   7.116   3.880   4.060
30501WAT     H191745   7.026   3.840   4.075
30501WAT     H291746   7.129   3.897   3.962
30502WAT      O91747   2.313   7.492   5.833
30502WAT     H191748   2.357   7.581   5.842
30502WAT     H291749   2.236   7.500   5.769
30503WAT      O91750   5.202   0.752   9.724
30503WAT     H191751   5.150   0.666   9.727
30503WAT     H291752   5.161   0.817   9.788
30504WAT      O91753   1.825   6.360   0.365
30504WAT     H191754   1.810   6.346   0.463
30504WAT     H291755   1.922   6.353   0.344
30505WAT      O91756   5.447   0.624   7.950
30505WAT     H191757   5.466   0.558   8.023
30505WAT     H291758   5.522   0.690   7.945
30506WAT      O91759   5.839   0.258   0.533
30506WAT     H191760   5.917   0.212   0.576
30506WAT     H291761   5.872   0.322   0.463
30507WAT      O91762   0.063   4.185   3.317
30507WAT     H191763   0.014   4.263   3.277
30507WAT     H291764   0.024   4.100   3.282
30508WAT      O91765   2.218   2.393   5.543
30508WAT     H191766   2.138   2.337   5.521
30508WAT     H291767   2.268   2.351   5.619
30509WAT      O91768   8.523   7.464   6.691
30509WAT     H191769   8.546   7.389   6.753
30509WAT     H291770   8.605   7.491   6.640
30510WAT      O91771   0.265   6.423   9.835
30510WAT     H191772   0.276   6.328   9.864
30510WAT     H291773   0.332   6.481   9.882
30511WAT      O91774   9.707   9.507   1.626
30511WAT     H191775   9.639   9.519   1.698
30511WAT     H291776   9.676   9.554   1.543
30512WAT      O91777   2.562   1.948   8.801
30512WAT     H191778   2.551   2.046   8.821
30512WAT     H291779   2.472   1.907   8.786
30513WAT      O91780   6.920   9.772   7.904
30513WAT     H191781   6.866   9.719   7.969
30513WAT     H291782   6.859   9.817   7.839
30514WAT      O91783   0.548   1.437   9.551
30514WAT     H191784   0.596   1.394   9.627
30514WAT     H291785   0.610   1.447   9.473
30515WAT      O91786   7.065   2.322   4.383
30515WAT     H191787   7.088   2.367   4.296
30515WAT     H291788   7.135   2.254   4.405
30516WAT      O91789   5.870   2.885   0.608
30516WAT     H191790   5.816   2.801   0.603
30516WAT     H291791   5.854   2.929   0.697
30517WAT      O91792   5.289   6.071   6.642
30517WAT     H191793   5.335   5.982   6.643
30517WAT     H291794   5.311   6.121   6.725
30518WAT      O91795   8.203   2.068   3.218
30518WAT     H191796   8.302   2.076   3.202
30518WAT     H291797   8.181   1.974   3.243
30519WAT      O91798   7.808   1.481   6.723
30519WAT     H191799   7.779   1.547   6.792
30519WAT     H291800   7.790   1.519   6.632
30520WAT      O91801   1.495   4.405   4.340
30520WAT     H191802   1.547   4.488   4.358
30520WAT     H291803   1.451   4.412   4.250
30521WAT      O91804   6.312   5.108   8.167
30521WAT     H191805   6.348   5.017   8.187
30521WAT     H291806   6.284   5.152   8.252
30522WAT      O91807   8.636   1.871   6.982
30522WAT     H191808   8.636   1.916   6.893
30522WAT     H291809   8.548   1.886   7.027
30523WAT      O91810   7.556   7.834   3.891
30523WAT     H191811   7.607   7.815   3.975
30523WAT     H291812   7.459   7.817   3.906
30524WAT      O91813   2.464   4.096   1.778
30524WAT     H191814   2.402   4.126   1.850
30524WAT     H291815   2.536   4.165   1.766
30525WAT      O91816   4.459   0.628   2.284
30525WAT     H191817   4.515   0.587   2.356
30525WAT     H291818   4.487   0.593   2.195
30526WAT      O91819   3.735   7.634   8.160
30526WAT     H191820   3.759   7.646   8.257
30526WAT     H291821   3.814   7.596   8.112
30527WAT      O91822   6.694   9.091   5.492
30527WAT     H191823   6.791   9.067   5.481
30527WAT     H291824   6.686   9.189   5.509
30528WAT      O91825   6.095   5.792   7.078
30528WAT     H191826   6.113   5.696   7.100
30528WAT     H291827   6.007   5.819   7.118
30529WAT      O91828   4.136   7.971   2.173
30529WAT     H191829   4.142   7.924   2.261
30529WAT     H291830   4.048   7.951   2.130
30530WAT      O91831   2.208   1.200   1.799
30530WAT     H191832   2.289   1.256   1.781
30530WAT     H291833   2.203   1.180   1.897
30531WAT      O91834   7.861   3.510   1.697
30531WAT     H191835   7.942   3.489   1.642
30531WAT     H291836   7.887   3.525   1.792
30532WAT      O91837   1.738   5.645   7.725
30532WAT     H191838   1.668   5.690   7.780
30532WAT     H291839   1.772   5.707   7.655
30533WAT      O91840   6.138   3.810   7.766
30533WAT     H191841   6.116   3.908   7.763
30533WAT     H291842   6.195   3.792   7.846
30534WAT      O91843   7.177   7.696   0.540
30534WAT     H191844   7.267   7.673   0.578
30534WAT     H291845   7.166   7.651   0.452
30535WAT      O91846   2.385   1.175   8.167
30535WAT     H191847   2.355   1.215   8.080
30535WAT     H291848   2.459   1.230   8.205
30536WAT      O91849   8.069   6.939   3.670
30536WAT     H191850   8.069   6.839   3.659
30536WAT     H291851   8.148   6.977   3.621
30537WAT      O91852   4.304   2.297   8.873
30537WAT     H191853   4.247   2.334   8.946
30537WAT     H291854   4.351   2.372   8.826
30538WAT      O91855   4.871   1.051   8.496
30538WAT     H191856   4.856   1.145   8.528
30538WAT     H291857   4.943   1.009   8.550
30539WAT      O91858   3.242   8.512   8.839
30539WAT     H191859   3.282   8.603   8.825
30539WAT     H291860   3.191   8.485   8.758
30540WAT      O91861   8.470   9.644   9.480
30540WAT     H191862   8.533   9.716   9.451
30540WAT     H291863   8.521   9.570   9.524
30541WAT      O91864   3.669   5.351   8.130
30541WAT     H191865   3.769   5.347   8.137
30541WAT     H291866   3.628   5.313   8.213
30542WAT      O91867   1.064   7.778   0.567
30542WAT     H191868   1.125   7.739   0.636
30542WAT     H291869   1.102   7.762   0.476
30543WAT      O91870   5.818   7.088   5.442
30543WAT     H191871   5.822   6.989   5.431
30543WAT     H291872   5.910   7.124   5.456
30544WAT      O91873   8.358   8.939   3.279
30544WAT     H191874   8.279   8.913   3.334
30544WAT     H291875   8.407   9.014   3.325
30545WAT      O91876   6.594   0.033   4.530
30545WAT     H191877   6.620  -0.004   4.440
30545WAT     H291878   6.625  -0.030   4.601
30546WAT      O91879   4.801   9.520   8.694
30546WAT     H191880   4.725   9.460   8.669
30546WAT     H291881   4.884   9.490   8.647
30547WAT      O91882   2.160   9.647   3.560
30547WAT     H191883   2.148   9.557   3.603
30547WAT     H291884   2.084   9.706   3.586
30548WAT      O91885   7.586   5.461   7.665
30548WAT     H191886   7.592   5.507   7.754
30548WAT     H291887   7.521   5.385   7.671
30549WAT      O91888   8.650   5.697   9.527
30549WAT     H191889   8.571   5.688   9.588
30549WAT     H291890   8.622   5.739   9.441
30550WAT      O91891   4.748   2.952   4.811
30550WAT     H191892   4.654   2.918   4.812
30550WAT     H291893   4.752   3.036   4.756
30551WAT      O91894   1.034   0.115   0.250
30551WAT     H191895   1.099   0.058   0.200
30551WAT     H291896   0.959   0.142   0.189
30552WAT      O91897   7.621   2.078   0.896
30552WAT     H191898   7.646   2.166   0.936
30552WAT     H291899   7.523   2.075   0.878
30553WAT      O91900   9.031   7.596   3.295
30553WAT     H191901   9.020   7.597   3.196
30553WAT     H291902   8.982   7.516   3.333
30554WAT      O91903   7.232   4.992   6.914
30554WAT     H191904   7.177   5.037   6.984
30554WAT     H291905   7.295   5.058   6.873
30555WAT      O91906   6.683   2.597   9.155
30555WAT     H191907   6.729   2.563   9.072
30555WAT     H291908   6.745   2.588   9.233
30556WAT      O91909   3.125   6.510   5.295
30556WAT     H191910   3.029   6.481   5.303
30556WAT     H291911   3.155   6.497   5.201
30557WAT      O91912   3.720   0.225   1.051
30557WAT     H191913   3.721   0.297   0.982
30557WAT     H291914   3.813   0.208   1.084
30558WAT      O91915   9.807   9.424   8.455
30558WAT     H191916   9.904   9.427   8.430
30558WAT     H291917   9.776   9.329   8.454
30559WAT      O91918   3.069   4.311   5.609
30559WAT     H191919   3.093   4.269   5.697
30559WAT     H291920   2.997   4.256   5.566
30560WAT      O91921   4.533   3.586   8.075
30560WAT     H191922   4.631   3.582   8.055
30560WAT     H291923   4.482   3.537   8.003
30561WAT      O91924   6.908   9.174   0.695
30561WAT     H191925   6.994   9.126   0.713
30561WAT     H291926   6.913   9.267   0.733
30562WAT      O91927   4.356   4.069   8.185
30562WAT     H191928   4.327   4.093   8.278
30562WAT     H291929   4.378   4.152   8.134
30563WAT      O91930   6.062   7.615   3.369
30563WAT     H191931   6.112   7.700   3.382
30563WAT     H291932   6.124   7.537   3.375
30564WAT      O91933   2.985   2.690   6.050
30564WAT     H191934   3.080   2.718   6.061
30564WAT     H291935   2.967   2.667   5.955
30565WAT      O91936   2.794   1.622   4.667
30565WAT     H191937   2.757   1.551   4.607
30565WAT     H291938   2.883   1.652   4.632
30566WAT      O91939   3.856   5.073   4.920
30566WAT     H191940   3.828   5.103   5.011
30566WAT     H291941   3.871   5.152   4.862
30567WAT      O91942   3.047   0.842   7.150
30567WAT     H191943   3.050   0.911   7.078
30567WAT     H291944   2.951   0.820   7.170
30568WAT      O91945   8.812   1.696   2.309
30568WAT     H191946   8.883   1.746   2.258
30568WAT     H291947   8.773   1.625   2.250
30569WAT      O91948   2.633   3.003   1.671
30569WAT     H191949   2.712   3.045   1.626
30569WAT     H291950   2.625   2.907   1.645
30570WAT      O91951   7.171   0.870   0.009
30570WAT     H191952   7.197   0.777   0.034
30570WAT     H291953   7.113   0.868  -0.073
30571WAT      O91954   2.041   5.006   7.343
30571WAT     H191955   1.945   5.026   7.321
30571WAT     H291956   2.053   5.011   7.443
30572WAT      O91957   8.973   2.343   0.886
30572WAT     H191958   8.929   2.261   0.922
30572WAT     H291959   8.926   2.372   0.803
30573WAT      O91960   8.738   1.018   5.349
30573WAT     H191961   8.760   1.078   5.271
30573WAT     H291962   8.647   1.041   5.383
30574WAT      O91963   2.499   1.880   6.776
30574WAT     H191964   2.574   1.895   6.712
30574WAT     H291965   2.517   1.929   6.861
30575WAT      O91966   9.814   4.677   1.241
30575WAT     H191967   9.835   4.771   1.267
30575WAT     H291968   9.888   4.640   1.185
30576WAT      O91969   2.360   4.353   9.450
30576WAT     H191970   2.347   4.258   9.480
30576WAT     H291971   2.449   4.386   9.482
30577WAT      O91972   2.647   0.093   4.642
30577WAT     H191973   2.657   0.192   4.636
30577WAT     H291974   2.735   0.051   4.661
30578WAT      O91975   9.034   6.162   7.242
30578WAT     H191976   8.980   6.082   7.218
30578WAT     H291977   9.059   6.211   7.158
30579WAT      O91978   7.212   8.225   4.783
30579WAT     H191979   7.202   8.317   4.746
30579WAT     H291980   7.125   8.176   4.775
30580WAT      O91981   5.087   0.757   4.078
30580WAT     H191982   5.043   0.814   4.009
30580WAT     H291983   5.018   0.718   4.139
30581WAT      O91984   1.883   2.502   7.773
30581WAT     H191985   1.899   2.577   7.838
30581WAT     H291986   1.969   2.452   7.760
30582WAT      O91987   1.605   5.737   3.974
30582WAT     H191988   1.614   5.660   3.911
30582WAT     H291989   1.663   5.723   4.053
30583WAT      O91990   6.763   2.518   6.121
30583WAT     H191991   6.693   2.530   6.050
30583WAT     H291992   6.720   2.489   6.206
30584WAT      O91993   0.743   3.241   4.604
30584WAT     H191994   0.694   3.272   4.523
30584WAT     H291995   0.838   3.222   4.581
30585WAT      O91996   2.221   1.720   8.378
30585WAT     H191997   2.307   1.732   8.427
30585WAT     H291998   2.225   1.637   8.322
30586WAT      O91999   3.434   0.735   9.856
30586WAT     H192000   3.408   0.763   9.949
30586WAT     H292001   3.510   0.791   9.825
30587WAT      O92002   7.332   2.445   2.434
30587WAT     H192003   7.380   2.503   2.500
30587WAT     H292004   7.237   2.434   2.462
30588WAT      O92005   1.080   0.013   7.738
30588WAT     H192006   1.168  -0.032   7.750
30588WAT     H292007   1.091   0.094   7.681
30589WAT      O92008   1.489   8.862   4.784
30589WAT     H192009   1.519   8.955   4.805
30589WAT     H292010   1.392   8.853   4.806
30590WAT      O92011   9.029   0.376   1.872
30590WAT     H192012   8.955   0.407   1.932
30590WAT     H292013   9.049   0.446   1.804
30591WAT      O92014   8.564   5.206   8.630
30591WAT     H192015   8.545   5.227   8.534
30591WAT     H292016   8.483   5.167   8.673
30592WAT      O92017   8.786   6.373   1.442
30592WAT     H192018   8.762   6.445   1.377
30592WAT     H292019   8.771   6.283   1.400
30593WAT      O92020   2.161   9.494   7.737
30593WAT     H192021   2.102   9.533   7.808
30593WAT     H292022   2.123   9.513   7.647
30594WAT      O92023   0.442   0.002   9.016
30594WAT     H192024   0.366   0.037   8.962
30594WAT     H292025   0.482   0.076   9.070
30595WAT      O92026   9.146   1.344   0.349
30595WAT     H192027   9.159   1.380   0.442
30595WAT     H292028   9.200   1.397   0.285
30596WAT      O92029   0.711   8.626   2.479
30596WAT     H192030   0.779   8.616   2.551
30596WAT     H292031   0.657   8.709   2.496
30597WAT      O92032   8.108   0.203   8.345
30597WAT     H192033   8.206   0.220   8.339
30597WAT     H292034   8.058   0.273   8.294
30598WAT      O92035   5.231   2.271   3.259
30598WAT     H192036   5.285   2.353   3.283
30598WAT     H292037   5.226   2.211   3.338
30599WAT      O92038   6.089   6.545   0.856
30599WAT     H192039   6.093   6.631   0.805
30599WAT     H292040   6.130   6.472   0.802
30600WAT      O92041   1.084   6.366   1.442
30600WAT     H192042   1.112   6.287   1.387
30600WAT     H292043   1.017   6.420   1.391
30601WAT      O92044   5.322   8.977   5.052
30601WAT     H192045   5.314   9.065   5.006
30601WAT     H292046   5.324   8.991   5.151
30602WAT      O92047   7.282   0.483   8.601
30602WAT     H192048   7.352   0.550   8.578
30602WAT     H292049   7.292   0.403   8.543
30603WAT      O92050   6.641   7.848   1.227
30603WAT     H192051   6.624   7.893   1.314
30603WAT     H292052   6.579   7.770   1.217
30604WAT      O92053   4.211   2.806   0.647
30604WAT     H192054   4.264   2.764   0.721
30604WAT     H292055   4.259   2.793   0.560
30605WAT      O92056   5.423   7.255   6.602
30605WAT     H192057   5.337   7.255   6.551
30605WAT     H292058   5.426   7.174   6.662
30606WAT      O92059   1.535   6.099   2.968
30606WAT     H192060   1.563   6.054   3.053
30606WAT     H292061   1.574   6.050   2.890
30607WAT      O92062   6.195   8.862   2.484
30607WAT     H192063   6.281   8.877   2.533
30607WAT     H292064   6.169   8.947   2.437
30608WAT      O92065   5.800   5.658   4.397
30608WAT     H192066   5.708   5.620   4.388
30608WAT     H292067   5.804   5.746   4.350
30609WAT      O92068   5.627   0.572   0.848
30609WAT     H192069   5.627   0.499   0.779
30609WAT     H292070   5.586   0.537   0.933
30610WAT      O92071   8.201   3.101   1.609
30610WAT     H192072   8.229   3.085   1.515
30610WAT     H292073   8.248   3.036   1.669
30611WAT      O92074   3.945   2.353   9.090
30611WAT     H192075   3.900   2.426   9.141
30611WAT     H292076   4.036   2.336   9.129
30612WAT      O92077   0.411   3.364   3.884
30612WAT     H192078   0.313   3.347   3.878
30612WAT     H292079   0.455   3.290   3.934
30613WAT      O92080   3.887   2.871   1.016
30613WAT     H192081   3.939   2.801   1.064
30613WAT     H292082   3.808   2.898   1.071
30614WAT      O92083   6.609   6.709   9.232
30614WAT     H192084   6.531   6.674   9.180
30614WAT     H292085   6.680   6.739   9.169
30615WAT      O92086   8.310   8.222   4.101
30615WAT     H192087   8.230   8.177   4.140
30615WAT     H292088   8.289   8.252   4.008
30616WAT      O92089   2.525   6.642   4.383
30616WAT     H192090   2.554   6.556   4.342
30616WAT     H292091   2.591   6.671   4.452
30617WAT      O92092   2.053   2.658   5.938
30617WAT     H192093   2.071   2.646   5.841
30617WAT     H292094   1.960   2.629   5.959
30618WAT      O92095   4.742   3.764   7.048
30618WAT     H192096   4.816   3.699   7.028
30618WAT     H292097   4.766   3.818   7.128
30619WAT      O92098   0.479   8.874   7.251
30619WAT     H192099   0.429   8.950   7.210
30619WAT     H292100   0.432   8.844   7.334
30620WAT      O92101   2.609   4.918   9.145
30620WAT     H192102   2.540   4.854   9.180
30620WAT     H292103   2.631   4.895   9.051
30621WAT      O92104   2.675   7.190   2.270
30621WAT     H192105   2.586   7.165   2.309
30621WAT     H292106   2.748   7.150   2.326
30622WAT      O92107   7.333   3.611   0.490
30622WAT     H192108   7.402   3.671   0.449
30622WAT     H292109   7.377   3.550   0.556
30623WAT      O92110   6.432   8.473   8.406
30623WAT     H192111   6.437   8.454   8.504
30623WAT     H292112   6.522   8.461   8.365
30624WAT      O92113   7.127   0.403   4.211
30624WAT     H192114   7.033   0.372   4.221
30624WAT     H292115   7.129   0.501   4.192
30625WAT      O92116   2.099   9.705   2.514
30625WAT     H192117   2.134   9.707   2.420
30625WAT     H292118   2.156   9.763   2.573
30626WAT      O92119   6.345   4.225   1.416
30626WAT     H192120   6.393   4.309   1.441
30626WAT     H292121   6.339   4.218   1.316
30627WAT      O92122   1.271   3.071   8.700
30627WAT     H192123   1.218   3.078   8.615
30627WAT     H292124   1.212   3.094   8.778
30628WAT      O92125   5.399   4.343   8.879
30628WAT     H192126   5.456   4.261   8.886
30628WAT     H292127   5.327   4.327   8.811
30629WAT      O92128   7.750   4.766   6.541
30629WAT     H192129   7.670   4.729   6.588
30629WAT     H292130   7.811   4.691   6.514
30630WAT      O92131   9.417   4.629   5.915
30630WAT     H192132   9.514   4.633   5.888
30630WAT     H292133   9.409   4.587   6.005
30631WAT      O92134   9.627   7.977   6.969
30631WAT     H192135   9.693   8.027   7.026
30631WAT     H292136   9.618   7.884   7.003
30632WAT      O92137   8.439   1.458   4.396
30632WAT     H192138   8.528   1.500   4.379
30632WAT     H292139   8.376   1.525   4.436
30633WAT      O92140   6.073   4.361   0.898
30633WAT     H192141   6.025   4.390   0.980
30633WAT     H292142   6.040   4.271   0.869
30634WAT      O92143   1.128   3.860   7.736
30634WAT     H192144   1.172   3.926   7.674
30634WAT     H292145   1.066   3.909   7.797
30635WAT      O92146   9.183   0.763   4.037
30635WAT     H192147   9.089   0.755   4.003
30635WAT     H292148   9.240   0.693   3.993
30636WAT      O92149   6.699   3.515   4.875
30636WAT     H192150   6.782   3.482   4.919
30636WAT     H292151   6.656   3.440   4.825
30637WAT      O92152   6.472   0.668   6.377
30637WAT     H192153   6.568   0.688   6.359
30637WAT     H292154   6.414   0.726   6.320
30638WAT      O92155   7.772   2.547   5.160
30638WAT     H192156   7.693   2.492   5.133
30638WAT     H292157   7.855   2.491   5.156
30639WAT      O92158   0.881   3.070   8.577
30639WAT     H192159   0.819   3.058   8.655
30639WAT     H292160   0.836   3.124   8.506
30640WAT      O92161   2.443   1.802   9.288
30640WAT     H192162   2.460   1.887   9.337
30640WAT     H292163   2.434   1.821   9.191
30641WAT      O92164   2.290   6.370   3.598
30641WAT     H192165   2.388   6.366   3.583
30641WAT     H292166   2.267   6.315   3.679
30642WAT      O92167   5.071   2.583   7.263
30642WAT     H192168   4.994   2.573   7.325
30642WAT     H292169   5.045   2.638   7.185
30643WAT      O92170   6.493   6.372   8.216
30643WAT     H192171   6.436   6.366   8.298
30643WAT     H292172   6.455   6.315   8.144
30644WAT      O92173   9.282   0.616   6.924
30644WAT     H192174   9.327   0.660   7.002
30644WAT     H292175   9.325   0.527   6.907
30645WAT      O92176   0.009   0.133   8.664
30645WAT     H192177  -0.032   0.222   8.685
30645WAT     H292178   0.107   0.145   8.650
30646WAT      O92179   8.431   5.575   0.519
30646WAT     H192180   8.447   5.570   0.420
30646WAT     H292181   8.339   5.542   0.540
30647WAT      O92182   5.493   7.551   4.264
30647WAT     H192183   5.466   7.645   4.287
30647WAT     H292184   5.584   7.533   4.301
30648WAT      O92185   7.583   2.416   0.516
30648WAT     H192186   7.496   2.432   0.563
30648WAT     H292187   7.609   2.320   0.528
30649WAT      O92188   7.402   5.332   3.213
30649WAT     H192189   7.428   5.236   3.205
30649WAT     H292190   7.471   5.389   3.168
30650WAT      O92191   7.033   7.383   4.154
30650WAT     H192192   6.950   7.336   4.122
30650WAT     H292193   7.089   7.319   4.207
30651WAT      O92194   2.374   5.860   4.522
30651WAT     H192195   2.286   5.847   4.477
30651WAT     H292196   2.368   5.829   4.616
30652WAT      O92197   1.485   4.816   2.639
30652WAT     H192198   1.543   4.811   2.557
30652WAT     H292199   1.493   4.906   2.680
30653WAT      O92200   4.847   7.877   1.940
30653WAT     H192201   4.859   7.857   2.037
30653WAT     H292202   4.870   7.973   1.923
30654WAT      O92203   6.607   3.097   8.207
30654WAT     H192204   6.530   3.055   8.256
30654WAT     H292205   6.601   3.074   8.110
30655WAT      O92206   5.023   4.148   2.968
30655WAT     H192207   5.008   4.135   2.870
30655WAT     H292208   4.951   4.206   3.005
30656WAT      O92209   7.700   6.719   4.144
30656WAT     H192210   7.780   6.718   4.085
30656WAT     H292211   7.725   6.753   4.235
30657WAT      O92212   2.718   7.173   1.080
30657WAT     H192213   2.808   7.181   1.036
30657WAT     H292214   2.677   7.264   1.089
30658WAT      O92215   0.192   1.485   1.061
30658WAT     H192216   0.122   1.553   1.037
30658WAT     H292217   0.179   1.456   1.155
30659WAT      O92218   2.132   7.887   4.117
30659WAT     H192219   2.100   7.907   4.025
30659WAT     H292220   2.198   7.812   4.114
30660WAT      O92221   8.740   5.131   8.286
30660WAT     H192222   8.718   5.045   8.240
30660WAT     H292223   8.656   5.175   8.317
30661WAT      O92224   0.183   0.262   6.064
30661WAT     H192225   0.283   0.257   6.060
30661WAT     H292226   0.145   0.172   6.046
30662WAT      O92227   1.486   2.047   2.330
30662WAT     H192228   1.469   1.967   2.273
30662WAT     H292229   1.582   2.048   2.358
30663WAT      O92230   0.174   7.294   4.361
30663WAT     H192231   0.183   7.234   4.282
30663WAT     H292232   0.146   7.240   4.441
30664WAT      O92233   4.853   9.100   2.695
30664WAT     H192234   4.762   9.061   2.711
30664WAT     H292235   4.922   9.043   2.740
30665WAT      O92236   6.622   1.844   8.647
30665WAT     H192237   6.579   1.831   8.736
30665WAT     H292238   6.690   1.917   8.652
30666WAT      O92239   4.707   6.104   9.261
30666WAT     H192240   4.622   6.084   9.213
30666WAT     H292241   4.769   6.026   9.254
30667WAT      O92242   4.466   6.351   9.206
30667WAT     H192243   4.431   6.260   9.180
30667WAT     H292244   4.389   6.412   9.223
30668WAT      O92245   9.098   0.911   0.481
30668WAT     H192246   9.024   0.939   0.542
30668WAT     H292247   9.067   0.838   0.421
30669WAT      O92248   7.562   9.512   6.363
30669WAT     H192249   7.619   9.462   6.298
30669WAT     H292250   7.499   9.572   6.313
30670WAT      O92251   0.679   3.230   7.560
30670WAT     H192252   0.710   3.296   7.491
30670WAT     H292253   0.681   3.138   7.521
30671WAT      O92254   4.662   3.109   3.358
30671WAT     H192255   4.676   3.167   3.438
30671WAT     H292256   4.742   3.114   3.298
30672WAT      O92257   4.551   9.624   9.038
30672WAT     H192258   4.518   9.695   9.101
30672WAT     H292259   4.600   9.554   9.091
30673WAT      O92260   3.241   2.017   7.222
30673WAT     H192261   3.292   1.978   7.299
30673WAT     H292262   3.163   1.958   7.200
30674WAT      O92263   1.399   9.178   6.282
30674WAT     H192264   1.495   9.168   6.257
30674WAT     H292265   1.358   9.252   6.228
30675WAT      O92266   9.445   2.229   4.463
30675WAT     H192267   9.501   2.210   4.543
30675WAT     H292268   9.501   2.269   4.390
30676WAT      O92269   6.850   0.158   3.238
30676WAT     H192270   6.876   0.071   3.280
30676WAT     H292271   6.757   0.152   3.202
30677WAT      O92272   2.071   4.856   7.843
30677WAT     H192273   2.041   4.951   7.833
30677WAT     H292274   2.039   4.820   7.930
30678WAT      O92275   1.426   3.681   3.493
30678WAT     H192276   1.375   3.745   3.436
30678WAT     H292277   1.362   3.628   3.549
30679WAT      O92278   8.382   7.402   4.829
30679WAT     H192279   8.312   7.452   4.880
30679WAT     H292280   8.358   7.401   4.732
30680WAT      O92281   3.780   9.617   0.515
30680WAT     H192282   3.862   9.652   0.561
30680WAT     H292283   3.708   9.602   0.583
30681WAT      O92284   6.008   3.985   8.134
30681WAT     H192285   6.031   3.928   8.055
30681WAT     H292286   6.064   4.067   8.133
30682WAT      O92287   9.756   7.942   0.438
30682WAT     H192288   9.774   7.992   0.522
30682WAT     H292289   9.703   7.860   0.458
30683WAT      O92290   3.705   0.780   3.824
30683WAT     H192291   3.767   0.809   3.751
30683WAT     H292292   3.757   0.729   3.893
30684WAT      O92293   9.829   0.256   4.067
30684WAT     H192294   9.815   0.203   4.151
30684WAT     H292295   9.898   0.211   4.010
30685WAT      O92296   1.069   0.148   0.702
30685WAT     H192297   1.002   0.118   0.770
30685WAT     H292298   1.161   0.143   0.741
30686WAT      O92299   9.588   1.312   8.958
30686WAT     H192300   9.654   1.371   9.005
30686WAT     H292301   9.573   1.346   8.865
30687WAT      O92302   3.855   4.007   4.323
30687WAT     H192303   3.933   4.057   4.362
30687WAT     H292304   3.782   4.071   4.302
30688WAT      O92305   3.629   2.545   5.511
30688WAT     H192306   3.703   2.487   5.544
30688WAT     H292307   3.660   2.596   5.431
30689WAT      O92308   9.473   4.343   3.567
30689WAT     H192309   9.393   4.376   3.618
30689WAT     H292310   9.512   4.418   3.514
30690WAT      O92311   4.500   2.357   3.250
30690WAT     H192312   4.513   2.259   3.235
30690WAT     H292313   4.417   2.372   3.303
30691WAT      O92314   3.917   0.762   4.916
30691WAT     H192315   3.882   0.853   4.939
30691WAT     H292316   3.879   0.732   4.829
30692WAT      O92317   8.495   2.336   8.360
30692WAT     H192318   8.493   2.435   8.374
30692WAT     H292319   8.476   2.290   8.447
30693WAT      O92320   9.363   9.443   7.974
30693WAT     H192321   9.442   9.388   7.999
30693WAT     H292322   9.313   9.469   8.056
30694WAT      O92323   7.031   0.236   3.973
30694WAT     H192324   6.992   0.222   4.064
30694WAT     H292325   7.033   0.333   3.952
30695WAT      O92326   5.223   1.276   6.067
30695WAT     H192327   5.272   1.237   6.145
30695WAT     H292328   5.137   1.316   6.099
30696WAT      O92329   8.818   9.583   7.852
30696WAT     H192330   8.908   9.627   7.856
30696WAT     H292331   8.764   9.610   7.932
30697WAT      O92332   6.044   9.685   5.437
30697WAT     H192333   6.090   9.606   5.398
30697WAT     H292334   5.945   9.669   5.439
30698WAT      O92335   7.692   2.332   6.443
30698WAT     H192336   7.725   2.238   6.436
30698WAT     H292337   7.593   2.331   6.457
30699WAT      O92338   6.638   7.524   4.942
30699WAT     H192339   6.584   7.534   4.859
30699WAT     H292340   6.640   7.611   4.991
30700WAT      O92341   1.322   5.425   1.070
30700WAT     H192342   1.363   5.433   0.979
30700WAT     H292343   1.235   5.475   1.072
30701WAT      O92344   8.254   5.891   2.891
30701WAT     H192345   8.247   5.798   2.929
30701WAT     H292346   8.312   5.889   2.810
30702WAT      O92347   7.373   4.219   4.842
30702WAT     H192348   7.292   4.161   4.842
30702WAT     H292349   7.378   4.269   4.928
30703WAT      O92350   3.470   3.659   3.484
30703WAT     H192351   3.474   3.747   3.532
30703WAT     H292352   3.402   3.664   3.411
30704WAT      O92353   1.304   6.823   8.518
30704WAT     H192354   1.270   6.916   8.508
30704WAT     H292355   1.246   6.760   8.465
30705WAT      O92356   8.311   1.407   7.938
30705WAT     H192357   8.329   1.411   8.037
30705WAT     H292358   8.224   1.452   7.918
30706WAT      O92359   4.150   9.241   9.647
30706WAT     H192360   4.092   9.161   9.664
30706WAT     H292361   4.222   9.244   9.717
30707WAT      O92362   5.239   8.121   3.183
30707WAT     H192363   5.174   8.056   3.143
30707WAT     H292364   5.312   8.140   3.117
30708WAT      O92365   6.407   9.647   1.170
30708WAT     H192366   6.419   9.746   1.179
30708WAT     H292367   6.441   9.602   1.253
30709WAT      O92368   3.472   1.308   1.449
30709WAT     H192369   3.409   1.253   1.505
30709WAT     H292370   3.458   1.405   1.469
30710WAT      O92371   4.772   8.422   5.129
30710WAT     H192372   4.814   8.341   5.171
30710WAT     H292373   4.844   8.483   5.096
30711WAT      O92374   8.316   3.327   5.496
30711WAT     H192375   8.237   3.273   5.467
30711WAT     H292376   8.292   3.379   5.578
30712WAT      O92377   7.545   3.661   1.951
30712WAT     H192378   7.489   3.609   1.887
30712WAT     H292379   7.543   3.617   2.041
30713WAT      O92380   4.726   4.557   2.880
30713WAT     H192381   4.697   4.581   2.972
30713WAT     H292382   4.693   4.465   2.858
30714WAT      O92383   7.406   4.457   7.891
30714WAT     H192384   7.306   4.465   7.897
30714WAT     H292385   7.438   4.386   7.953
30715WAT      O92386   0.477   6.516   8.976
30715WAT     H192387   0.554   6.575   9.002
30715WAT     H292388   0.512   6.434   8.932
30716WAT      O92389   7.776   2.831   0.292
30716WAT     H192390   7.758   2.853   0.388
30716WAT     H292391   7.700   2.861   0.236
30717WAT      O92392   2.099   6.270   0.241
30717WAT     H192393   2.077   6.216   0.160
30717WAT     H292394   2.114   6.209   0.319
30718WAT      O92395   6.400   5.285   5.787
30718WAT     H192396   6.465   5.247   5.721
30718WAT     H292397   6.356   5.211   5.837
30719WAT      O92398   6.088   7.376   5.707
30719WAT     H192399   6.050   7.349   5.795
30719WAT     H292400   6.047   7.463   5.678
30720WAT      O92401   9.480   1.006   4.498
30720WAT     H192402   9.465   0.986   4.595
30720WAT     H292403   9.393   1.003   4.450
30721WAT      O92404   3.904   1.793   7.176
30721WAT     H192405   3.835   1.751   7.117
30721WAT     H292406   3.960   1.721   7.217
30722WAT      O92407   2.779   7.054   2.839
30722WAT     H192408   2.723   7.109   2.776
30722WAT     H292409   2.805   6.968   2.795
30723WAT      O92410   9.086   9.819   4.060
30723WAT     H192411   9.152   9.870   4.115
30723WAT     H292412   9.082   9.856   3.968
30724WAT      O92413   1.135   6.938   2.201
30724WAT     H192414   1.094   6.853   2.234
30724WAT     H292415   1.220   6.955   2.251
30725WAT      O92416   8.568   4.569   3.602
30725WAT     H192417   8.651   4.523   3.569
30725WAT     H292418   8.543   4.532   3.692
30726WAT      O92419   7.913   9.474   8.462
30726WAT     H192420   8.005   9.485   8.499
30726WAT     H292421   7.913   9.402   8.393
30727WAT      O92422   8.032   5.800   3.740
30727WAT     H192423   8.061   5.758   3.826
30727WAT     H292424   7.935   5.823   3.745
30728WAT      O92425   6.166   3.566   6.015
30728WAT     H192426   6.244   3.518   5.975
30728WAT     H292427   6.103   3.593   5.942
30729WAT      O92428   1.771   4.172   6.278
30729WAT     H192429   1.793   4.247   6.339
30729WAT     H292430   1.679   4.183   6.243
30730WAT      O92431   1.620   6.905   9.371
30730WAT     H192432   1.576   6.983   9.416
30730WAT     H292433   1.685   6.862   9.434
30731WAT      O92434   4.380   8.138   9.087
30731WAT     H192435   4.346   8.086   9.165
30731WAT     H292436   4.303   8.168   9.031
30732WAT      O92437   6.508   7.810   2.305
30732WAT     H192438   6.460   7.895   2.322
30732WAT     H292439   6.578   7.825   2.234
30733WAT      O92440   7.044   1.837   7.115
30733WAT     H192441   7.130   1.796   7.083
30733WAT     H292442   6.972   1.768   7.113
30734WAT      O92443   9.844   9.788   2.587
30734WAT     H192444   9.823   9.799   2.684
30734WAT     H292445   9.795   9.709   2.551
30735WAT      O92446   7.930   6.214   3.884
30735WAT     H192447   7.882   6.154   3.948
30735WAT     H292448   8.020   6.175   3.863
30736WAT      O92449   8.595   2.148   6.209
30736WAT     H192450   8.537   2.135   6.289
30736WAT     H292451   8.574   2.235   6.165
30737WAT      O92452   6.212   5.187   6.784
30737WAT     H192453   6.301   5.154   6.751
30737WAT     H292454   6.177   5.258   6.722
30738WAT      O92455   7.499   1.186   4.196
30738WAT     H192456   7.578   1.232   4.238
30738WAT     H292457   7.422   1.189   4.259
30739WAT      O92458   4.821   1.719   8.214
30739WAT     H192459   4.892   1.787   8.233
30739WAT     H292460   4.831   1.642   8.277
30740WAT      O92461   2.942   1.571   0.678
30740WAT     H192462   2.918   1.474   0.670
30740WAT     H292463   2.860   1.627   0.662
30741WAT      O92464   6.815   2.135   1.535
30741WAT     H192465   6.747   2.119   1.464
30741WAT     H292466   6.906   2.134   1.494
30742WAT      O92467   4.262   4.059   1.125
30742WAT     H192468   4.216   3.989   1.180
30742WAT     H292469   4.206   4.080   1.044
30743WAT      O92470   3.590   3.399   8.349
30743WAT     H192471   3.684   3.424   8.326
30743WAT     H292472   3.583   3.384   8.448
30744WAT      O92473   8.944   5.677   2.802
30744WAT     H192474   8.925   5.739   2.726
30744WAT     H292475   9.032   5.700   2.843
30745WAT      O92476   0.894   8.906   1.193
30745WAT     H192477   0.908   8.807   1.184
30745WAT     H292478   0.912   8.950   1.105
30746WAT      O92479   2.293   8.179   9.355
30746WAT     H192480   2.326   8.229   9.435
30746WAT     H292481   2.348   8.097   9.342
30747WAT      O92482   1.310   6.188   3.887
30747WAT     H192483   1.224   6.237   3.899
30747WAT     H292484   1.313   6.110   3.950
30748WAT      O92485   0.573   8.813   0.570
30748WAT     H192486   0.664   8.855   0.564
30748WAT     H292487   0.509   8.878   0.612
30749WAT      O92488   5.426   8.304   9.521
30749WAT     H192489   5.388   8.322   9.611
30749WAT     H292490   5.506   8.363   9.507
30750WAT      O92491   8.016   5.146   5.797
30750WAT     H192492   8.021   5.050   5.822
30750WAT     H292493   8.100   5.173   5.751
30751WAT      O92494   8.507   1.803   5.459
30751WAT     H192495   8.519   1.814   5.361
30751WAT     H292496   8.409   1.804   5.481
30752WAT      O92497   7.343   1.369   4.967
30752WAT     H192498   7.249   1.386   4.940
30752WAT     H292499   7.353   1.384   5.065
30753WAT      O92500   8.299   8.261   3.732
30753WAT     H192501   8.276   8.172   3.770
30753WAT     H292502   8.229   8.328   3.758
30754WAT      O92503   9.740   2.328   5.914
30754WAT     H192504   9.745   2.384   5.831
30754WAT     H292505   9.827   2.332   5.962
30755WAT      O92506   9.752   3.741   8.341
30755WAT     H192507   9.725   3.704   8.253
30755WAT     H292508   9.787   3.834   8.329
30756WAT      O92509   1.214   2.027   6.091
30756WAT     H192510   1.135   2.069   6.135
30756WAT     H292511   1.191   1.932   6.067
30757WAT      O92512   9.715   7.911   4.314
30757WAT     H192513   9.662   7.846   4.259
30757WAT     H292514   9.812   7.886   4.311
30758WAT      O92515   1.309   0.879   2.543
30758WAT     H192516   1.290   0.963   2.493
30758WAT     H292517   1.377   0.825   2.493
30759WAT      O92518   5.740   8.483   1.422
30759WAT     H192519   5.834   8.509   1.401
30759WAT     H292520   5.699   8.552   1.483
30760WAT      O92521   9.508   0.273   0.840
30760WAT     H192522   9.496   0.174   0.841
30760WAT     H292523   9.605   0.296   0.840
30761WAT      O92524   1.710   6.433   4.638
30761WAT     H192525   1.709   6.336   4.615
30761WAT     H292526   1.627   6.477   4.602
30762WAT      O92527   6.099   4.121   1.184
30762WAT     H192528   6.030   4.193   1.183
30762WAT     H292529   6.054   4.031   1.176
30763WAT      O92530   4.829   4.025   6.527
30763WAT     H192531   4.761   3.953   6.516
30763WAT     H292532   4.822   4.091   6.451
30764WAT      O92533   4.545   0.510   2.778
30764WAT     H192534   4.571   0.426   2.826
30764WAT     H292535   4.451   0.503   2.747
30765WAT      O92536   6.747   8.113   9.058
30765WAT     H192537   6.814   8.158   8.999
30765WAT     H292538   6.789   8.090   9.145
30766WAT      O92539   7.269   1.598   9.129
30766WAT     H192540   7.329   1.598   9.209
30766WAT     H292541   7.199   1.668   9.140
30767WAT      O92542   7.238   2.444   1.760
30767WAT     H192543   7.148   2.465   1.723
30767WAT     H292544   7.305   2.444   1.686
30768WAT      O92545   6.430   0.066   7.863
30768WAT     H192546   6.339   0.026   7.865
30768WAT     H292547   6.477   0.050   7.950
30769WAT      O92548   6.156   5.854   5.171
30769WAT     H192549   6.057   5.848   5.164
30769WAT     H292550   6.190   5.782   5.231
30770WAT      O92551   9.402   6.182   9.417
30770WAT     H192552   9.311   6.201   9.379
30770WAT     H292553   9.411   6.229   9.505
30771WAT      O92554   8.141   9.008   7.648
30771WAT     H192555   8.171   8.935   7.587
30771WAT     H292556   8.220   9.057   7.683
30772WAT      O92557   6.596   8.706   4.745
30772WAT     H192558   6.650   8.629   4.712
30772WAT     H292559   6.505   8.703   4.703
30773WAT      O92560   4.845   7.888   3.203
30773WAT     H192561   4.781   7.933   3.265
30773WAT     H292562   4.797   7.865   3.118
30774WAT      O92563   7.540   5.511   7.210
30774WAT     H192564   7.632   5.479   7.230
30774WAT     H292565   7.522   5.596   7.260
30775WAT      O92566   0.644   9.844   5.810
30775WAT     H192567   0.631   9.749   5.839
30775WAT     H292568   0.569   9.870   5.748
30776WAT      O92569   2.609   5.965   9.572
30776WAT     H192570   2.692   5.912   9.589
30776WAT     H292571   2.529   5.914   9.604
30777WAT      O92572   8.159   6.854   7.796
30777WAT     H192573   8.134   6.881   7.703
30777WAT     H292574   8.115   6.766   7.819
30778WAT      O92575   0.555   3.737   3.297
30778WAT     H192576   0.485   3.765   3.362
30778WAT     H292577   0.513   3.721   3.208
30779WAT      O92578   4.746   0.292   7.131
30779WAT     H192579   4.677   0.220   7.142
30779WAT     H292580   4.771   0.299   7.034
30780WAT      O92581   8.803   5.888   2.477
30780WAT     H192582   8.900   5.876   2.496
30780WAT     H292583   8.787   5.981   2.445
30781WAT      O92584   4.226   8.915   2.641
30781WAT     H192585   4.134   8.935   2.608
30781WAT     H292586   4.287   8.991   2.621
30782WAT      O92587   0.345   1.474   3.518
30782WAT     H192588   0.268   1.462   3.581
30782WAT     H292589   0.430   1.485   3.571
30783WAT      O92590   6.541   2.167   2.877
30783WAT     H192591   6.639   2.159   2.860
30783WAT     H292592   6.524   2.240   2.943
30784WAT      O92593   9.378   2.751   9.217
30784WAT     H192594   9.408   2.845   9.238
30784WAT     H292595   9.405   2.691   9.292
30785WAT      O92596   7.446   0.944   0.069
30785WAT     H192597   7.483   0.879   0.135
30785WAT     H292598   7.360   0.908   0.030
30786WAT      O92599   1.464   9.037   1.495
30786WAT     H192600   1.442   9.030   1.398
30786WAT     H292601   1.446   9.130   1.527
30787WAT      O92602   4.310   1.520   4.983
30787WAT     H192603   4.295   1.616   4.960
30787WAT     H292604   4.402   1.509   5.019
30788WAT      O92605   4.983   1.941   4.468
30788WAT     H192606   5.054   1.886   4.425
30788WAT     H292607   4.898   1.889   4.473
30789WAT      O92608   5.753   0.842   7.235
30789WAT     H192609   5.713   0.757   7.269
30789WAT     H292610   5.684   0.914   7.235
30790WAT      O92611   6.799   2.918   9.869
30790WAT     H192612   6.707   2.884   9.851
30790WAT     H292613   6.806   2.948   9.964
30791WAT      O92614   6.643   5.079   4.701
30791WAT     H192615   6.590   4.995   4.709
30791WAT     H292616   6.677   5.089   4.608
30792WAT      O92617   4.088   7.066   6.759
30792WAT     H192618   4.014   7.051   6.694
30792WAT     H292619   4.175   7.076   6.711
30793WAT      O92620   4.756   8.620   5.601
30793WAT     H192621   4.838   8.579   5.561
30793WAT     H292622   4.778   8.709   5.640
30794WAT      O92623   4.698   0.980   4.884
30794WAT     H192624   4.701   0.892   4.932
30794WAT     H292625   4.774   0.985   4.819
30795WAT      O92626   8.446   0.396   1.510
30795WAT     H192627   8.431   0.357   1.419
30795WAT     H292628   8.364   0.385   1.565
30796WAT      O92629   3.172   5.457   1.626
30796WAT     H192630   3.219   5.439   1.541
30796WAT     H292631   3.073   5.452   1.612
30797WAT      O92632   4.132   8.751   4.291
30797WAT     H192633   4.133   8.715   4.198
30797WAT     H292634   4.157   8.678   4.355
30798WAT      O92635   9.116   1.887   1.006
30798WAT     H192636   9.175   1.954   1.051
30798WAT     H292637   9.115   1.904   0.907
30799WAT      O92638   3.223   8.916   4.112
30799WAT     H192639   3.238   8.822   4.080
30799WAT     H292640   3.256   8.924   4.206
30800WAT      O92641   2.261   6.854   6.383
30800WAT     H192642   2.344   6.837   6.436
30800WAT     H292643   2.182   6.851   6.444
30801WAT      O92644   2.011   6.431   1.565
30801WAT     H192645   2.068   6.350   1.552
30801WAT     H292646   2.007   6.483   1.479
30802WAT      O92647   9.276   8.518   1.233
30802WAT     H192648   9.202   8.547   1.172
30802WAT     H292649   9.307   8.597   1.286
30803WAT      O92650   9.225   4.723   0.866
30803WAT     H192651   9.260   4.639   0.909
30803WAT     H292652   9.278   4.801   0.896
30804WAT      O92653   6.927   6.351   3.575
30804WAT     H192654   7.015   6.355   3.622
30804WAT     H292655   6.860   6.408   3.624
30805WAT      O92656   6.906   7.690   9.282
30805WAT     H192657   6.981   7.708   9.218
30805WAT     H292658   6.934   7.721   9.374
30806WAT      O92659   5.886   0.107   8.118
30806WAT     H192660   5.968   0.052   8.137
30806WAT     H292661   5.806   0.060   8.154
30807WAT      O92662   9.784   0.405   8.793
30807WAT     H192663   9.697   0.358   8.801
30807WAT     H292664   9.811   0.440   8.883
30808WAT      O92665   1.892   8.268   4.872
30808WAT     H192666   1.968   8.206   4.891
30808WAT     H292667   1.850   8.294   4.959
30809WAT      O92668   3.544   4.332   6.630
30809WAT     H192669   3.524   4.427   6.653
30809WAT     H292670   3.461   4.277   6.638
30810WAT      O92671   4.562   7.717   4.607
30810WAT     H192672   4.491   7.787   4.594
30810WAT     H292673   4.573   7.699   4.704
30811WAT      O92674   6.778   4.443   6.645
30811WAT     H192675   6.774   4.454   6.545
30811WAT     H292676   6.864   4.479   6.679
30812WAT      O92677   5.112   9.559   2.099
30812WAT     H192678   5.164   9.537   2.017
30812WAT     H292679   5.141   9.648   2.135
30813WAT      O92680   6.533   0.602   7.362
30813WAT     H192681   6.543   0.700   7.346
30813WAT     H292682   6.437   0.580   7.379
30814WAT      O92683   2.324   2.960   3.082
30814WAT     H192684   2.261   3.036   3.100
30814WAT     H292685   2.317   2.934   2.986
30815WAT      O92686   5.594   7.568   3.649
30815WAT     H192687   5.635   7.597   3.736
30815WAT     H292688   5.637   7.483   3.619
30816WAT      O92689   9.240   1.821   6.273
30816WAT     H192690   9.274   1.834   6.366
30816WAT     H292691   9.287   1.885   6.212
30817WAT      O92692   8.104   0.201   9.802
30817WAT     H192693   8.130   0.144   9.880
30817WAT     H292694   8.183   0.213   9.742
30818WAT      O92695   3.866   2.281   5.047
30818WAT     H192696   3.937   2.331   5.097
30818WAT     H292697   3.862   2.187   5.080
30819WAT      O92698   9.238   0.156   4.168
30819WAT     H192699   9.252   0.145   4.266
30819WAT     H292700   9.325   0.173   4.123
30820WAT      O92701   7.661   3.358   2.888
30820WAT     H192702   7.626   3.430   2.827
30820WAT     H292703   7.585   3.304   2.923
30821WAT      O92704   9.745   1.499   9.088
30821WAT     H192705   9.754   1.599   9.092
30821WAT     H292706   9.825   1.456   9.129
30822WAT      O92707   1.174   1.841   3.833
30822WAT     H192708   1.106   1.769   3.826
30822WAT     H292709   1.136   1.927   3.799
30823WAT      O92710   2.824   2.011   1.652
30823WAT     H192711   2.910   2.014   1.702
30823WAT     H292712   2.752   2.053   1.707
30824WAT      O92713   8.792   3.908   7.009
30824WAT     H192714   8.852   3.988   7.013
30824WAT     H292715   8.837   3.830   7.053
30825WAT      O92716   5.622   4.567   1.930
30825WAT     H192717   5.648   4.658   1.897
30825WAT     H292718   5.662   4.498   1.869
30826WAT      O92719   8.829   4.147   1.752
30826WAT     H192720   8.791   4.219   1.809
30826WAT     H292721   8.771   4.066   1.757
30827WAT      O92722   3.051   9.783   1.365
30827WAT     H192723   3.066   9.712   1.296
30827WAT     H292724   2.975   9.841   1.337
30828WAT      O92725   2.429   1.920   1.292
30828WAT     H192726   2.490   1.895   1.217
30828WAT     H292727   2.343   1.869   1.284
30829WAT      O92728   8.934   0.215   5.626
30829WAT     H192729   8.913   0.293   5.686
30829WAT     H292730   8.856   0.196   5.568
30830WAT      O92731   8.194   7.072   0.106
30830WAT     H192732   8.276   7.063   0.162
30830WAT     H292733   8.131   7.136   0.150
30831WAT      O92734   3.599   9.618   0.719
30831WAT     H192735   3.650   9.704   0.708
30831WAT     H292736   3.524   9.615   0.652
30832WAT      O92737   8.646   5.644   7.916
30832WAT     H192738   8.587   5.596   7.981
30832WAT     H292739   8.621   5.618   7.823
30833WAT      O92740   5.292   4.425   7.891
30833WAT     H192741   5.288   4.336   7.846
30833WAT     H292742   5.226   4.426   7.967
30834WAT      O92743   7.823   0.395   3.214
30834WAT     H192744   7.758   0.439   3.153
30834WAT     H292745   7.914   0.435   3.201
30835WAT      O92746   6.340   5.567   0.191
30835WAT     H192747   6.250   5.554   0.232
30835WAT     H292748   6.390   5.638   0.242
30836WAT      O92749   1.129   9.260   2.443
30836WAT     H192750   1.082   9.255   2.355
30836WAT     H292751   1.220   9.219   2.434
30837WAT      O92752   5.828   6.142   8.159
30837WAT     H192753   5.795   6.236   8.151
30837WAT     H292754   5.927   6.140   8.150
30838WAT      O92755   5.215   8.416   6.296
30838WAT     H192756   5.139   8.428   6.360
30838WAT     H292757   5.301   8.420   6.345
30839WAT      O92758   3.745   5.219   0.973
30839WAT     H192759   3.685   5.284   0.926
30839WAT     H292760   3.782   5.154   0.907
30840WAT      O92761   5.900   2.685   1.707
30840WAT     H192762   5.931   2.600   1.749
30840WAT     H292763   5.803   2.699   1.726
30841WAT      O92764   0.097   1.910   2.510
30841WAT     H192765   0.153   1.985   2.546
30841WAT     H292766   0.001   1.927   2.532
30842WAT      O92767   3.006   0.168   4.302
30842WAT     H192768   2.918   0.214   4.292
30842WAT     H292769   3.045   0.190   4.392
30843WAT      O92770   8.265   0.002   9.512
30843WAT     H192771   8.290   0.042   9.424
30843WAT     H292772   8.332  -0.067   9.538
30844WAT      O92773   9.723   8.403   4.792
30844WAT     H192774   9.765   8.320   4.757
30844WAT     H292775   9.699   8.463   4.715
30845WAT      O92776   0.752   4.229   5.280
30845WAT     H192777   0.676   4.189   5.230
30845WAT     H292778   0.800   4.157   5.331
30846WAT      O92779   9.879   6.169   5.654
30846WAT     H192780   9.943   6.128   5.589
30846WAT     H292781   9.929   6.200   5.734
30847WAT      O92782   6.320   5.913   1.837
30847WAT     H192783   6.414   5.943   1.822
30847WAT     H292784   6.317   5.813   1.842
30848WAT      O92785   7.480   4.223   7.699
30848WAT     H192786   7.455   4.192   7.791
30848WAT     H292787   7.476   4.323   7.696
30849WAT      O92788   9.117   7.398   8.631
30849WAT     H192789   9.085   7.482   8.588
30849WAT     H292790   9.100   7.321   8.570
30850WAT      O92791   8.459   2.125   0.931
30850WAT     H192792   8.388   2.070   0.974
30850WAT     H292793   8.484   2.201   0.991
30851WAT      O92794   2.008   8.024   3.451
30851WAT     H192795   1.916   7.986   3.459
30851WAT     H292796   2.004   8.123   3.462
30852WAT      O92797   7.410   8.525   4.869
30852WAT     H192798   7.333   8.465   4.848
30852WAT     H292799   7.444   8.568   4.785
30853WAT      O92800   0.622   8.193   0.723
30853WAT     H192801   0.600   8.109   0.673
30853WAT     H292802   0.571   8.269   0.684
30854WAT      O92803   3.214   7.795   5.949
30854WAT     H192804   3.279   7.739   5.898
30854WAT     H292805   3.121   7.768   5.925
30855WAT      O92806   1.815   3.722   7.156
30855WAT     H192807   1.732   3.667   7.165
30855WAT     H292808   1.800   3.813   7.193
30856WAT      O92809   4.242   5.008   6.385
30856WAT     H192810   4.184   4.965   6.454
30856WAT     H292811   4.336   5.014   6.419
30857WAT      O92812   9.404   1.947   9.282
30857WAT     H192813   9.451   2.018   9.228
30857WAT     H292814   9.398   1.976   9.377
30858WAT      O92815   1.117   8.633   0.070
30858WAT     H192816   1.170   8.717   0.061
30858WAT     H292817   1.094   8.617   0.166
30859WAT      O92818   2.870   2.465   3.822
30859WAT     H192819   2.935   2.388   3.823
30859WAT     H292820   2.777   2.430   3.830
30860WAT      O92821   8.989   6.751   4.132
30860WAT     H192822   9.013   6.713   4.043
30860WAT     H292823   8.914   6.700   4.172
30861WAT      O92824   7.738   9.581   1.926
30861WAT     H192825   7.644   9.579   1.959
30861WAT     H292826   7.798   9.615   1.999
30862WAT      O92827   5.024   1.258   4.771
30862WAT     H192828   5.022   1.158   4.775
30862WAT     H292829   5.119   1.289   4.767
30863WAT      O92830   4.170   6.795   3.856
30863WAT     H192831   4.110   6.763   3.929
30863WAT     H292832   4.264   6.797   3.889
30864WAT      O92833   3.390   9.397   8.431
30864WAT     H192834   3.450   9.450   8.372
30864WAT     H292835   3.413   9.415   8.527
30865WAT      O92836   8.276   9.324   9.592
30865WAT     H192837   8.192   9.356   9.638
30865WAT     H292838   8.264   9.329   9.493
30866WAT      O92839   5.987   6.124   0.210
30866WAT     H192840   6.061   6.160   0.266
30866WAT     H292841   6.009   6.137   0.113
30867WAT      O92842   8.674   8.950   3.942
30867WAT     H192843   8.630   8.905   3.864
30867WAT     H292844   8.751   8.895   3.973
30868WAT      O92845   7.344   6.381   6.285
30868WAT     H192846   7.266   6.336   6.327
30868WAT     H292847   7.398   6.314   6.234
30869WAT      O92848   1.304   7.768   3.876
30869WAT     H192849   1.345   7.848   3.833
30869WAT     H292850   1.367   7.730   3.943
30870WAT      O92851   9.692   4.747   4.021
30870WAT     H192852   9.710   4.741   4.119
30870WAT     H292853   9.731   4.667   3.975
30871WAT      O92854   5.247   0.428   6.782
30871WAT     H192855   5.322   0.405   6.721
30871WAT     H292856   5.211   0.345   6.825
30872WAT      O92857   3.238   0.867   9.714
30872WAT     H192858   3.284   0.889   9.628
30872WAT     H292859   3.302   0.820   9.774
30873WAT      O92860   9.505   7.510   3.732
30873WAT     H192861   9.531   7.442   3.665
30873WAT     H292862   9.415   7.487   3.770
30874WAT      O92863   2.526   5.752   0.545
30874WAT     H192864   2.486   5.775   0.634
30874WAT     H292865   2.529   5.653   0.535
30875WAT      O92866   0.292   4.513   7.238
30875WAT     H192867   0.222   4.463   7.290
30875WAT     H292868   0.346   4.448   7.185
30876WAT      O92869   0.145   5.295   3.573
30876WAT     H192870   0.113   5.356   3.646
30876WAT     H292871   0.222   5.241   3.606
30877WAT      O92872   6.659   3.312   2.216
30877WAT     H192873   6.626   3.343   2.305
30877WAT     H292874   6.748   3.354   2.196
30878WAT      O92875   5.425   7.090   5.427
30878WAT     H192876   5.423   7.063   5.331
30878WAT     H292877   5.497   7.158   5.441
30879WAT      O92878   2.252   8.481   3.682
30879WAT     H192879   2.304   8.535   3.616
30879WAT     H292880   2.171   8.533   3.710
30880WAT      O92881   3.855   4.137   6.268
30880WAT     H192882   3.836   4.039   6.278
30880WAT     H292883   3.770   4.189   6.281
30881WAT      O92884   1.989   3.933   1.584
30881WAT     H192885   1.947   3.843   1.596
30881WAT     H292886   2.088   3.922   1.574
30882WAT      O92887   9.422   4.289   5.787
30882WAT     H192888   9.373   4.364   5.743
30882WAT     H292889   9.511   4.322   5.819
30883WAT      O92890   1.255   8.076   3.291
30883WAT     H192891   1.160   8.107   3.287
30883WAT     H292892   1.266   7.994   3.235
30884WAT      O92893   6.636   5.810   2.796
30884WAT     H192894   6.664   5.816   2.891
30884WAT     H292895   6.632   5.901   2.756
30885WAT      O92896   0.458   7.296   7.755
30885WAT     H192897   0.543   7.245   7.766
30885WAT     H292898   0.380   7.234   7.762
30886WAT      O92899   0.565   9.576   5.189
30886WAT     H192900   0.492   9.599   5.125
30886WAT     H292901   0.589   9.480   5.179
30887WAT      O92902   6.393   2.543   2.323
30887WAT     H192903   6.302   2.578   2.306
30887WAT     H292904   6.388   2.467   2.388
30888WAT      O92905   0.211   1.182   1.346
30888WAT     H192906   0.271   1.241   1.401
30888WAT     H292907   0.267   1.124   1.287
30889WAT      O92908   8.495   1.160   5.773
30889WAT     H192909   8.412   1.152   5.717
30889WAT     H292910   8.470   1.173   5.869
30890WAT      O92911   4.142   8.799   7.527
30890WAT     H192912   4.166   8.846   7.442
30890WAT     H292913   4.170   8.854   7.605
30891WAT      O92914   3.506   2.524   4.636
30891WAT     H192915   3.547   2.580   4.564
30891WAT     H292916   3.532   2.560   4.726
30892WAT      O92917   6.947   3.354   2.819
30892WAT     H192918   6.887   3.340   2.740
30892WAT     H292919   6.999   3.438   2.807
30893WAT      O92920   6.364   4.958   9.076
30893WAT     H192921   6.426   4.967   9.154
30893WAT     H292922   6.389   5.024   9.005
30894WAT      O92923   7.708   6.204   3.243
30894WAT     H192924   7.626   6.151   3.262
30894WAT     H292925   7.787   6.160   3.285
30895WAT      O92926   3.813   3.870   0.344
30895WAT     H192927   3.876   3.938   0.308
30895WAT     H292928   3.819   3.868   0.444
30896WAT      O92929   1.256   7.377   7.157
30896WAT     H192930   1.257   7.278   7.169
30896WAT     H292931   1.346   7.409   7.129
30897WAT      O92932   7.880   0.020   5.778
30897WAT     H192933   7.938   0.036   5.698
30897WAT     H292934   7.785   0.008   5.749
30898WAT      O92935   1.759   2.228   3.176
30898WAT     H192936   1.769   2.311   3.230
30898WAT     H292937   1.827   2.228   3.102
30899WAT      O92938   0.768   5.843   6.860
30899WAT     H192939   0.816   5.855   6.773
30899WAT     H292940   0.672   5.869   6.848
30900WAT      O92941   2.078   8.082   2.557
30900WAT     H192942   2.044   8.135   2.634
30900WAT     H292943   2.164   8.123   2.524
30901WAT      O92944   6.168   9.829   7.877
30901WAT     H192945   6.109   9.907   7.857
30901WAT     H292946   6.133   9.781   7.957
30902WAT      O92947   5.385   7.436   5.573
30902WAT     H192948   5.440   7.353   5.564
30902WAT     H292949   5.372   7.477   5.482
30903WAT      O92950   9.269   7.828   4.272
30903WAT     H192951   9.289   7.737   4.309
30903WAT     H292952   9.192   7.822   4.209
30904WAT      O92953   1.533   0.096   1.862
30904WAT     H192954   1.617   0.058   1.899
30904WAT     H292955   1.533   0.195   1.874
30905WAT      O92956   0.515   4.547   9.168
30905WAT     H192957   0.456   4.609   9.116
30905WAT     H292958   0.488   4.548   9.265
30906WAT      O92959   1.406   1.656   8.704
30906WAT     H192960   1.385   1.674   8.801
30906WAT     H292961   1.354   1.720   8.647
30907WAT      O92962   8.366   2.879   1.783
30907WAT     H192963   8.400   2.903   1.874
30907WAT     H292964   8.412   2.935   1.714
30908WAT      O92965   8.541   7.051   2.461
30908WAT     H192966   8.457   7.017   2.419
30908WAT     H292967   8.615   6.984   2.448
30909WAT      O92968   9.810   2.602   6.436
30909WAT     H192969   9.740   2.574   6.501
30909WAT     H292970   9.834   2.698   6.451
30910WAT      O92971   8.534   1.115   2.712
30910WAT     H192972   8.583   1.042   2.759
30910WAT     H292973   8.481   1.076   2.636
30911WAT      O92974   4.474   7.365   1.883
30911WAT     H192975   4.484   7.279   1.834
30911WAT     H292976   4.497   7.441   1.823
30912WAT      O92977   4.287   0.539   3.670
30912WAT     H192978   4.294   0.468   3.740
30912WAT     H292979   4.215   0.604   3.694
30913WAT      O92980   3.971   5.915   9.804
30913WAT     H192981   3.882   5.892   9.766
30913WAT     H292982   4.040   5.853   9.766
30914WAT      O92983   8.712   5.369   3.313
30914WAT     H192984   8.633   5.322   3.352
30914WAT     H292985   8.792   5.351   3.369
30915WAT      O92986   1.439   2.639   9.715
30915WAT     H192987   1.526   2.685   9.732
30915WAT     H292988   1.456   2.544   9.690
30916WAT      O92989   1.168   5.928   4.886
30916WAT     H192990   1.068   5.915   4.883
30916WAT     H292991   1.211   5.874   4.814
30917WAT      O92992   5.215   9.327   1.162
30917WAT     H192993   5.161   9.410   1.177
30917WAT     H292994   5.292   9.325   1.225
30918WAT      O92995   5.968   2.178   1.195
30918WAT     H192996   6.027   2.097   1.202
30918WAT     H292997   6.020   2.259   1.222
30919WAT      O92998   1.111   2.629   4.842
30919WAT     H192999   1.198   2.584   4.825
30919WAT     H293000   1.127   2.726   4.861
30920WAT      O93001   5.282   6.017   2.712
30920WAT     H193002   5.194   6.000   2.757
30920WAT     H293003   5.340   5.936   2.722
30921WAT      O93004   8.295   3.653   0.772
30921WAT     H193005   8.347   3.573   0.744
30921WAT     H293006   8.206   3.653   0.726
30922WAT      O93007   4.175   3.756   7.768
30922WAT     H193008   4.266   3.717   7.749
30922WAT     H293009   4.186   3.845   7.813
30923WAT      O93010   4.910   0.424   2.377
30923WAT     H193011   4.981   0.452   2.442
30923WAT     H293012   4.857   0.349   2.415
30924WAT      O93013   8.127   9.108   9.441
30924WAT     H193014   8.177   9.090   9.357
30924WAT     H293015   8.083   9.198   9.437
30925WAT      O93016   3.720   4.644   1.900
30925WAT     H193017   3.745   4.659   1.804
30925WAT     H293018   3.625   4.613   1.905
30926WAT      O93019   2.630   3.998   7.333
30926WAT     H193020   2.534   3.994   7.303
30926WAT     H293021   2.689   4.009   7.254
30927WAT      O93022   6.218   4.414   2.223
30927WAT     H193023   6.151   4.467   2.276
30927WAT     H293024   6.228   4.323   2.263
30928WAT      O93025   9.544   6.736   9.353
30928WAT     H193026   9.560   6.720   9.451
30928WAT     H293027   9.455   6.699   9.327
30929WAT      O93028   2.544   3.772   7.065
30929WAT     H193029   2.558   3.812   6.974
30929WAT     H293030   2.631   3.736   7.099
30930WAT      O93031   1.114   5.284   6.060
30930WAT     H193032   1.201   5.235   6.055
30930WAT     H293033   1.111   5.339   6.144
30931WAT      O93034   5.230   4.203   9.643
30931WAT     H193035   5.166   4.130   9.620
30931WAT     H293036   5.199   4.249   9.726
30932WAT      O93037   3.228   6.743   6.969
30932WAT     H193038   3.138   6.704   6.948
30932WAT     H293039   3.294   6.716   6.899
30933WAT      O93040   1.576   2.232   3.623
30933WAT     H193041   1.650   2.175   3.657
30933WAT     H293042   1.584   2.324   3.663
30934WAT      O93043   2.068   9.570   7.482
30934WAT     H193044   1.971   9.546   7.491
30934WAT     H293045   2.076   9.659   7.438
30935WAT      O93046   4.382   3.785   1.545
30935WAT     H193047   4.479   3.809   1.532
30935WAT     H293048   4.375   3.714   1.615
30936WAT      O93049   6.361   9.220   1.001
30936WAT     H193050   6.319   9.310   1.009
30936WAT     H293051   6.419   9.203   1.080
30937WAT      O93052   5.887   9.513   6.640
30937WAT     H193053   5.920   9.457   6.717
30937WAT     H293054   5.787   9.509   6.637
30938WAT      O93055   5.705   7.211   3.392
30938WAT     H193056   5.623   7.264   3.373
30938WAT     H293057   5.680   7.116   3.413
30939WAT      O93058   6.948   9.605   6.031
30939WAT     H193059   6.892   9.682   6.000
30939WAT     H293060   7.030   9.640   6.076
30940WAT      O93061   2.147   8.347   3.240
30940WAT     H193062   2.096   8.433   3.240
30940WAT     H293063   2.133   8.300   3.327
30941WAT      O93064   0.443   2.948   1.067
30941WAT     H193065   0.512   2.947   0.995
30941WAT     H293066   0.354   2.925   1.029
30942WAT      O93067   4.155   2.289   2.282
30942WAT     H193068   4.160   2.261   2.377
30942WAT     H293069   4.111   2.379   2.275
30943WAT      O93070   0.195   3.285   3.563
30943WAT     H193071   0.116   3.278   3.502
30943WAT     H293072   0.165   3.314   3.654
30944WAT      O93073   5.046   7.916   8.609
30944WAT     H193074   5.090   7.869   8.532
30944WAT     H293075   5.032   7.851   8.684
30945WAT      O93076   6.661   5.917   6.977
30945WAT     H193077   6.657   5.847   6.906
30945WAT     H293078   6.680   6.006   6.934
30946WAT      O93079   9.342   8.167   4.645
30946WAT     H193080   9.356   8.134   4.552
30946WAT     H293081   9.283   8.247   4.643
30947WAT      O93082   7.166   4.915   6.041
30947WAT     H193083   7.251   4.932   5.991
30947WAT     H293084   7.124   4.830   6.008
30948WAT      O93085   5.747   8.795   3.222
30948WAT     H193086   5.757   8.696   3.221
30948WAT     H293087   5.655   8.819   3.188
30949WAT      O93088   7.061   8.976   5.781
30949WAT     H193089   7.149   8.928   5.782
30949WAT     H293090   6.991   8.916   5.742
30950WAT      O93091   1.895   6.951   3.590
30950WAT     H193092   1.845   6.932   3.674
30950WAT     H293093   1.955   7.029   3.604
30951WAT      O93094   7.340   0.986   5.011
30951WAT     H193095   7.319   0.922   4.937
30951WAT     H293096   7.266   1.051   5.022
30952WAT      O93097   6.859   9.548   1.613
30952WAT     H193098   6.930   9.616   1.603
30952WAT     H293099   6.826   9.547   1.708
30953WAT      O93100   8.711   8.460   1.347
30953WAT     H193101   8.759   8.548   1.348
30953WAT     H293102   8.616   8.473   1.374
30954WAT      O93103   0.894   6.878   5.099
30954WAT     H193104   0.915   6.793   5.147
30954WAT     H293105   0.967   6.945   5.115
30955WAT      O93106   3.460   7.824   0.601
30955WAT     H193107   3.503   7.885   0.667
30955WAT     H293108   3.414   7.750   0.650
30956WAT      O93109   8.386   9.762   7.234
30956WAT     H193110   8.323   9.767   7.157
30956WAT     H293111   8.480   9.755   7.200
30957WAT      O93112   6.366   3.244   4.944
30957WAT     H193113   6.447   3.232   4.887
30957WAT     H293114   6.291   3.188   4.908
30958WAT      O93115   1.048   4.631   3.695
30958WAT     H193116   0.971   4.683   3.659
30958WAT     H293117   1.015   4.555   3.751
30959WAT      O93118   9.783   3.176   5.727
30959WAT     H193119   9.795   3.171   5.826
30959WAT     H293120   9.740   3.263   5.702
30960WAT      O93121   2.705   5.054   3.234
30960WAT     H193122   2.650   5.094   3.161
30960WAT     H293123   2.802   5.067   3.213
30961WAT      O93124   6.346   1.268   5.110
30961WAT     H193125   6.440   1.233   5.103
30961WAT     H293126   6.288   1.199   5.151
30962WAT      O93127   0.914   2.098   1.883
30962WAT     H193128   0.948   2.192   1.882
30962WAT     H293129   0.850   2.087   1.960
30963WAT      O93130   4.271   9.345   6.117
30963WAT     H193131   4.362   9.319   6.085
30963WAT     H293132   4.276   9.371   6.213
30964WAT      O93133   2.248   6.529   1.821
30964WAT     H193134   2.213   6.621   1.808
30964WAT     H293135   2.303   6.525   1.904
30965WAT      O93136   7.551   2.646   4.004
30965WAT     H193137   7.540   2.552   3.971
30965WAT     H293138   7.646   2.676   3.991
30966WAT      O93139   0.355   4.537   1.485
30966WAT     H193140   0.413   4.474   1.433
30966WAT     H293141   0.286   4.485   1.535
30967WAT      O93142   6.119   4.415   3.735
30967WAT     H193143   6.115   4.456   3.644
30967WAT     H293144   6.207   4.435   3.778
30968WAT      O93145   7.361   0.582   4.928
30968WAT     H193146   7.376   0.519   4.852
30968WAT     H293147   7.337   0.672   4.892
30969WAT      O93148   4.075   3.806   5.662
30969WAT     H193149   4.097   3.807   5.759
30969WAT     H293150   4.038   3.717   5.637
30970WAT      O93151   8.682   1.994   4.971
30970WAT     H193152   8.702   2.082   5.014
30970WAT     H293153   8.738   1.923   5.014
30971WAT      O93154   2.037   5.347   3.824
30971WAT     H193155   1.961   5.396   3.782
30971WAT     H293156   2.110   5.412   3.847
30972WAT      O93157   1.688   8.706   1.335
30972WAT     H193158   1.662   8.762   1.256
30972WAT     H293159   1.675   8.759   1.419
30973WAT      O93160   9.786   5.898   0.325
30973WAT     H193161   9.872   5.907   0.276
30973WAT     H293162   9.738   5.816   0.293
30974WAT      O93163   8.657   7.955   0.446
30974WAT     H193164   8.651   7.964   0.545
30974WAT     H293165   8.723   7.884   0.422
30975WAT      O93166   7.160   3.777   0.119
30975WAT     H193167   7.104   3.778   0.202
30975WAT     H293168   7.136   3.696   0.065
30976WAT      O93169   4.559   1.185   2.725
30976WAT     H193170   4.544   1.276   2.764
30976WAT     H293171   4.569   1.193   2.626
30977WAT      O93172   6.541   0.677   0.029
30977WAT     H193173   6.610   0.639  -0.033
30977WAT     H293174   6.557   0.642   0.121
30978WAT      O93175   8.944   4.773   4.600
30978WAT     H193176   9.033   4.739   4.629
30978WAT     H293177   8.941   4.778   4.500
30979WAT      O93178   1.463   0.650   0.021
30979WAT     H193179   1.388   0.716   0.029
30979WAT     H293180   1.450   0.595  -0.062
30980WAT      O93181   3.232   6.966   3.548
30980WAT     H193182   3.228   6.955   3.449
30980WAT     H293183   3.146   7.004   3.581
30981WAT      O93184   2.698   6.318   0.502
30981WAT     H193185   2.735   6.409   0.485
30981WAT     H293186   2.746   6.252   0.444
30982WAT      O93187   6.456   7.392   6.849
30982WAT     H193188   6.486   7.478   6.807
30982WAT     H293189   6.377   7.410   6.909
30983WAT      O93190   2.261   1.221   3.409
30983WAT     H193191   2.216   1.236   3.497
30983WAT     H293192   2.319   1.140   3.416
30984WAT      O93193   1.096   5.342   4.128
30984WAT     H193194   1.073   5.420   4.069
30984WAT     H293195   1.042   5.347   4.212
30985WAT      O93196   3.395   2.516   5.759
30985WAT     H193197   3.435   2.517   5.851
30985WAT     H293198   3.411   2.604   5.715
30986WAT      O93199   4.351   7.749   6.813
30986WAT     H193200   4.408   7.827   6.787
30986WAT     H293201   4.371   7.672   6.753
30987WAT      O93202   3.519   8.727   0.815
30987WAT     H193203   3.491   8.768   0.728
30987WAT     H293204   3.586   8.786   0.860
30988WAT      O93205   7.846   2.625   5.591
30988WAT     H193206   7.835   2.545   5.533
30988WAT     H293207   7.928   2.615   5.647
30989WAT      O93208   2.584   5.084   5.841
30989WAT     H193209   2.638   5.153   5.793
30989WAT     H293210   2.488   5.091   5.812
30990WAT      O93211   7.239   5.317   1.180
30990WAT     H193212   7.196   5.265   1.254
30990WAT     H293213   7.339   5.308   1.188
30991WAT      O93214   4.258   7.457   3.009
30991WAT     H193215   4.328   7.525   2.989
30991WAT     H293216   4.227   7.416   2.923
30992WAT      O93217   5.715   1.350   8.512
30992WAT     H193218   5.789   1.336   8.579
30992WAT     H293219   5.627   1.328   8.555
30993WAT      O93220   0.893   6.396   0.311
30993WAT     H193221   0.941   6.409   0.398
30993WAT     H293222   0.923   6.465   0.245
30994WAT      O93223   9.066   5.671   2.381
30994WAT     H193224   8.973   5.691   2.351
30994WAT     H293225   9.128   5.742   2.347
30995WAT      O93226   1.453   8.852   8.319
30995WAT     H193227   1.463   8.768   8.264
30995WAT     H293228   1.415   8.828   8.409
30996WAT      O93229   7.485   3.807   5.654
30996WAT     H193230   7.386   3.819   5.651
30996WAT     H293231   7.524   3.821   5.563
30997WAT      O93232   2.732   8.721   2.122
30997WAT     H193233   2.711   8.691   2.029
30997WAT     H293234   2.810   8.670   2.156
30998WAT      O93235   0.495   8.824   4.954
30998WAT     H193236   0.461   8.896   5.015
30998WAT     H293237   0.437   8.743   4.962
30999WAT      O93238   6.511   2.036   6.593
30999WAT     H193239   6.560   2.006   6.511
30999WAT     H293240   6.521   2.135   6.604
31000WAT      O93241   7.613   5.210   2.261
31000WAT     H193242   7.695   5.255   2.227
31000WAT     H293243   7.553   5.186   2.184
31001WAT      O93244   5.034   3.829   9.719
31001WAT     H193245   4.964   3.832   9.790
31001WAT     H293246   5.077   3.738   9.719
31002WAT      O93247   6.941   1.500   1.537
31002WAT     H193248   6.881   1.579   1.534
31002WAT     H293249   6.928   1.452   1.624
31003WAT      O93250   3.582   5.965   5.503
31003WAT     H193251   3.582   6.048   5.559
31003WAT     H293252   3.509   5.904   5.533
31004WAT      O93253   1.833   1.401   1.845
31004WAT     H193254   1.782   1.461   1.784
31004WAT     H293255   1.844   1.311   1.803
31005WAT      O93256   4.259   2.148   6.180
31005WAT     H193257   4.278   2.243   6.206
31005WAT     H293258   4.290   2.087   6.252
31006WAT      O93259   6.639   3.768   3.192
31006WAT     H193260   6.544   3.793   3.174
31006WAT     H293261   6.642   3.673   3.225
31007WAT      O93262   8.899   1.280   6.242
31007WAT     H193263   8.932   1.194   6.204
31007WAT     H293264   8.817   1.309   6.194
31008WAT      O93265   4.008   6.344   1.622
31008WAT     H193266   3.961   6.290   1.552
31008WAT     H293267   4.097   6.302   1.641
31009WAT      O93268   6.359   1.422   1.116
31009WAT     H193269   6.280   1.422   1.177
31009WAT     H293270   6.441   1.399   1.168
31010WAT      O93271   7.314   3.311   9.140
31010WAT     H193272   7.278   3.391   9.093
31010WAT     H293273   7.291   3.317   9.238
31011WAT      O93274   2.030   1.740   1.736
31011WAT     H193275   1.955   1.803   1.752
31011WAT     H293276   2.082   1.727   1.821
31012WAT      O93277   9.213   3.090   6.472
31012WAT     H193278   9.145   3.019   6.455
31012WAT     H293279   9.230   3.097   6.570
31013WAT      O93280   4.247   7.987   3.395
31013WAT     H193281   4.276   8.071   3.440
31013WAT     H293282   4.327   7.930   3.375
31014WAT      O93283   5.450   6.328   9.854
31014WAT     H193284   5.518   6.333   9.927
31014WAT     H293285   5.361   6.354   9.890
31015WAT      O93286   1.266   4.029   4.250
31015WAT     H193287   1.214   4.085   4.315
31015WAT     H293288   1.227   3.937   4.248
31016WAT      O93289   0.138   1.766   5.953
31016WAT     H193290   0.193   1.840   5.913
31016WAT     H293291   0.141   1.772   6.052
31017WAT      O93292   1.445   7.657   2.632
31017WAT     H193293   1.383   7.642   2.555
31017WAT     H293294   1.392   7.662   2.717
31018WAT      O93295   2.036   8.643   4.897
31018WAT     H193296   2.108   8.588   4.856
31018WAT     H293297   1.951   8.632   4.845
31019WAT      O93298   5.613   8.868   7.641
31019WAT     H193299   5.522   8.847   7.605
31019WAT     H293300   5.617   8.841   7.738
31020WAT      O93301   3.428   2.063   0.296
31020WAT     H193302   3.527   2.053   0.290
31020WAT     H293303   3.384   1.975   0.279
31021WAT      O93304   7.299   1.315   9.648
31021WAT     H193305   7.279   1.287   9.554
31021WAT     H293306   7.241   1.265   9.711
31022WAT      O93307   6.258   9.737   6.201
31022WAT     H193308   6.245   9.672   6.277
31022WAT     H293309   6.194   9.813   6.211
31023WAT      O93310   3.998   3.273   5.706
31023WAT     H193311   3.995   3.291   5.608
31023WAT     H293312   3.967   3.180   5.724
31024WAT      O93313   6.732   1.301   2.314
31024WAT     H193314   6.724   1.257   2.224
31024WAT     H293315   6.641   1.316   2.352
31025WAT      O93316   1.235   3.741   4.202
31025WAT     H193317   1.135   3.746   4.197
31025WAT     H293318   1.262   3.701   4.290
31026WAT      O93319   5.964   7.068   4.208
31026WAT     H193320   6.057   7.094   4.234
31026WAT     H293321   5.961   7.049   4.110
31027WAT      O93322   5.192   8.904   9.012
31027WAT     H193323   5.190   8.898   8.912
31027WAT     H293324   5.192   8.813   9.051
31028WAT      O93325   7.523   3.813   7.017
31028WAT     H193326   7.509   3.778   6.924
31028WAT     H293327   7.448   3.876   7.040
31029WAT      O93328   3.255   6.072   2.016
31029WAT     H193329   3.316   5.993   2.016
31029WAT     H293330   3.234   6.099   2.110
31030WAT      O93331   3.422   4.020   5.030
31030WAT     H193332   3.471   4.098   5.068
31030WAT     H293333   3.337   4.051   4.987
31031WAT      O93334   3.717   6.728   8.057
31031WAT     H193335   3.709   6.821   8.091
31031WAT     H293336   3.659   6.717   7.976
31032WAT      O93337   7.603   6.996   5.138
31032WAT     H193338   7.556   6.910   5.159
31032WAT     H293339   7.536   7.067   5.118
31033WAT      O93340   7.175   3.233   2.948
31033WAT     H193341   7.137   3.179   3.023
31033WAT     H293342   7.112   3.231   2.870
31034WAT      O93343   1.077   7.083   5.062
31034WAT     H193344   1.163   7.133   5.073
31034WAT     H293345   1.008   7.144   5.021
31035WAT      O93346   4.505   4.024   5.412
31035WAT     H193347   4.476   4.115   5.443
31035WAT     H293348   4.463   4.005   5.323
31036WAT      O93349   2.490   7.415   7.299
31036WAT     H193350   2.505   7.496   7.356
31036WAT     H293351   2.563   7.409   7.230
31037WAT      O93352   5.586   3.132   0.319
31037WAT     H193353   5.581   3.032   0.320
31037WAT     H293354   5.515   3.168   0.259
31038WAT      O93355   2.710   0.641   3.257
31038WAT     H193356   2.635   0.575   3.263
31038WAT     H293357   2.693   0.716   3.322
31039WAT      O93358   8.962   5.876   9.815
31039WAT     H193359   9.051   5.832   9.800
31039WAT     H293360   8.912   5.879   9.729
31040WAT      O93361   2.843   3.196   1.046
31040WAT     H193362   2.865   3.251   1.126
31040WAT     H293363   2.925   3.187   0.989
31041WAT      O93364   2.688   7.089   4.768
31041WAT     H193365   2.609   7.119   4.821
31041WAT     H293366   2.662   7.013   4.709
31042WAT      O93367   9.072   1.246   3.310
31042WAT     H193368   9.141   1.294   3.257
31042WAT     H293369   9.004   1.206   3.249
31043WAT      O93370   4.670   9.025   4.531
31043WAT     H193371   4.769   9.036   4.527
31043WAT     H293372   4.633   9.014   4.439
31044WAT      O93373   1.391   5.376   3.915
31044WAT     H193374   1.461   5.382   3.986
31044WAT     H293375   1.358   5.282   3.908
31045WAT      O93376   8.401   7.861   3.754
31045WAT     H193377   8.465   7.930   3.719
31045WAT     H293378   8.404   7.780   3.696
31046WAT      O93379   2.402   3.538   5.371
31046WAT     H193380   2.320   3.518   5.317
31046WAT     H293381   2.376   3.568   5.462
31047WAT      O93382   6.831   9.625   2.675
31047WAT     H193383   6.875   9.712   2.697
31047WAT     H293384   6.739   9.642   2.639
31048WAT      O93385   3.573   7.601   1.173
31048WAT     H193386   3.649   7.652   1.212
31048WAT     H293387   3.597   7.504   1.170
31049WAT      O93388   1.489   6.050   1.572
31049WAT     H193389   1.538   5.963   1.581
31049WAT     H293390   1.544   6.114   1.517
31050WAT      O93391   8.694   0.254   6.768
31050WAT     H193392   8.728   0.278   6.858
31050WAT     H293393   8.731   0.165   6.740
31051WAT      O93394   5.723   1.184   1.450
31051WAT     H193395   5.724   1.184   1.550
31051WAT     H293396   5.691   1.095   1.417
31052WAT      O93397   3.276   7.990   9.833
31052WAT     H193398   3.344   8.063   9.842
31052WAT     H293399   3.187   8.023   9.862
31053WAT      O93400   2.648   2.328   2.981
31053WAT     H193401   2.717   2.371   2.923
31053WAT     H293402   2.665   2.353   3.076
31054WAT      O93403   6.408   8.162   3.113
31054WAT     H193404   6.315   8.171   3.150
31054WAT     H293405   6.463   8.106   3.175
31055WAT      O93406   5.667   7.104   9.662
31055WAT     H193407   5.731   7.035   9.627
31055WAT     H293408   5.709   7.152   9.739
31056WAT      O93409   5.930   5.804   4.817
31056WAT     H193410   6.027   5.794   4.838
31056WAT     H293411   5.877   5.795   4.901
31057WAT      O93412   3.652   9.397   9.242
31057WAT     H193413   3.671   9.474   9.181
31057WAT     H293414   3.605   9.325   9.191
31058WAT      O93415   4.799   1.780   3.240
31058WAT     H193416   4.778   1.797   3.144
31058WAT     H293417   4.768   1.688   3.265
31059WAT      O93418   2.824   6.863   6.709
31059WAT     H193419   2.832   6.764   6.725
31059WAT     H293420   2.867   6.886   6.622
31060WAT      O93421   2.454   4.321   1.090
31060WAT     H193422   2.461   4.395   1.022
31060WAT     H293423   2.428   4.360   1.178
31061WAT      O93424   3.887   5.118   3.159
31061WAT     H193425   3.800   5.106   3.111
31061WAT     H293426   3.963   5.096   3.098
31062WAT      O93427   5.182   7.432   0.205
31062WAT     H193428   5.121   7.471   0.275
31062WAT     H293429   5.246   7.502   0.174
31063WAT      O93430   8.487   8.459   6.192
31063WAT     H193431   8.470   8.367   6.228
31063WAT     H293432   8.505   8.521   6.268
31064WAT      O93433   3.116   7.227   2.301
31064WAT     H193434   3.082   7.169   2.376
31064WAT     H293435   3.210   7.201   2.279
31065WAT      O93436   5.309   5.737   8.857
31065WAT     H193437   5.239   5.764   8.791
31065WAT     H293438   5.338   5.643   8.839
31066WAT      O93439   5.009   4.552   5.275
31066WAT     H193440   5.035   4.496   5.196
31066WAT     H293441   4.910   4.563   5.277
31067WAT      O93442   9.804   0.799   2.654
31067WAT     H193443   9.787   0.761   2.744
31067WAT     H293444   9.798   0.726   2.585
31068WAT      O93445   6.050   5.363   0.197
31068WAT     H193446   6.077   5.396   0.106
31068WAT     H293447   6.067   5.265   0.203
31069WAT      O93448   4.279   5.059   8.580
31069WAT     H193449   4.322   5.134   8.632
31069WAT     H293450   4.223   5.098   8.507
31070WAT      O93451   0.213   6.340   6.559
31070WAT     H193452   0.292   6.353   6.499
31070WAT     H293453   0.238   6.281   6.636
31071WAT      O93454   6.535   3.384   3.979
31071WAT     H193455   6.560   3.323   3.904
31071WAT     H293456   6.437   3.401   3.978
31072WAT      O93457   5.046   2.559   3.035
31072WAT     H193458   5.027   2.478   2.979
31072WAT     H293459   4.967   2.620   3.034
31073WAT      O93460   5.969   1.040   4.078
31073WAT     H193461   5.885   1.077   4.038
31073WAT     H293462   6.039   1.112   4.080
31074WAT      O93463   6.011   9.423   6.395
31074WAT     H193464   5.941   9.371   6.346
31074WAT     H293465   5.972   9.462   6.478
31075WAT      O93466   7.304   6.245   2.231
31075WAT     H193467   7.394   6.263   2.270
31075WAT     H293468   7.311   6.232   2.133
31076WAT      O93469   2.109   1.967   3.039
31076WAT     H193470   2.150   1.886   2.996
31076WAT     H293471   2.053   1.939   3.117
31077WAT      O93472   0.745   8.813   6.130
31077WAT     H193473   0.740   8.798   6.228
31077WAT     H293474   0.669   8.766   6.085
31078WAT      O93475   0.826   9.273   0.651
31078WAT     H193476   0.874   9.357   0.625
31078WAT     H293477   0.867   9.236   0.735
31079WAT      O93478   3.831   2.693   1.334
31079WAT     H193479   3.804   2.607   1.377
31079WAT     H293480   3.863   2.675   1.241
31080WAT      O93481   8.485   8.027   0.083
31080WAT     H193482   8.441   7.973   0.155
31080WAT     H293483   8.579   8.048   0.109
31081WAT      O93484   6.047   4.573   2.387
31081WAT     H193485   6.012   4.664   2.364
31081WAT     H293486   6.092   4.576   2.476
31082WAT      O93487   6.844   7.789   1.932
31082WAT     H193488   6.853   7.821   2.026
31082WAT     H293489   6.875   7.860   1.869
31083WAT      O93490   1.257   3.996   8.128
31083WAT     H193491   1.224   4.076   8.078
31083WAT     H293492   1.344   3.965   8.088
31084WAT      O93493   7.380   4.230   2.025
31084WAT     H193494   7.374   4.329   2.040
31084WAT     H293495   7.472   4.206   1.994
31085WAT      O93496   9.146   2.494   3.941
31085WAT     H193497   9.182   2.468   3.852
31085WAT     H293498   9.049   2.470   3.946
31086WAT      O93499   2.205   3.719   2.350
31086WAT     H193500   2.153   3.784   2.406
31086WAT     H293501   2.300   3.749   2.345
31087WAT      O93502   0.698   6.445   1.297
31087WAT     H193503   0.789   6.485   1.304
31087WAT     H293504   0.688   6.372   1.364
31088WAT      O93505   5.528   1.713   8.650
31088WAT     H193506   5.591   1.783   8.616
31088WAT     H293507   5.450   1.757   8.695
31089WAT      O93508   3.868   7.318   4.465
31089WAT     H193509   3.780   7.292   4.424
31089WAT     H293510   3.862   7.411   4.500
31090WAT      O93511   6.779   6.536   4.775
31090WAT     H193512   6.771   6.615   4.837
31090WAT     H293513   6.875   6.508   4.769
31091WAT      O93514   5.298   8.846   8.034
31091WAT     H193515   5.320   8.891   7.947
31091WAT     H293516   5.227   8.897   8.081
31092WAT      O93517   6.967   8.187   7.515
31092WAT     H193518   7.056   8.151   7.488
31092WAT     H293519   6.960   8.190   7.614
31093WAT      O93520   9.444   9.517   6.583
31093WAT     H193521   9.479   9.611   6.581
31093WAT     H293522   9.403   9.499   6.672
31094WAT      O93523   3.873   9.707   7.733
31094WAT     H193524   3.774   9.718   7.743
31094WAT     H293525   3.908   9.776   7.669
31095WAT      O93526   2.590   4.981   6.668
31095WAT     H193527   2.551   4.889   6.661
31095WAT     H293528   2.527   5.048   6.630
31096WAT      O93529   2.054   3.390   1.848
31096WAT     H193530   2.061   3.324   1.773
31096WAT     H293531   2.065   3.482   1.812
31097WAT      O93532   3.209   9.786   6.098
31097WAT     H193533   3.271   9.763   6.173
31097WAT     H293534   3.235   9.734   6.016
31098WAT      O93535   3.169   7.598   8.758
31098WAT     H193536   3.252   7.577   8.706
31098WAT     H293537   3.180   7.564   8.852
31099WAT      O93538   4.636   9.482   0.700
31099WAT     H193539   4.547   9.510   0.736
31099WAT     H293540   4.660   9.539   0.621
31100WAT      O93541   8.909   4.506   6.004
31100WAT     H193542   8.816   4.486   6.035
31100WAT     H293543   8.975   4.472   6.071
31101WAT      O93544   1.297   8.579   5.945
31101WAT     H193545   1.387   8.590   5.903
31101WAT     H293546   1.301   8.608   6.041
31102WAT      O93547   9.705   3.665   7.144
31102WAT     H193548   9.676   3.748   7.190
31102WAT     H293549   9.740   3.688   7.053
31103WAT      O93550   1.982   1.321   0.825
31103WAT     H193551   1.938   1.360   0.906
31103WAT     H293552   2.036   1.391   0.779
31104WAT      O93553   0.651   5.745   3.172
31104WAT     H193554   0.747   5.744   3.141
31104WAT     H293555   0.596   5.688   3.111
31105WAT      O93556   3.595   9.386   5.925
31105WAT     H193557   3.572   9.359   5.832
31105WAT     H293558   3.532   9.343   5.989
31106WAT      O93559   4.233   5.945   4.718
31106WAT     H193560   4.317   5.994   4.693
31106WAT     H293561   4.242   5.908   4.811
31107WAT      O93562   8.876   8.507   2.977
31107WAT     H193563   8.894   8.416   3.014
31107WAT     H293564   8.854   8.500   2.880
31108WAT      O93565   4.040   4.651   1.660
31108WAT     H193566   4.054   4.741   1.701
31108WAT     H293567   4.114   4.590   1.688
31109WAT      O93568   5.011   4.564   1.794
31109WAT     H193569   4.922   4.575   1.838
31109WAT     H293570   5.074   4.517   1.856
31110WAT      O93571   7.537   0.930   9.481
31110WAT     H193572   7.523   0.834   9.504
31110WAT     H293573   7.597   0.973   9.549
31111WAT      O93574   2.961   7.643   9.833
31111WAT     H193575   2.969   7.547   9.807
31111WAT     H293576   2.979   7.700   9.753
31112WAT      O93577   5.051   1.310   8.606
31112WAT     H193578   5.109   1.237   8.642
31112WAT     H293579   5.100   1.362   8.537
31113WAT      O93580   6.000   2.516   6.730
31113WAT     H193581   5.967   2.421   6.725
31113WAT     H293582   6.084   2.519   6.785
31114WAT      O93583   5.490   9.805   6.328
31114WAT     H193584   5.500   9.853   6.415
31114WAT     H293585   5.532   9.715   6.335
31115WAT      O93586   8.922   1.234   2.485
31115WAT     H193587   8.862   1.210   2.409
31115WAT     H293588   8.959   1.325   2.471
31116WAT      O93589   2.276   0.010   5.046
31116WAT     H193590   2.218  -0.068   5.069
31116WAT     H293591   2.259   0.037   4.951
31117WAT      O93592   4.827   7.957   5.401
31117WAT     H193593   4.846   7.859   5.404
31117WAT     H293594   4.827   7.994   5.494
31118WAT      O93595   5.703   3.950   6.775
31118WAT     H193596   5.630   3.940   6.843
31118WAT     H293597   5.670   3.920   6.686
31119WAT      O93598   6.078   1.000   5.794
31119WAT     H193599   6.165   0.988   5.842
31119WAT     H293600   6.005   0.958   5.847
31120WAT      O93601   2.416   0.299   4.327
31120WAT     H193602   2.468   0.224   4.369
31120WAT     H293603   2.480   0.367   4.291
31121WAT      O93604   9.518   0.364   5.324
31121WAT     H193605   9.541   0.270   5.295
31121WAT     H293606   9.596   0.403   5.373
31122WAT      O93607   0.308   8.434   2.868
31122WAT     H193608   0.340   8.420   2.961
31122WAT     H293609   0.381   8.408   2.804
31123WAT      O93610   2.966   4.641   4.114
31123WAT     H193611   3.048   4.655   4.059
31123WAT     H293612   2.990   4.589   4.196
31124WAT      O93613   7.775   5.102   4.414
31124WAT     H193614   7.679   5.099   4.386
31124WAT     H293615   7.783   5.152   4.500
31125WAT      O93616   1.558   8.631   8.775
31125WAT     H193617   1.532   8.536   8.754
31125WAT     H293618   1.511   8.660   8.858
31126WAT      O93619   4.161   6.215   4.729
31126WAT     H193620   4.107   6.131   4.741
31126WAT     H293621   4.228   6.201   4.657
31127WAT      O93622   5.846   5.881   0.267
31127WAT     H193623   5.793   5.864   0.350
31127WAT     H293624   5.891   5.970   0.274
31128WAT      O93625   8.441   1.820   1.806
31128WAT     H193626   8.525   1.858   1.768
31128WAT     H293627   8.399   1.888   1.866
31129WAT      O93628   7.306   7.349   3.782
31129WAT     H193629   7.357   7.340   3.868
31129WAT     H293630   7.338   7.430   3.733
31130WAT      O93631   7.149   2.830   2.729
31130WAT     H193632   7.125   2.733   2.727
31130WAT     H293633   7.193   2.852   2.816
31131WAT      O93634   3.500   1.023   4.301
31131WAT     H193635   3.402   1.010   4.288
31131WAT     H293636   3.535   0.953   4.364
31132WAT      O93637   4.307   1.496   9.275
31132WAT     H193638   4.221   1.476   9.321
31132WAT     H293639   4.321   1.432   9.200
31133WAT      O93640   8.361   3.602   1.593
31133WAT     H193641   8.380   3.645   1.681
31133WAT     H293642   8.271   3.630   1.561
31134WAT      O93643   7.581   7.695   2.628
31134WAT     H193644   7.575   7.658   2.535
31134WAT     H293645   7.612   7.623   2.691
31135WAT      O93646   5.783   1.284   5.051
31135WAT     H193647   5.814   1.363   4.996
31135WAT     H293648   5.684   1.287   5.059
31136WAT      O93649   2.967   0.033   1.010
31136WAT     H193650   3.038   0.100   1.030
31136WAT     H293651   3.009  -0.056   0.990
31137WAT      O93652   9.591   1.031   3.818
31137WAT     H193653   9.535   1.093   3.874
31137WAT     H293654   9.684   1.068   3.812
31138WAT      O93655   1.530   4.985   1.477
31138WAT     H193656   1.578   4.941   1.401
31138WAT     H293657   1.435   5.002   1.450
31139WAT      O93658   2.567   7.770   2.879
31139WAT     H193659   2.486   7.827   2.893
31139WAT     H293660   2.544   7.674   2.896
31140WAT      O93661   6.417   2.854   1.839
31140WAT     H193662   6.419   2.755   1.827
31140WAT     H293663   6.506   2.885   1.873
31141WAT      O93664   8.537   6.652   4.983
31141WAT     H193665   8.450   6.702   4.975
31141WAT     H293666   8.538   6.603   5.070
31142WAT      O93667   5.152   0.050   5.104
31142WAT     H193668   5.062   0.046   5.148
31142WAT     H293669   5.147   0.111   5.025
31143WAT      O93670   5.609   0.789   6.428
31143WAT     H193671   5.629   0.692   6.414
31143WAT     H293672   5.607   0.809   6.526
31144WAT      O93673   4.275   1.326   9.037
31144WAT     H193674   4.264   1.245   8.980
31144WAT     H293675   4.370   1.357   9.034
31145WAT      O93676   6.199   1.371   9.332
31145WAT     H193677   6.154   1.304   9.273
31145WAT     H293678   6.225   1.451   9.278
31146WAT      O93679   0.662   0.929   7.246
31146WAT     H193680   0.593   0.987   7.202
31146WAT     H293681   0.665   0.951   7.344
31147WAT      O93682   0.173   8.228   2.614
31147WAT     H193683   0.194   8.281   2.532
31147WAT     H293684   0.114   8.282   2.674
31148WAT      O93685   5.971   4.046   0.408
31148WAT     H193686   5.996   3.962   0.455
31148WAT     H293687   6.052   4.086   0.364
31149WAT      O93688   5.662   5.479   0.999
31149WAT     H193689   5.623   5.548   1.060
31149WAT     H293690   5.740   5.518   0.950
31150WAT      O93691   2.252   5.213   9.329
31150WAT     H193692   2.207   5.270   9.399
31150WAT     H293693   2.351   5.217   9.343
31151WAT      O93694   5.951   3.415   6.489
31151WAT     H193695   5.931   3.434   6.393
31151WAT     H293696   5.865   3.406   6.539
31152WAT      O93697   7.840   3.174   6.169
31152WAT     H193698   7.742   3.153   6.177
31152WAT     H293699   7.878   3.122   6.093
31153WAT      O93700   2.968   0.086   8.161
31153WAT     H193701   2.937   0.095   8.255
31153WAT     H293702   2.924   0.156   8.104
31154WAT      O93703   4.491   1.044   0.943
31154WAT     H193704   4.583   1.020   0.975
31154WAT     H293705   4.494   1.132   0.896
31155WAT      O93706   0.892   2.703   5.008
31155WAT     H193707   0.971   2.688   4.949
31155WAT     H293708   0.895   2.796   5.045
31156WAT      O93709   7.972   9.052   7.429
31156WAT     H193710   8.000   9.072   7.523
31156WAT     H293711   7.909   9.122   7.397
31157WAT      O93712   9.361   8.707   9.210
31157WAT     H193713   9.441   8.656   9.177
31157WAT     H293714   9.281   8.683   9.155
31158WAT      O93715   3.637   4.795   7.650
31158WAT     H193716   3.564   4.744   7.695
31158WAT     H293717   3.627   4.893   7.671
31159WAT      O93718   7.084   7.596   2.549
31159WAT     H193719   7.173   7.599   2.594
31159WAT     H293720   7.037   7.511   2.574
31160WAT      O93721   9.565   1.460   0.350
31160WAT     H193722   9.495   1.493   0.413
31160WAT     H293723   9.654   1.463   0.395
31161WAT      O93724   6.727   5.913   4.175
31161WAT     H193725   6.742   6.010   4.160
31161WAT     H293726   6.805   5.875   4.224
31162WAT      O93727   0.257   5.205   9.069
31162WAT     H193728   0.245   5.293   9.116
31162WAT     H293729   0.192   5.139   9.104
31163WAT      O93730   0.405   7.942   4.188
31163WAT     H193731   0.477   8.001   4.225
31163WAT     H293732   0.375   7.977   4.099
31164WAT      O93733   6.366   9.693   6.626
31164WAT     H193734   6.451   9.645   6.602
31164WAT     H293735   6.353   9.690   6.725
31165WAT      O93736   5.784   8.689   7.389
31165WAT     H193737   5.833   8.647   7.313
31165WAT     H293738   5.687   8.663   7.384
31166WAT      O93739   8.213   7.010   1.578
31166WAT     H193740   8.128   6.987   1.531
31166WAT     H293741   8.201   7.095   1.629
31167WAT      O93742   2.580   7.967   2.313
31167WAT     H193743   2.529   8.006   2.236
31167WAT     H293744   2.532   7.986   2.399
31168WAT      O93745   8.271   0.478   4.110
31168WAT     H193746   8.278   0.466   4.011
31168WAT     H293747   8.237   0.570   4.130
31169WAT      O93748   9.378   2.114   5.485
31169WAT     H193749   9.472   2.119   5.452
31169WAT     H293750   9.370   2.168   5.570
31170WAT      O93751   3.442   9.498   4.184
31170WAT     H193752   3.505   9.495   4.106
31170WAT     H293753   3.442   9.410   4.230
31171WAT      O93754   6.478   2.597   1.835
31171WAT     H193755   6.492   2.570   1.930
31171WAT     H293756   6.392   2.558   1.801
31172WAT      O93757   2.264   6.882   7.680
31172WAT     H193758   2.244   6.974   7.648
31172WAT     H293759   2.221   6.868   7.769
31173WAT      O93760   5.989   0.769   9.120
31173WAT     H193761   6.045   0.838   9.074
31173WAT     H293762   5.977   0.690   9.059
31174WAT      O93763   5.661   8.129   7.944
31174WAT     H193764   5.578   8.163   7.901
31174WAT     H293765   5.651   8.132   8.044
31175WAT      O93766   5.025   6.766   9.282
31175WAT     H193767   5.001   6.847   9.227
31175WAT     H293768   5.124   6.758   9.288
31176WAT      O93769   3.555   9.125   0.681
31176WAT     H193770   3.507   9.204   0.717
31176WAT     H293771   3.622   9.154   0.612
31177WAT      O93772   3.297   4.308   4.938
31177WAT     H193773   3.227   4.345   4.999
31177WAT     H293774   3.257   4.235   4.882
31178WAT      O93775   5.286   6.014   7.270
31178WAT     H193776   5.336   6.050   7.348
31178WAT     H293777   5.203   6.067   7.256
31179WAT      O93778   6.768   0.790   1.815
31179WAT     H193779   6.795   0.771   1.909
31179WAT     H293780   6.831   0.855   1.774
31180WAT      O93781   6.968   9.114   7.786
31180WAT     H193782   6.909   9.105   7.705
31180WAT     H293783   6.919   9.079   7.866
31181WAT      O93784   1.013   5.948   7.371
31181WAT     H193785   0.922   5.939   7.330
31181WAT     H293786   1.006   5.939   7.470
31182WAT      O93787   4.854   9.121   1.532
31182WAT     H193788   4.925   9.088   1.594
31182WAT     H293789   4.768   9.131   1.582
31183WAT      O93790   0.648   4.359   9.437
31183WAT     H193791   0.674   4.363   9.533
31183WAT     H293792   0.651   4.451   9.397
31184WAT      O93793   1.760   5.365   3.117
31184WAT     H193794   1.855   5.394   3.117
31184WAT     H293795   1.755   5.266   3.110
31185WAT      O93796   4.989   5.750   1.455
31185WAT     H193797   4.955   5.723   1.365
31185WAT     H293798   5.049   5.829   1.445
31186WAT      O93799   4.975   4.606   2.244
31186WAT     H193800   4.885   4.650   2.239
31186WAT     H293801   5.045   4.676   2.256
31187WAT      O93802   7.530   0.696   5.810
31187WAT     H193803   7.540   0.656   5.902
31187WAT     H293804   7.440   0.672   5.773
31188WAT      O93805   0.324   8.482   6.296
31188WAT     H193806   0.412   8.462   6.338
31188WAT     H293807   0.259   8.511   6.365
31189WAT      O93808   2.888   2.136   9.065
31189WAT     H193809   2.839   2.057   9.103
31189WAT     H293810   2.910   2.118   8.969
31190WAT      O93811   8.826   5.147   4.106
31190WAT     H193812   8.797   5.054   4.083
31190WAT     H293813   8.748   5.210   4.097
31191WAT      O93814   8.763   6.079   1.368
31191WAT     H193815   8.763   6.014   1.444
31191WAT     H293816   8.670   6.091   1.333
31192WAT      O93817   3.253   1.640   2.925
31192WAT     H193818   3.341   1.688   2.929
31192WAT     H293819   3.260   1.553   2.975
31193WAT      O93820   9.002   7.503   9.129
31193WAT     H193821   9.018   7.474   9.034
31193WAT     H293822   8.992   7.422   9.187
31194WAT      O93823   5.730   0.374   8.929
31194WAT     H193824   5.642   0.372   8.881
31194WAT     H293825   5.717   0.342   9.023
31195WAT      O93826   5.565   1.484   8.232
31195WAT     H193827   5.528   1.501   8.141
31195WAT     H293828   5.663   1.501   8.232
31196WAT      O93829   0.426   3.581   6.181
31196WAT     H193830   0.423   3.485   6.207
31196WAT     H293831   0.481   3.632   6.247
31197WAT      O93832   6.330   2.095   8.807
31197WAT     H193833   6.273   2.169   8.842
31197WAT     H293834   6.309   2.011   8.857
31198WAT      O93835   9.625   1.445   5.335
31198WAT     H193836   9.646   1.425   5.240
31198WAT     H293837   9.707   1.430   5.391
31199WAT      O93838   2.064   8.711   6.310
31199WAT     H193839   2.131   8.717   6.384
31199WAT     H293840   2.090   8.774   6.236
31200WAT      O93841   3.246   5.414   8.816
31200WAT     H193842   3.324   5.384   8.760
31200WAT     H293843   3.196   5.485   8.767
31201WAT      O93844   6.520   6.802   5.309
31201WAT     H193845   6.471   6.840   5.231
31201WAT     H293846   6.617   6.823   5.301
31202WAT      O93847   4.647   5.863   0.858
31202WAT     H193848   4.714   5.790   0.848
31202WAT     H293849   4.556   5.824   0.873
31203WAT      O93850   9.273   0.779   2.539
31203WAT     H193851   9.239   0.837   2.613
31203WAT     H293852   9.207   0.781   2.463
31204WAT      O93853   8.263   9.732   4.805
31204WAT     H193854   8.309   9.654   4.849
31204WAT     H293855   8.183   9.700   4.755
31205WAT      O93856   3.967   2.126   8.589
31205WAT     H193857   3.983   2.222   8.568
31205WAT     H293858   4.038   2.092   8.650
31206WAT      O93859   7.852   4.832   9.403
31206WAT     H193860   7.817   4.774   9.476
31206WAT     H293861   7.868   4.924   9.438
31207WAT      O93862   2.684   3.683   1.412
31207WAT     H193863   2.743   3.603   1.412
31207WAT     H293864   2.728   3.757   1.463
31208WAT      O93865   9.083   5.841   3.722
31208WAT     H193866   9.081   5.892   3.809
31208WAT     H293867   9.164   5.868   3.670
31209WAT      O93868   6.289   6.730   2.538
31209WAT     H193869   6.312   6.644   2.493
31209WAT     H293870   6.202   6.764   2.504
31210WAT      O93871   6.194   8.250   9.224
31210WAT     H193872   6.114   8.191   9.237
31210WAT     H293873   6.185   8.331   9.282
31211WAT      O93874   6.468   2.022   4.212
31211WAT     H193875   6.447   2.117   4.235
31211WAT     H293876   6.557   1.997   4.250
31212WAT      O93877   0.806   1.532   8.818
31212WAT     H193878   0.770   1.614   8.863
31212WAT     H293879   0.748   1.454   8.842
31213WAT      O93880   5.802   7.372   3.583
31213WAT     H193881   5.770   7.300   3.521
31213WAT     H293882   5.845   7.330   3.663
31214WAT      O93883   7.884   4.235   1.678
31214WAT     H193884   7.799   4.183   1.688
31214WAT     H293885   7.915   4.264   1.768
31215WAT      O93886   8.528   2.374   2.688
31215WAT     H193887   8.460   2.425   2.740
31215WAT     H293888   8.483   2.324   2.614
31216WAT      O93889   0.130   2.160   0.351
31216WAT     H193890   0.109   2.116   0.264
31216WAT     H293891   0.045   2.187   0.397
31217WAT      O93892   7.955   0.389   6.274
31217WAT     H193893   7.859   0.397   6.302
31217WAT     H293894   7.977   0.292   6.260
31218WAT      O93895   3.661   0.023   8.642
31218WAT     H193896   3.721  -0.038   8.693
31218WAT     H293897   3.566   0.010   8.672
31219WAT      O93898   2.801   0.631   4.700
31219WAT     H193899   2.843   0.662   4.785
31219WAT     H293900   2.842   0.679   4.623
31220WAT      O93901   6.983   5.667   3.110
31220WAT     H193902   6.953   5.579   3.075
31220WAT     H293903   7.043   5.711   3.044
31221WAT      O93904   9.062   0.736   1.052
31221WAT     H193905   9.111   0.676   1.115
31221WAT     H293906   9.116   0.818   1.035
31222WAT      O93907   0.050   3.238   6.878
31222WAT     H193908   0.014   3.175   6.947
31222WAT     H293909   0.023   3.331   6.900
31223WAT      O93910   7.675   6.955   0.149
31223WAT     H193911   7.593   6.958   0.207
31223WAT     H293912   7.737   7.029   0.176
31224WAT      O93913   7.881   2.114   6.393
31224WAT     H193914   7.933   2.072   6.319
31224WAT     H293915   7.896   2.062   6.477
31225WAT      O93916   7.069   0.546   0.998
31225WAT     H193917   7.095   0.601   0.919
31225WAT     H293918   7.142   0.480   1.018
31226WAT      O93919   0.412   2.979   6.845
31226WAT     H193920   0.357   3.036   6.784
31226WAT     H293921   0.488   3.033   6.882
31227WAT      O93922   2.880   3.118   8.281
31227WAT     H193923   2.914   3.028   8.254
31227WAT     H293924   2.903   3.136   8.376
31228WAT      O93925   7.413   6.105   5.579
31228WAT     H193926   7.478   6.110   5.503
31228WAT     H293927   7.346   6.033   5.560
31229WAT      O93928   8.996   7.977   8.755
31229WAT     H193929   8.945   8.056   8.721
31229WAT     H293930   8.943   7.893   8.739
31230WAT      O93931   3.226   7.312   4.026
31230WAT     H193932   3.235   7.407   4.058
31230WAT     H293933   3.130   7.292   4.007
31231WAT      O93934   0.358   1.116   3.753
31231WAT     H193935   0.441   1.078   3.791
31231WAT     H293936   0.362   1.112   3.653
31232WAT      O93937   6.440   4.625   1.781
31232WAT     H193938   6.351   4.631   1.736
31232WAT     H293939   6.428   4.632   1.880
31233WAT      O93940   3.585   3.124   7.968
31233WAT     H193941   3.529   3.188   8.020
31233WAT     H293942   3.527   3.049   7.935
31234WAT      O93943   0.723   8.982   0.828
31234WAT     H193944   0.673   8.986   0.915
31234WAT     H293945   0.659   8.991   0.752
31235WAT      O93946   4.182   9.052   2.076
31235WAT     H193947   4.258   8.997   2.042
31235WAT     H293948   4.211   9.102   2.157
31236WAT      O93949   4.421   5.881   2.612
31236WAT     H193950   4.335   5.921   2.643
31236WAT     H293951   4.454   5.930   2.532
31237WAT      O93952   8.752   1.923   5.431
31237WAT     H193953   8.764   1.943   5.334
31237WAT     H293954   8.659   1.892   5.448
31238WAT      O93955   9.834   7.038   4.390
31238WAT     H193956   9.912   7.038   4.327
31238WAT     H293957   9.863   7.076   4.478
31239WAT      O93958   8.620   7.125   8.449
31239WAT     H193959   8.618   7.068   8.531
31239WAT     H293960   8.630   7.067   8.368
31240WAT      O93961   9.188   2.779   4.947
31240WAT     H193962   9.239   2.754   4.865
31240WAT     H293963   9.115   2.842   4.924
31241WAT      O93964   7.194   5.464   7.049
31241WAT     H193965   7.275   5.521   7.033
31241WAT     H293966   7.167   5.420   6.963
31242WAT      O93967   3.807   2.259   2.414
31242WAT     H193968   3.808   2.247   2.514
31242WAT     H293969   3.895   2.296   2.384
31243WAT      O93970   4.243   1.023   6.665
31243WAT     H193971   4.328   0.985   6.630
31243WAT     H293972   4.174   0.950   6.669
31244WAT      O93973   5.200   4.063   3.342
31244WAT     H193974   5.170   4.151   3.305
31244WAT     H293975   5.285   4.076   3.393
31245WAT      O93976   0.700   0.740   4.719
31245WAT     H193977   0.604   0.745   4.689
31245WAT     H293978   0.760   0.749   4.639
31246WAT      O93979   2.422   4.896   8.390
31246WAT     H193980   2.322   4.895   8.399
31246WAT     H293981   2.461   4.818   8.439
31247WAT      O93982   1.852   2.507   4.909
31247WAT     H193983   1.857   2.445   4.988
31247WAT     H293984   1.799   2.588   4.934
31248WAT      O93985   6.477   9.681   6.008
31248WAT     H193986   6.412   9.691   6.084
31248WAT     H293987   6.436   9.717   5.924
31249WAT      O93988   1.304   0.054   8.461
31249WAT     H193989   1.287  -0.006   8.383
31249WAT     H293990   1.396   0.093   8.454
31250WAT      O93991   7.462   6.547   2.370
31250WAT     H193992   7.429   6.594   2.452
31250WAT     H293993   7.387   6.534   2.306
31251WAT      O93994   4.254   7.442   4.298
31251WAT     H193995   4.330   7.433   4.234
31251WAT     H293996   4.186   7.370   4.280
31252WAT      O93997   8.273   7.918   1.338
31252WAT     H193998   8.294   7.953   1.429
31252WAT     H293999   8.358   7.908   1.286
31253WAT      O94000   7.717   1.104   4.684
31253WAT     H194001   7.637   1.122   4.626
31253WAT     H294002   7.718   1.169   4.760
31254WAT      O94003   5.755   6.628   6.279
31254WAT     H194004   5.826   6.674   6.332
31254WAT     H294005   5.776   6.636   6.182
31255WAT      O94006   4.323   5.376   0.254
31255WAT     H194007   4.289   5.294   0.208
31255WAT     H294008   4.306   5.456   0.197
31256WAT      O94009   5.167   3.366   2.455
31256WAT     H194010   5.255   3.383   2.501
31256WAT     H294011   5.127   3.453   2.427
31257WAT      O94012   8.036   5.167   0.084
31257WAT     H194013   7.955   5.213   0.121
31257WAT     H294014   8.085   5.229   0.023
31258WAT      O94015   8.460   2.249   0.699
31258WAT     H194016   8.451   2.195   0.783
31258WAT     H294017   8.507   2.335   0.720
31259WAT      O94018   4.943   9.053   4.475
31259WAT     H194019   4.952   9.136   4.421
31259WAT     H294020   5.007   9.057   4.552
31260WAT      O94021   8.287   9.730   3.786
31260WAT     H194022   8.340   9.766   3.863
31260WAT     H294023   8.202   9.781   3.777
31261WAT      O94024   3.179   3.179   8.300
31261WAT     H194025   3.136   3.255   8.252
31261WAT     H294026   3.238   3.215   8.372
31262WAT      O94027   1.276   2.257   9.711
31262WAT     H194028   1.265   2.159   9.724
31262WAT     H294029   1.209   2.306   9.767
31263WAT      O94030   7.795   8.787   2.666
31263WAT     H194031   7.769   8.836   2.583
31263WAT     H294032   7.713   8.764   2.718
31264WAT      O94033   6.958   2.948   0.838
31264WAT     H194034   7.051   2.966   0.872
31264WAT     H294035   6.951   2.977   0.742
31265WAT      O94036   0.820   5.595   5.183
31265WAT     H194037   0.883   5.645   5.123
31265WAT     H294038   0.871   5.529   5.238
31266WAT      O94039   8.948   0.904   0.096
31266WAT     H194040   8.917   0.901   0.001
31266WAT     H294041   8.964   0.999   0.123
31267WAT      O94042   3.256   3.707   8.613
31267WAT     H194043   3.278   3.796   8.654
31267WAT     H294044   3.319   3.689   8.538
31268WAT      O94045   6.668   9.731   4.762
31268WAT     H194046   6.696   9.642   4.798
31268WAT     H294047   6.592   9.767   4.816
31269WAT      O94048   3.438   0.234   8.290
31269WAT     H194049   3.377   0.300   8.247
31269WAT     H294050   3.421   0.143   8.253
31270WAT      O94051   3.930   2.524   4.537
31270WAT     H194052   3.903   2.452   4.474
31270WAT     H294053   3.920   2.613   4.493
31271WAT      O94054   6.733   9.631   5.612
31271WAT     H194055   6.681   9.612   5.695
31271WAT     H294056   6.758   9.728   5.609
31272WAT      O94057   7.315   6.733   4.026
31272WAT     H194058   7.362   6.685   3.952
31272WAT     H294059   7.309   6.674   4.106
31273WAT      O94060   0.295   2.907   2.672
31273WAT     H194061   0.298   2.987   2.732
31273WAT     H294062   0.365   2.841   2.701
31274WAT      O94063   2.761   9.742   9.817
31274WAT     H194064   2.794   9.659   9.771
31274WAT     H294065   2.735   9.810   9.748
31275WAT      O94066   3.365   5.438   7.599
31275WAT     H194067   3.309   5.448   7.681
31275WAT     H294068   3.419   5.354   7.604
31276WAT      O94069   1.599   8.987   3.795
31276WAT     H194070   1.505   8.953   3.782
31276WAT     H294071   1.602   9.043   3.878
31277WAT      O94072   0.705   8.340   7.289
31277WAT     H194073   0.662   8.415   7.238
31277WAT     H294074   0.750   8.377   7.370
31278WAT      O94075   4.334   1.045   1.216
31278WAT     H194076   4.249   0.999   1.191
31278WAT     H294077   4.400   1.035   1.142
31279WAT      O94078   8.594   9.427   9.589
31279WAT     H194079   8.530   9.425   9.666
31279WAT     H294080   8.618   9.333   9.564
31280WAT      O94081   9.633   8.871   7.051
31280WAT     H194082   9.581   8.821   7.120
31280WAT     H294083   9.624   8.826   6.963
31281WAT      O94084   1.793   8.444   3.621
31281WAT     H194085   1.788   8.381   3.698
31281WAT     H294086   1.708   8.439   3.568
31282WAT      O94087   5.910   5.443   0.654
31282WAT     H194088   5.927   5.345   0.661
31282WAT     H294089   5.983   5.493   0.700
31283WAT      O94090   9.248   2.866   2.539
31283WAT     H194091   9.269   2.956   2.501
31283WAT     H294092   9.149   2.853   2.540
31284WAT      O94093   2.179   8.234   1.090
31284WAT     H194094   2.102   8.206   1.148
31284WAT     H294095   2.200   8.161   1.025
31285WAT      O94096   0.420   3.450   7.069
31285WAT     H194097   0.370   3.430   6.984
31285WAT     H294098   0.423   3.548   7.084
31286WAT      O94099   1.157   9.118   0.965
31286WAT     H194100   1.058   9.105   0.956
31286WAT     H294101   1.204   9.031   0.953
31287WAT      O94102   4.043   7.973   9.174
31287WAT     H194103   3.981   8.045   9.206
31287WAT     H294104   4.006   7.884   9.197
31288WAT      O94105   7.446   3.602   4.942
31288WAT     H194106   7.538   3.639   4.924
31288WAT     H294107   7.448   3.550   5.027
31289WAT      O94108   4.248   8.451   7.968
31289WAT     H194109   4.262   8.352   7.964
31289WAT     H294110   4.167   8.475   7.915
31290WAT      O94111   3.983   6.515   5.017
31290WAT     H194112   4.037   6.431   5.022
31290WAT     H294113   3.974   6.543   4.921
31291WAT      O94114   6.565   1.574   3.873
31291WAT     H194115   6.644   1.529   3.832
31291WAT     H294116   6.523   1.514   3.940
31292WAT      O94117   7.147   0.097   5.367
31292WAT     H194118   7.119   0.191   5.387
31292WAT     H294119   7.245   0.086   5.387
31293WAT      O94120   0.277   9.340   7.400
31293WAT     H194121   0.215   9.317   7.326
31293WAT     H294122   0.336   9.415   7.372
31294WAT      O94123   5.922   1.603   3.034
31294WAT     H194124   5.974   1.667   2.977
31294WAT     H294125   5.840   1.649   3.069
31295WAT      O94126   3.536   8.630   6.073
31295WAT     H194127   3.628   8.592   6.077
31295WAT     H294128   3.498   8.617   5.982
31296WAT      O94129   4.793   6.752   7.418
31296WAT     H194130   4.789   6.771   7.320
31296WAT     H294131   4.841   6.666   7.433
31297WAT      O94132   6.459   4.876   0.784
31297WAT     H194133   6.363   4.898   0.766
31297WAT     H294134   6.470   4.850   0.880
31298WAT      O94135   8.645   1.048   7.653
31298WAT     H194136   8.547   1.035   7.669
31298WAT     H294137   8.685   1.099   7.729
31299WAT      O94138   3.870   7.219   0.108
31299WAT     H194139   3.826   7.231   0.019
31299WAT     H294140   3.801   7.221   0.180
31300WAT      O94141   6.323   9.258   6.924
31300WAT     H194142   6.273   9.311   6.856
31300WAT     H294143   6.383   9.193   6.878
31301WAT      O94144   2.166   3.496   3.586
31301WAT     H194145   2.068   3.509   3.601
31301WAT     H294146   2.212   3.484   3.674
31302WAT      O94147   3.097   3.153   1.395
31302WAT     H194148   3.178   3.213   1.398
31302WAT     H294149   3.125   3.061   1.368
31303WAT      O94150   3.318   4.878   9.297
31303WAT     H194151   3.373   4.801   9.263
31303WAT     H294152   3.353   4.908   9.386
31304WAT      O94153   6.621   2.796   4.682
31304WAT     H194154   6.522   2.807   4.677
31304WAT     H294155   6.652   2.740   4.605
31305WAT      O94156   8.933   4.580   6.822
31305WAT     H194157   8.939   4.521   6.902
31305WAT     H294158   8.849   4.634   6.826
31306WAT      O94159   7.296   7.005   8.197
31306WAT     H194160   7.383   7.054   8.203
31306WAT     H294161   7.221   7.069   8.209
31307WAT      O94162   7.489   5.721   9.443
31307WAT     H194163   7.539   5.789   9.496
31307WAT     H294164   7.476   5.639   9.497
31308WAT      O94165   3.798   0.915   7.673
31308WAT     H194166   3.868   0.984   7.693
31308WAT     H294167   3.711   0.962   7.655
31309WAT      O94168   7.588   8.411   1.376
31309WAT     H194169   7.626   8.365   1.456
31309WAT     H294170   7.611   8.509   1.379
31310WAT      O94171   7.686   2.182   5.102
31310WAT     H194172   7.684   2.178   5.002
31310WAT     H294173   7.620   2.117   5.139
31311WAT      O94174   8.616   4.597   1.065
31311WAT     H194175   8.643   4.634   0.976
31311WAT     H294176   8.698   4.566   1.114
31312WAT      O94177   2.173   7.275   4.117
31312WAT     H194178   2.089   7.304   4.164
31312WAT     H294179   2.237   7.237   4.184
31313WAT      O94180   0.797   5.059   7.291
31313WAT     H194181   0.716   5.021   7.336
31313WAT     H294182   0.784   5.157   7.275
31314WAT      O94183   1.858   5.359   2.190
31314WAT     H194184   1.832   5.263   2.205
31314WAT     H294185   1.945   5.361   2.141
31315WAT      O94186   7.319   8.683   2.701
31315WAT     H194187   7.354   8.735   2.623
31315WAT     H294188   7.225   8.656   2.683
31316WAT      O94189   9.035   8.990   3.812
31316WAT     H194190   8.984   9.070   3.845
31316WAT     H294191   9.127   9.018   3.784
31317WAT      O94192   5.641   1.397   5.514
31317WAT     H194193   5.577   1.436   5.580
31317WAT     H294194   5.592   1.335   5.453
31318WAT      O94195   0.100   3.002   6.219
31318WAT     H194196   0.184   2.959   6.254
31318WAT     H294197   0.022   2.942   6.237
31319WAT      O94198   2.477   1.817   9.779
31319WAT     H194199   2.462   1.765   9.695
31319WAT     H294200   2.449   1.762   9.858
31320WAT      O94201   7.972   4.551   2.809
31320WAT     H194202   7.879   4.549   2.773
31320WAT     H294203   8.018   4.635   2.778
31321WAT      O94204   0.154   3.704   0.469
31321WAT     H194205   0.071   3.732   0.420
31321WAT     H294206   0.199   3.784   0.508
31322WAT      O94207   0.846   2.817   8.005
31322WAT     H194208   0.791   2.733   8.013
31322WAT     H294209   0.942   2.795   8.023
31323WAT      O94210   0.597   7.483   4.954
31323WAT     H194211   0.681   7.523   4.991
31323WAT     H294212   0.546   7.439   5.028
31324WAT      O94213   6.040   0.493   8.431
31324WAT     H194214   5.958   0.454   8.473
31324WAT     H294215   6.034   0.483   8.331
31325WAT      O94216   3.463   7.915   7.673
31325WAT     H194217   3.546   7.968   7.660
31325WAT     H294218   3.483   7.834   7.728
31326WAT      O94219   5.364   8.911   0.840
31326WAT     H194220   5.333   9.005   0.832
31326WAT     H294221   5.316   8.866   0.916
31327WAT      O94222   2.753   7.359   9.415
31327WAT     H194223   2.838   7.345   9.466
31327WAT     H294224   2.675   7.342   9.476
31328WAT      O94225   6.579   3.066   6.135
31328WAT     H194226   6.612   3.157   6.111
31328WAT     H294227   6.522   3.071   6.217
31329WAT      O94228   9.415   5.700   8.052
31329WAT     H194229   9.432   5.602   8.049
31329WAT     H294230   9.319   5.718   8.069
31330WAT      O94231   1.848   9.410   4.410
31330WAT     H194232   1.785   9.361   4.470
31330WAT     H294233   1.868   9.500   4.449
31331WAT      O94234   2.760   1.958   3.531
31331WAT     H194235   2.666   1.933   3.506
31331WAT     H294236   2.816   1.876   3.538
31332WAT      O94237   8.874   1.323   9.121
31332WAT     H194238   8.818   1.269   9.058
31332WAT     H294239   8.818   1.396   9.160
31333WAT      O94240   9.525   4.317   1.989
31333WAT     H194241   9.563   4.408   2.005
31333WAT     H294242   9.471   4.318   1.905
31334WAT      O94243   5.365   0.326   7.458
31334WAT     H194244   5.339   0.420   7.435
31334WAT     H294245   5.340   0.265   7.382
31335WAT      O94246   4.667   0.895   7.317
31335WAT     H194247   4.637   0.808   7.356
31335WAT     H294248   4.595   0.932   7.259
31336WAT      O94249   1.364   4.595   0.535
31336WAT     H194250   1.266   4.603   0.557
31336WAT     H294251   1.416   4.663   0.587
31337WAT      O94252   2.175   1.823   3.841
31337WAT     H194253   2.210   1.887   3.772
31337WAT     H294254   2.161   1.872   3.927
31338WAT      O94255   7.828   6.310   5.961
31338WAT     H194256   7.778   6.252   5.896
31338WAT     H294257   7.908   6.262   5.996
31339WAT      O94258   7.919   2.485   9.338
31339WAT     H194259   7.875   2.545   9.404
31339WAT     H294260   8.016   2.505   9.333
31340WAT      O94261   7.680   4.482   3.079
31340WAT     H194262   7.591   4.440   3.098
31340WAT     H294263   7.751   4.411   3.080
31341WAT      O94264   6.253   6.559   1.482
31341WAT     H194265   6.296   6.647   1.499
31341WAT     H294266   6.228   6.516   1.569
31342WAT      O94267   9.610   5.696   7.174
31342WAT     H194268   9.636   5.786   7.207
31342WAT     H294269   9.564   5.704   7.086
31343WAT      O94270   4.851   1.675   4.814
31343WAT     H194271   4.916   1.744   4.783
31343WAT     H294272   4.758   1.712   4.810
31344WAT      O94273   3.661   3.094   8.359
31344WAT     H194274   3.610   3.180   8.349
31344WAT     H294275   3.656   3.064   8.455
31345WAT      O94276   3.802   9.582   5.030
31345WAT     H194277   3.831   9.488   5.013
31345WAT     H294278   3.859   9.622   5.101
31346WAT      O94279   9.492   3.324   5.437
31346WAT     H194280   9.525   3.256   5.371
31346WAT     H294281   9.441   3.395   5.388
31347WAT      O94282   9.601   2.557   0.043
31347WAT     H194283   9.612   2.652   0.013
31347WAT     H294284   9.553   2.505  -0.028
31348WAT      O94285   7.437   4.252   5.918
31348WAT     H194286   7.479   4.219   6.003
31348WAT     H294287   7.338   4.239   5.923
31349WAT      O94288   5.620   5.295   2.017
31349WAT     H194289   5.620   5.371   1.952
31349WAT     H294290   5.552   5.311   2.087
31350WAT      O94291   4.483   9.406   8.370
31350WAT     H194292   4.434   9.491   8.350
31350WAT     H294293   4.490   9.351   8.287
31351WAT      O94294   9.712   5.929   8.365
31351WAT     H194295   9.723   6.020   8.325
31351WAT     H294296   9.757   5.927   8.455
31352WAT      O94297   6.848   3.647   3.811
31352WAT     H194298   6.942   3.613   3.815
31352WAT     H294299   6.849   3.745   3.793
31353WAT      O94300   6.378   0.155   8.798
31353WAT     H194301   6.462   0.210   8.797
31353WAT     H294302   6.402   0.058   8.791
31354WAT      O94303   9.239   3.920   5.886
31354WAT     H194304   9.324   3.889   5.929
31354WAT     H294305   9.226   4.017   5.906
31355WAT      O94306   6.166   8.883   2.963
31355WAT     H194307   6.128   8.824   2.892
31355WAT     H294308   6.093   8.938   3.004
31356WAT      O94309   6.528   8.986   0.717
31356WAT     H194310   6.602   9.040   0.676
31356WAT     H294311   6.452   9.047   0.740
31357WAT      O94312   2.318   2.411   8.672
31357WAT     H194313   2.265   2.459   8.741
31357WAT     H294314   2.300   2.450   8.582
31358WAT      O94315   3.981   5.055   7.381
31358WAT     H194316   3.930   5.140   7.367
31358WAT     H294317   3.977   5.028   7.477
31359WAT      O94318   9.448   2.333   1.541
31359WAT     H194319   9.431   2.293   1.631
31359WAT     H294320   9.543   2.317   1.514
31360WAT      O94321   3.974   2.739   8.676
31360WAT     H194322   3.933   2.648   8.679
31360WAT     H294323   3.992   2.766   8.582
31361WAT      O94324   2.348   2.593   1.735
31361WAT     H194325   2.250   2.574   1.739
31361WAT     H294326   2.369   2.673   1.791
31362WAT      O94327   3.414   8.750   4.865
31362WAT     H194328   3.512   8.741   4.880
31362WAT     H294329   3.384   8.842   4.891
31363WAT      O94330   2.562   6.322   6.009
31363WAT     H194331   2.477   6.272   5.993
31363WAT     H294332   2.567   6.401   5.948
31364WAT      O94333   1.000   2.005   2.461
31364WAT     H194334   1.034   1.987   2.368
31364WAT     H294335   0.978   2.102   2.470
31365WAT      O94336   7.435   0.508   6.196
31365WAT     H194337   7.485   0.595   6.195
31365WAT     H294338   7.427   0.475   6.290
31366WAT      O94339   4.302   5.968   3.397
31366WAT     H194340   4.311   6.023   3.480
31366WAT     H294341   4.330   5.874   3.416
31367WAT      O94342   3.777   9.492   5.602
31367WAT     H194343   3.849   9.450   5.548
31367WAT     H294344   3.725   9.422   5.651
31368WAT      O94345   6.097   3.065   4.335
31368WAT     H194346   6.023   3.131   4.323
31368WAT     H294347   6.069   2.996   4.402
31369WAT      O94348   2.165   8.700   9.232
31369WAT     H194349   2.176   8.607   9.270
31369WAT     H294350   2.217   8.765   9.288
31370WAT      O94351   6.886   6.546   4.013
31370WAT     H194352   6.852   6.583   3.926
31370WAT     H294353   6.809   6.526   4.073
31371WAT      O94354   3.955   3.389   6.988
31371WAT     H194355   3.896   3.320   7.032
31371WAT     H294356   3.917   3.412   6.899
31372WAT      O94357   4.279   8.640   6.860
31372WAT     H194358   4.204   8.646   6.795
31372WAT     H294359   4.246   8.600   6.945
31373WAT      O94360   2.378   4.141   5.578
31373WAT     H194361   2.405   4.074   5.647
31373WAT     H294362   2.421   4.118   5.491
31374WAT      O94363   7.648   1.101   6.521
31374WAT     H194364   7.691   1.143   6.601
31374WAT     H294365   7.665   1.003   6.522
31375WAT      O94366   1.045   0.188   8.496
31375WAT     H194367   1.125   0.145   8.453
31375WAT     H294368   1.064   0.207   8.592
31376WAT      O94369   6.491   2.718   5.620
31376WAT     H194370   6.427   2.749   5.690
31376WAT     H294371   6.484   2.619   5.610
31377WAT      O94372   1.535   6.295   2.163
31377WAT     H194373   1.513   6.199   2.145
31377WAT     H294374   1.587   6.333   2.086
31378WAT      O94375   9.377   3.812   0.887
31378WAT     H194376   9.464   3.800   0.936
31378WAT     H294377   9.319   3.732   0.903
31379WAT      O94378   8.666   8.213   6.831
31379WAT     H194379   8.627   8.300   6.859
31379WAT     H294380   8.766   8.218   6.832
31380WAT      O94381   4.385   2.854   3.131
31380WAT     H194382   4.436   2.774   3.162
31380WAT     H294383   4.388   2.925   3.202
31381WAT      O94384   3.017   3.055   7.169
31381WAT     H194385   3.092   3.072   7.106
31381WAT     H294386   2.985   3.142   7.207
31382WAT      O94387   4.200   2.195   5.135
31382WAT     H194388   4.136   2.268   5.161
31382WAT     H294389   4.214   2.197   5.036
31383WAT      O94390   7.773   3.721   3.598
31383WAT     H194391   7.751   3.777   3.677
31383WAT     H294392   7.776   3.778   3.516
31384WAT      O94393   4.260   8.649   6.311
31384WAT     H194394   4.184   8.701   6.350
31384WAT     H294395   4.235   8.618   6.219
31385WAT      O94396   4.490   7.650   7.133
31385WAT     H194397   4.544   7.568   7.115
31385WAT     H294398   4.452   7.685   7.047
31386WAT      O94399   7.114   3.095   3.177
31386WAT     H194400   7.170   3.059   3.252
31386WAT     H294401   7.019   3.065   3.189
31387WAT      O94402   9.429   7.259   3.216
31387WAT     H194403   9.422   7.323   3.140
31387WAT     H294404   9.430   7.309   3.302
31388WAT      O94405   6.744   2.438   7.299
31388WAT     H194406   6.777   2.532   7.289
31388WAT     H294407   6.822   2.375   7.296
31389WAT      O94408   8.185   9.587   8.894
31389WAT     H194409   8.164   9.494   8.925
31389WAT     H294410   8.125   9.612   8.818
31390WAT      O94411   3.046   2.983   9.662
31390WAT     H194412   2.990   3.040   9.721
31390WAT     H294413   3.124   2.947   9.714
31391WAT      O94414   9.337   2.056   3.144
31391WAT     H194415   9.359   1.994   3.218
31391WAT     H294416   9.422   2.087   3.100
31392WAT      O94417   6.001   8.878   2.066
31392WAT     H194418   5.953   8.880   1.978
31392WAT     H294419   6.095   8.910   2.054
31393WAT      O94420   2.751   3.884   7.944
31393WAT     H194421   2.657   3.852   7.933
31393WAT     H294422   2.785   3.918   7.857
31394WAT      O94423   7.717   5.781   8.096
31394WAT     H194424   7.735   5.866   8.046
31394WAT     H294425   7.634   5.738   8.059
31395WAT      O94426   4.208   7.259   1.083
31395WAT     H194427   4.145   7.337   1.090
31395WAT     H294428   4.195   7.213   0.995
31396WAT      O94429   7.680   0.116   4.185
31396WAT     H194430   7.771   0.158   4.191
31396WAT     H294431   7.625   0.166   4.118
31397WAT      O94432   1.570   5.575   1.697
31397WAT     H194433   1.609   5.547   1.785
31397WAT     H294434   1.512   5.501   1.661
31398WAT      O94435   1.384   1.836   4.596
31398WAT     H194436   1.441   1.913   4.626
31398WAT     H294437   1.292   1.846   4.634
31399WAT      O94438   7.416   6.740   0.170
31399WAT     H194439   7.320   6.755   0.148
31399WAT     H294440   7.447   6.810   0.235
31400WAT      O94441   1.798   0.422   8.926
31400WAT     H194442   1.890   0.458   8.911
31400WAT     H294443   1.780   0.416   9.024
31401WAT      O94444   7.285   7.637   6.452
31401WAT     H194445   7.232   7.670   6.373
31401WAT     H294446   7.231   7.569   6.502
31402WAT      O94447   0.815   7.073   5.382
31402WAT     H194448   0.911   7.052   5.403
31402WAT     H294449   0.761   6.988   5.387
31403WAT      O94450   7.880   5.233   4.952
31403WAT     H194451   7.876   5.323   4.995
31403WAT     H294452   7.880   5.162   5.022
31404WAT      O94453   5.888   2.265   4.339
31404WAT     H194454   5.844   2.308   4.260
31404WAT     H294455   5.987   2.273   4.330
31405WAT      O94456   3.274   3.795   0.817
31405WAT     H194457   3.183   3.834   0.829
31405WAT     H294458   3.266   3.704   0.775
31406WAT      O94459   4.666   0.503   0.098
31406WAT     H194460   4.673   0.519   0.197
31406WAT     H294461   4.691   0.408   0.078
31407WAT      O94462   6.830   0.378   3.381
31407WAT     H194463   6.845   0.288   3.339
31407WAT     H294464   6.818   0.446   3.310
31408WAT      O94465   5.416   3.150   4.553
31408WAT     H194466   5.423   3.108   4.463
31408WAT     H294467   5.507   3.181   4.583
31409WAT      O94468   5.348   0.536   9.339
31409WAT     H194469   5.334   0.467   9.411
31409WAT     H294470   5.364   0.490   9.252
31410WAT      O94471   6.614   5.483   1.674
31410WAT     H194472   6.537   5.419   1.662
31410WAT     H294473   6.651   5.508   1.584
31411WAT      O94474   2.390   6.152   9.150
31411WAT     H194475   2.474   6.125   9.197
31411WAT     H294476   2.378   6.095   9.068
31412WAT      O94477   4.220   1.962   7.328
31412WAT     H194478   4.242   1.867   7.306
31412WAT     H294479   4.133   1.966   7.377
31413WAT      O94480   4.612   5.579   6.263
31413WAT     H194481   4.633   5.625   6.177
31413WAT     H294482   4.514   5.568   6.273
31414WAT      O94483   4.996   0.514   0.832
31414WAT     H194484   4.972   0.482   0.924
31414WAT     H294485   4.962   0.449   0.765
31415WAT      O94486   7.836   8.331   8.890
31415WAT     H194487   7.788   8.407   8.846
31415WAT     H294488   7.857   8.261   8.822
31416WAT      O94489   5.276   6.527   2.819
31416WAT     H194490   5.358   6.582   2.830
31416WAT     H294491   5.218   6.567   2.748
31417WAT      O94492   4.386   2.739   4.561
31417WAT     H194493   4.427   2.830   4.556
31417WAT     H294494   4.350   2.713   4.471
31418WAT      O94495   8.432   9.542   4.130
31418WAT     H194496   8.508   9.602   4.104
31418WAT     H294497   8.412   9.553   4.227
31419WAT      O94498   7.482   7.408   1.977
31419WAT     H194499   7.529   7.468   1.911
31419WAT     H294500   7.415   7.352   1.929
31420WAT      O94501   3.122   4.829   2.688
31420WAT     H194502   3.111   4.766   2.765
31420WAT     H294503   3.196   4.894   2.708
31421WAT      O94504   1.208   0.287   2.351
31421WAT     H194505   1.195   0.346   2.271
31421WAT     H294506   1.129   0.227   2.362
31422WAT      O94507   9.066   6.004   3.936
31422WAT     H194508   9.092   5.975   4.028
31422WAT     H294509   9.077   6.103   3.928
31423WAT      O94510   7.231   3.424   6.712
31423WAT     H194511   7.301   3.404   6.780
31423WAT     H294512   7.181   3.506   6.740
31424WAT      O94513   6.538   3.321   2.799
31424WAT     H194514   6.464   3.376   2.837
31424WAT     H294515   6.603   3.298   2.872
31425WAT      O94516   7.404   4.639   0.049
31425WAT     H194517   7.473   4.686   0.103
31425WAT     H294518   7.413   4.667  -0.047
31426WAT      O94519   3.278   7.161   6.743
31426WAT     H194520   3.262   7.104   6.824
31426WAT     H294521   3.217   7.133   6.670
31427WAT      O94522   0.927   3.960   2.238
31427WAT     H194523   1.024   3.979   2.255
31427WAT     H294524   0.918   3.893   2.165
31428WAT      O94525   9.471   7.535   8.550
31428WAT     H194526   9.449   7.492   8.637
31428WAT     H294527   9.456   7.634   8.557
31429WAT      O94528   5.892   7.179   6.997
31429WAT     H194529   5.983   7.213   7.021
31429WAT     H294530   5.882   7.176   6.897
31430WAT      O94531   7.547   1.777   2.773
31430WAT     H194532   7.491   1.743   2.849
31430WAT     H294533   7.624   1.830   2.809
31431WAT      O94534   2.525   6.144   3.939
31431WAT     H194535   2.448   6.141   4.003
31431WAT     H294536   2.525   6.061   3.883
31432WAT      O94537   6.274   6.768   4.840
31432WAT     H194538   6.342   6.841   4.828
31432WAT     H294539   6.242   6.736   4.751
31433WAT      O94540   5.546   6.793   7.642
31433WAT     H194541   5.604   6.845   7.579
31433WAT     H294542   5.451   6.820   7.630
31434WAT      O94543   5.219   5.085   9.435
31434WAT     H194544   5.295   5.107   9.497
31434WAT     H294545   5.245   5.109   9.341
31435WAT      O94546   5.659   1.860   9.723
31435WAT     H194547   5.603   1.792   9.771
31435WAT     H294548   5.663   1.944   9.778
31436WAT      O94549   0.791   8.759   4.382
31436WAT     H194550   0.758   8.847   4.416
31436WAT     H294551   0.715   8.693   4.383
31437WAT      O94552   3.375   9.177   6.746
31437WAT     H194553   3.343   9.119   6.821
31437WAT     H294554   3.298   9.198   6.685
31438WAT      O94555   0.555   2.378   7.217
31438WAT     H194556   0.643   2.405   7.256
31438WAT     H294557   0.521   2.452   7.158
31439WAT      O94558   8.161   4.567   0.051
31439WAT     H194559   8.142   4.568   0.149
31439WAT     H294560   8.086   4.522   0.003
31440WAT      O94561   0.982   3.352   8.451
31440WAT     H194562   1.041   3.287   8.498
31440WAT     H294563   1.033   3.396   8.378
31441WAT      O94564   9.714   8.561   4.563
31441WAT     H194565   9.760   8.499   4.500
31441WAT     H294566   9.766   8.646   4.570
31442WAT      O94567   3.595   4.035   8.758
31442WAT     H194568   3.644   4.093   8.823
31442WAT     H294569   3.620   3.939   8.772
31443WAT      O94570   4.503   1.823   2.642
31443WAT     H194571   4.563   1.893   2.681
31443WAT     H294572   4.533   1.800   2.550
31444WAT      O94573   2.768   9.379   9.542
31444WAT     H194574   2.765   9.463   9.488
31444WAT     H294575   2.837   9.317   9.505
31445WAT      O94576   3.269   7.111   2.864
31445WAT     H194577   3.263   7.048   2.786
31445WAT     H294578   3.180   7.154   2.879
31446WAT      O94579   3.461   9.459   5.313
31446WAT     H194580   3.536   9.493   5.369
31446WAT     H294581   3.398   9.533   5.292
31447WAT      O94582   4.995   4.121   0.107
31447WAT     H194583   5.046   4.192   0.059
31447WAT     H294584   4.930   4.163   0.170
31448WAT      O94585   8.177   3.535   9.673
31448WAT     H194586   8.189   3.633   9.652
31448WAT     H294587   8.182   3.482   9.589
31449WAT      O94588   5.232   2.052   8.924
31449WAT     H194589   5.323   2.068   8.884
31449WAT     H294590   5.185   1.982   8.871
31450WAT      O94591   4.971   8.949   6.065
31450WAT     H194592   5.062   8.909   6.059
31450WAT     H294593   4.903   8.878   6.044
31451WAT      O94594   9.691   8.391   1.709
31451WAT     H194595   9.737   8.305   1.688
31451WAT     H294596   9.751   8.467   1.685
31452WAT      O94597   9.758   0.139   4.328
31452WAT     H194598   9.705   0.064   4.288
31452WAT     H294599   9.697   0.200   4.379
31453WAT      O94600   3.350   3.929   8.704
31453WAT     H194601   3.423   3.981   8.748
31453WAT     H294602   3.266   3.938   8.757
31454WAT      O94603   6.733   8.412   5.364
31454WAT     H194604   6.635   8.428   5.363
31454WAT     H294605   6.751   8.317   5.388
31455WAT      O94606   2.351   3.013   0.289
31455WAT     H194607   2.438   3.061   0.290
31455WAT     H294608   2.365   2.917   0.313
31456WAT      O94609   4.580   7.228   5.153
31456WAT     H194610   4.656   7.185   5.103
31456WAT     H294611   4.608   7.320   5.182
31457WAT      O94612   1.026   4.266   7.491
31457WAT     H194613   0.939   4.229   7.458
31457WAT     H294614   1.025   4.366   7.482
31458WAT      O94615   0.469   9.083   2.704
31458WAT     H194616   0.419   9.117   2.625
31458WAT     H294617   0.536   9.151   2.734
31459WAT      O94618   3.270   4.471   5.708
31459WAT     H194619   3.253   4.501   5.802
31459WAT     H294620   3.193   4.414   5.677
31460WAT      O94621   7.145   4.435   8.254
31460WAT     H194622   7.190   4.510   8.302
31460WAT     H294623   7.052   4.424   8.289
31461WAT      O94624   2.344   6.989   3.387
31461WAT     H194625   2.373   7.061   3.450
31461WAT     H294626   2.351   6.900   3.432
31462WAT      O94627   0.493   8.716   8.041
31462WAT     H194628   0.545   8.779   8.098
31462WAT     H294629   0.534   8.712   7.950
31463WAT      O94630   6.253   8.572   6.677
31463WAT     H194631   6.272   8.661   6.635
31463WAT     H294632   6.340   8.527   6.698
31464WAT      O94633   7.940   0.056   7.855
31464WAT     H194634   7.861   0.048   7.794
31464WAT     H294635   7.990  -0.031   7.856
31465WAT      O94636   9.686   2.930   2.215
31465WAT     H194637   9.665   2.851   2.157
31465WAT     H294638   9.689   2.901   2.310
31466WAT      O94639   9.606   3.400   5.994
31466WAT     H194640   9.509   3.385   6.008
31466WAT     H294641   9.658   3.322   6.029
31467WAT      O94642   2.431   5.649   3.221
31467WAT     H194643   2.374   5.728   3.198
31467WAT     H294644   2.379   5.586   3.279
31468WAT      O94645   7.908   6.407   6.413
31468WAT     H194646   7.889   6.505   6.420
31468WAT     H294647   7.894   6.364   6.502
31469WAT      O94648   5.203   5.827   2.988
31469WAT     H194649   5.290   5.841   3.036
31469WAT     H294650   5.140   5.901   3.012
31470WAT      O94651   6.240   3.230   5.993
31470WAT     H194652   6.304   3.301   5.964
31470WAT     H294653   6.283   3.140   5.983
31471WAT      O94654   1.151   9.216   7.282
31471WAT     H194655   1.068   9.162   7.296
31471WAT     H294656   1.227   9.177   7.334
31472WAT      O94657   9.127   4.506   4.574
31472WAT     H194658   9.139   4.410   4.548
31472WAT     H294659   9.071   4.552   4.505
31473WAT      O94660   2.127   0.529   6.291
31473WAT     H194661   2.060   0.561   6.358
31473WAT     H294662   2.219   0.539   6.329
31474WAT      O94663   1.415   8.761   6.698
31474WAT     H194664   1.336   8.731   6.752
31474WAT     H294665   1.384   8.816   6.620
31475WAT      O94666   3.722   3.003   0.259
31475WAT     H194667   3.807   2.980   0.306
31475WAT     H294668   3.742   3.035   0.166
31476WAT      O94669   2.558   4.158   7.758
31476WAT     H194670   2.570   4.062   7.783
31476WAT     H294671   2.542   4.212   7.840
31477WAT      O94672   6.028   6.323   0.463
31477WAT     H194673   6.007   6.401   0.404
31477WAT     H294674   6.107   6.274   0.427
31478WAT      O94675   5.381   4.608   2.060
31478WAT     H194676   5.450   4.584   1.992
31478WAT     H294677   5.392   4.704   2.086
31479WAT      O94678   1.307   0.023   7.074
31479WAT     H194679   1.231  -0.003   7.133
31479WAT     H294680   1.375  -0.051   7.072
31480WAT      O94681   6.121   2.721   2.593
31480WAT     H194682   6.025   2.748   2.592
31480WAT     H294683   6.148   2.691   2.501
31481WAT      O94684   6.581   5.330   2.935
31481WAT     H194685   6.595   5.234   2.912
31481WAT     H294686   6.594   5.386   2.853
31482WAT      O94687   4.406   2.535   8.211
31482WAT     H194688   4.324   2.585   8.185
31482WAT     H294689   4.479   2.553   8.145
31483WAT      O94690   6.858   8.513   8.172
31483WAT     H194691   6.949   8.484   8.142
31483WAT     H294692   6.859   8.611   8.189
31484WAT      O94693   2.023   5.375   1.499
31484WAT     H194694   1.965   5.452   1.470
31484WAT     H294695   1.978   5.289   1.474
31485WAT      O94696   3.591   9.243   2.727
31485WAT     H194697   3.569   9.269   2.821
31485WAT     H294698   3.635   9.320   2.681
31486WAT      O94699   1.801   4.265   5.226
31486WAT     H194700   1.841   4.175   5.240
31486WAT     H294701   1.806   4.289   5.129
31487WAT      O94702   3.555   3.808   5.274
31487WAT     H194703   3.564   3.776   5.180
31487WAT     H294704   3.466   3.851   5.286
31488WAT      O94705   3.534   2.757   6.114
31488WAT     H194706   3.452   2.811   6.098
31488WAT     H294707   3.604   2.813   6.158
31489WAT      O94708   8.985   4.221   0.741
31489WAT     H194709   8.943   4.222   0.832
31489WAT     H294710   8.968   4.133   0.697
31490WAT      O94711   7.775   3.671   5.121
31490WAT     H194712   7.795   3.619   5.038
31490WAT     H294713   7.685   3.714   5.113
31491WAT      O94714   2.947   8.693   2.891
31491WAT     H194715   2.931   8.644   2.977
31491WAT     H294716   2.932   8.791   2.906
31492WAT      O94717   0.448   7.389   5.183
31492WAT     H194718   0.499   7.385   5.269
31492WAT     H294719   0.356   7.354   5.198
31493WAT      O94720   9.235   0.356   8.041
31493WAT     H194721   9.182   0.408   7.974
31493WAT     H294722   9.174   0.305   8.100
31494WAT      O94723   5.389   3.524   2.892
31494WAT     H194724   5.313   3.459   2.892
31494WAT     H294725   5.382   3.584   2.813
31495WAT      O94726   7.087   2.170   2.166
31495WAT     H194727   7.076   2.257   2.215
31495WAT     H294728   7.131   2.187   2.078
31496WAT      O94729   4.830   5.072   9.154
31496WAT     H194730   4.821   5.052   9.057
31496WAT     H294731   4.744   5.053   9.200
31497WAT      O94732   6.242   9.150   9.358
31497WAT     H194733   6.194   9.150   9.271
31497WAT     H294734   6.300   9.069   9.364
31498WAT      O94735   1.021   3.160   0.679
31498WAT     H194736   1.055   3.254   0.681
31498WAT     H294737   0.972   3.145   0.593
31499WAT      O94738   3.688   2.540   3.513
31499WAT     H194739   3.786   2.548   3.530
31499WAT     H294740   3.645   2.489   3.587
31500WAT      O94741   1.999   6.620   7.619
31500WAT     H194742   1.944   6.669   7.688
31500WAT     H294743   2.042   6.687   7.558
31501WAT      O94744   9.182   3.045   7.034
31501WAT     H194745   9.134   2.971   7.082
31501WAT     H294746   9.207   3.116   7.099
31502WAT      O94747   6.415   0.462   0.512
31502WAT     H194748   6.512   0.449   0.491
31502WAT     H294749   6.360   0.436   0.433
31503WAT      O94750   3.812   6.431   2.184
31503WAT     H194751   3.892   6.418   2.127
31503WAT     H294752   3.834   6.494   2.259
31504WAT      O94753   0.444   0.828   4.613
31504WAT     H194754   0.358   0.852   4.657
31504WAT     H294755   0.480   0.908   4.564
31505WAT      O94756   7.472   7.540   4.648
31505WAT     H194757   7.550   7.490   4.608
31505WAT     H294758   7.443   7.612   4.585
31506WAT      O94759   2.818   5.758   5.641
31506WAT     H194760   2.792   5.728   5.733
31506WAT     H294761   2.901   5.815   5.647
31507WAT      O94762   8.811   0.909   6.895
31507WAT     H194763   8.808   1.008   6.879
31507WAT     H294764   8.810   0.861   6.807
31508WAT      O94765   7.354   3.653   1.626
31508WAT     H194766   7.331   3.625   1.533
31508WAT     H294767   7.359   3.572   1.685
31509WAT      O94768   9.867   5.038   8.901
31509WAT     H194769   9.780   5.060   8.944
31509WAT     H294770   9.863   5.060   8.803
31510WAT      O94771   5.913   2.688   9.718
31510WAT     H194772   5.962   2.772   9.696
31510WAT     H294773   5.827   2.685   9.666
31511WAT      O94774   8.705   1.418   9.567
31511WAT     H194775   8.782   1.456   9.516
31511WAT     H294776   8.655   1.491   9.612
31512WAT      O94777   6.381   6.680   9.589
31512WAT     H194778   6.460   6.662   9.530
31512WAT     H294779   6.372   6.606   9.656
31513WAT      O94780   7.766   8.717   1.625
31513WAT     H194781   7.685   8.758   1.583
31513WAT     H294782   7.846   8.772   1.603
31514WAT      O94783   2.150   3.074   0.448
31514WAT     H194784   2.226   3.037   0.395
31514WAT     H294785   2.168   3.061   0.546
31515WAT      O94786   9.089   7.548   3.886
31515WAT     H194787   9.057   7.614   3.817
31515WAT     H294788   9.044   7.460   3.872
31516WAT      O94789   4.937   6.094   5.096
31516WAT     H194790   4.911   6.190   5.100
31516WAT     H294791   5.037   6.086   5.098
31517WAT      O94792   4.767   6.843   1.188
31517WAT     H194793   4.753   6.745   1.178
31517WAT     H294794   4.865   6.864   1.182
31518WAT      O94795   9.857   3.178   2.634
31518WAT     H194796   9.914   3.152   2.712
31518WAT     H294797   9.861   3.106   2.565
31519WAT      O94798   3.789   9.211   2.937
31519WAT     H194799   3.781   9.163   2.850
31519WAT     H294800   3.793   9.144   3.011
31520WAT      O94801   9.743   5.063   9.382
31520WAT     H194802   9.810   5.052   9.309
31520WAT     H294803   9.690   4.979   9.392
31521WAT      O94804   7.256   3.592   8.942
31521WAT     H194805   7.196   3.512   8.954
31521WAT     H294806   7.245   3.653   9.020
31522WAT      O94807   6.739   1.626   6.164
31522WAT     H194808   6.742   1.724   6.142
31522WAT     H294809   6.814   1.579   6.117
31523WAT      O94810   1.035   1.358   2.633
31523WAT     H194811   1.057   1.261   2.626
31523WAT     H294812   1.063   1.405   2.550
31524WAT      O94813   9.734   3.196   9.673
31524WAT     H194814   9.736   3.136   9.753
31524WAT     H294815   9.826   3.230   9.654
31525WAT      O94816   7.849   4.446   1.490
31525WAT     H194817   7.842   4.383   1.567
31525WAT     H294818   7.921   4.415   1.428
31526WAT      O94819   5.808   8.862   2.701
31526WAT     H194820   5.832   8.955   2.726
31526WAT     H294821   5.888   8.803   2.710
31527WAT      O94822   9.601   6.662   0.199
31527WAT     H194823   9.652   6.643   0.283
31527WAT     H294824   9.548   6.746   0.210
31528WAT      O94825   7.842   6.021   4.377
31528WAT     H194826   7.777   6.053   4.446
31528WAT     H294827   7.930   6.068   4.389
31529WAT      O94828   6.285   7.447   5.202
31529WAT     H194829   6.361   7.416   5.260
31529WAT     H294830   6.299   7.413   5.109
31530WAT      O94831   6.931   1.246   3.500
31530WAT     H194832   6.861   1.188   3.543
31530WAT     H294833   6.916   1.247   3.401
31531WAT      O94834   3.807   6.116   1.849
31531WAT     H194835   3.764   6.066   1.924
31531WAT     H294836   3.772   6.083   1.762
31532WAT      O94837   2.377   0.963   0.871
31532WAT     H194838   2.382   0.869   0.836
31532WAT     H294839   2.282   0.984   0.895
31533WAT      O94840   6.739   2.783   6.594
31533WAT     H194841   6.743   2.882   6.586
31533WAT     H294842   6.818   2.751   6.647
31534WAT      O94843   6.078   9.609   4.686
31534WAT     H194844   6.092   9.650   4.596
31534WAT     H294845   6.142   9.649   4.752
31535WAT      O94846   0.900   0.921   5.978
31535WAT     H194847   0.841   0.886   5.906
31535WAT     H294848   0.846   0.976   6.042
31536WAT      O94849   5.708   4.960   1.557
31536WAT     H194850   5.700   4.982   1.460
31536WAT     H294851   5.749   5.037   1.606
31537WAT      O94852   9.304   9.452   2.497
31537WAT     H194853   9.278   9.494   2.410
31537WAT     H294854   9.392   9.406   2.487
31538WAT      O94855   0.756   2.504   9.692
31538WAT     H194856   0.728   2.486   9.786
31538WAT     H294857   0.827   2.438   9.665
31539WAT      O94858   9.294   7.566   6.083
31539WAT     H194859   9.302   7.662   6.057
31539WAT     H294860   9.198   7.537   6.078
31540WAT      O94861   0.741   9.578   5.855
31540WAT     H194862   0.789   9.578   5.768
31540WAT     H294863   0.808   9.575   5.930
31541WAT      O94864   0.312   6.873   3.198
31541WAT     H194865   0.365   6.789   3.192
31541WAT     H294866   0.356   6.937   3.261
31542WAT      O94867   1.829   3.598   2.341
31542WAT     H194868   1.818   3.521   2.404
31542WAT     H294869   1.914   3.586   2.290
31543WAT      O94870   7.058   2.048   6.920
31543WAT     H194871   7.066   1.972   6.984
31543WAT     H294872   7.035   2.012   6.829
31544WAT      O94873   7.164   8.921   8.875
31544WAT     H194874   7.098   8.995   8.883
31544WAT     H294875   7.137   8.859   8.802
31545WAT      O94876   1.155   5.361   3.104
31545WAT     H194877   1.233   5.410   3.064
31545WAT     H294878   1.098   5.425   3.155
31546WAT      O94879   3.143   0.914   4.589
31546WAT     H194880   3.184   0.957   4.669
31546WAT     H294881   3.114   0.984   4.524
31547WAT      O94882   0.988   3.613   3.348
31547WAT     H194883   0.949   3.617   3.256
31547WAT     H294884   1.087   3.601   3.342
31548WAT      O94885   6.049   3.874   6.468
31548WAT     H194886   5.987   3.855   6.544
31548WAT     H294887   6.107   3.794   6.451
31549WAT      O94888   1.089   1.500   5.902
31549WAT     H194889   1.187   1.514   5.888
31549WAT     H294890   1.069   1.402   5.901
31550WAT      O94891   8.201   2.559   9.343
31550WAT     H194892   8.275   2.571   9.277
31550WAT     H294893   8.210   2.469   9.386
31551WAT      O94894   5.452   6.580   0.196
31551WAT     H194895   5.511   6.622   0.265
31551WAT     H294896   5.453   6.637   0.113
31552WAT      O94897   3.881   4.100   7.623
31552WAT     H194898   3.932   4.182   7.599
31552WAT     H294899   3.860   4.100   7.721
31553WAT      O94900   5.216   4.040   8.558
31553WAT     H194901   5.301   4.081   8.526
31553WAT     H294902   5.138   4.087   8.516
31554WAT      O94903   7.897   0.684   1.697
31554WAT     H194904   7.917   0.648   1.788
31554WAT     H294905   7.848   0.770   1.705
31555WAT      O94906   1.000   2.368   9.130
31555WAT     H194907   0.928   2.402   9.071
31555WAT     H294908   1.056   2.444   9.163
31556WAT      O94909   0.886   3.641   1.556
31556WAT     H194910   0.967   3.696   1.576
31556WAT     H294911   0.805   3.699   1.557
31557WAT      O94912   8.031   6.481   5.435
31557WAT     H194913   8.004   6.399   5.485
31557WAT     H294914   8.004   6.472   5.339
31558WAT      O94915   3.211   2.738   8.345
31558WAT     H194916   3.250   2.690   8.266
31558WAT     H294917   3.262   2.714   8.427
31559WAT      O94918   5.128   7.907   3.469
31559WAT     H194919   5.134   7.833   3.402
31559WAT     H294920   5.053   7.889   3.532
31560WAT      O94921   9.164   1.515   3.502
31560WAT     H194922   9.190   1.521   3.406
31560WAT     H294923   9.178   1.603   3.547
31561WAT      O94924   4.876   7.743   9.699
31561WAT     H194925   4.919   7.676   9.759
31561WAT     H294926   4.824   7.696   9.628
31562WAT      O94927   9.603   3.003   7.442
31562WAT     H194928   9.573   3.016   7.537
31562WAT     H294929   9.702   3.013   7.437
31563WAT      O94930   0.882   4.470   3.169
31563WAT     H194931   0.853   4.459   3.073
31563WAT     H294932   0.802   4.461   3.228
31564WAT      O94933   2.703   0.315   9.184
31564WAT     H194934   2.680   0.272   9.272
31564WAT     H294935   2.802   0.327   9.178
31565WAT      O94936   7.768   3.847   3.359
31565WAT     H194937   7.758   3.945   3.344
31565WAT     H294938   7.703   3.797   3.302
31566WAT      O94939   6.373   0.013   2.885
31566WAT     H194940   6.301   0.032   2.818
31566WAT     H294941   6.349  -0.069   2.937
31567WAT      O94942   2.537   6.832   1.985
31567WAT     H194943   2.593   6.913   1.972
31567WAT     H294944   2.487   6.811   1.901
31568WAT      O94945   4.481   4.505   1.374
31568WAT     H194946   4.427   4.424   1.351
31568WAT     H294947   4.427   4.587   1.359
31569WAT      O94948   1.153   0.943   9.213
31569WAT     H194949   1.224   0.882   9.248
31569WAT     H294950   1.168   1.036   9.248
31570WAT      O94951   6.367   8.215   0.676
31570WAT     H194952   6.456   8.231   0.633
31570WAT     H294953   6.340   8.296   0.728
31571WAT      O94954   2.100   0.752   8.819
31571WAT     H194955   2.154   0.814   8.763
31571WAT     H294956   2.011   0.792   8.838
31572WAT      O94957   8.244   2.902   7.250
31572WAT     H194958   8.232   2.956   7.333
31572WAT     H294959   8.204   2.811   7.262
31573WAT      O94960   3.363   9.043   8.688
31573WAT     H194961   3.337   9.120   8.746
31573WAT     H294962   3.447   9.065   8.639
31574WAT      O94963   1.903   2.423   6.121
31574WAT     H194964   1.851   2.350   6.165
31574WAT     H294965   1.884   2.510   6.167
31575WAT      O94966   3.162   8.365   9.460
31575WAT     H194967   3.100   8.327   9.529
31575WAT     H294968   3.209   8.290   9.413
31576WAT      O94969   5.785   0.957   0.021
31576WAT     H194970   5.848   0.905  -0.036
31576WAT     H294971   5.833   1.034   0.063
31577WAT      O94972   9.039   8.750   7.012
31577WAT     H194973   8.951   8.752   7.060
31577WAT     H294974   9.045   8.829   6.951
31578WAT      O94975   4.227   5.164   5.313
31578WAT     H194976   4.301   5.230   5.296
31578WAT     H294977   4.167   5.200   5.385
31579WAT      O94978   8.732   3.157   1.473
31579WAT     H194979   8.758   3.242   1.426
31579WAT     H294980   8.813   3.115   1.514
31580WAT      O94981   4.514   8.756   6.326
31580WAT     H194982   4.429   8.704   6.332
31580WAT     H294983   4.526   8.811   6.409
31581WAT      O94984   2.924   5.401   9.346
31581WAT     H194985   2.902   5.446   9.433
31581WAT     H294986   2.966   5.468   9.284
31582WAT      O94987   1.954   2.144   0.260
31582WAT     H194988   1.913   2.061   0.298
31582WAT     H294989   1.899   2.224   0.286
31583WAT      O94990   6.416   4.430   4.127
31583WAT     H194991   6.386   4.490   4.200
31583WAT     H294992   6.406   4.335   4.156
31584WAT      O94993   7.936   0.198   0.790
31584WAT     H194994   7.894   0.272   0.737
31584WAT     H294995   7.969   0.128   0.728
31585WAT      O94996   8.371   3.568   7.882
31585WAT     H194997   8.307   3.497   7.911
31585WAT     H294998   8.451   3.525   7.839
31586WAT      O94999   1.680   0.287   2.586
31586WAT     H195000   1.688   0.263   2.683
31586WAT     H295001   1.699   0.206   2.530
31587WAT      O95002   3.394   9.541   9.389
31587WAT     H195003   3.318   9.599   9.420
31587WAT     H295004   3.460   9.597   9.338
31588WAT      O95005   1.357   0.746   7.948
31588WAT     H195006   1.305   0.825   7.914
31588WAT     H295007   1.335   0.731   8.045
31589WAT      O95008   6.409   5.551   9.833
31589WAT     H195009   6.500   5.515   9.812
31589WAT     H295010   6.397   5.552   9.933
31590WAT      O95011   5.229   4.410   3.041
31590WAT     H195012   5.250   4.361   2.957
31590WAT     H295013   5.156   4.476   3.024
31591WAT      O95014   2.621   0.202   6.969
31591WAT     H195015   2.587   0.216   7.062
31591WAT     H295016   2.549   0.161   6.913
31592WAT      O95017   5.373   7.246   0.179
31592WAT     H195018   5.313   7.313   0.221
31592WAT     H295019   5.379   7.263   0.081
31593WAT      O95020   2.347   7.203   6.781
31593WAT     H195021   2.288   7.282   6.764
31593WAT     H295022   2.400   7.219   6.865
31594WAT      O95023   7.606   4.086   3.668
31594WAT     H195024   7.604   4.152   3.743
31594WAT     H295025   7.656   4.125   3.590
31595WAT      O95026   8.123   6.143   1.549
31595WAT     H195027   8.070   6.175   1.471
31595WAT     H295028   8.121   6.043   1.552
31596WAT      O95029   0.771   3.869   8.515
31596WAT     H195030   0.825   3.798   8.470
31596WAT     H295031   0.804   3.882   8.609
31597WAT      O95032   6.329   3.989   3.864
31597WAT     H195033   6.346   3.920   3.934
31597WAT     H295034   6.267   3.951   3.795
31598WAT      O95035   7.133   2.536   4.164
31598WAT     H195036   7.211   2.593   4.191
31598WAT     H295037   7.160   2.480   4.086
31599WAT      O95038   5.109   2.391   1.139
31599WAT     H195039   5.120   2.490   1.141
31599WAT     H295040   5.171   2.352   1.070
31600WAT      O95041   0.475   2.535   8.176
31600WAT     H195042   0.471   2.445   8.220
31600WAT     H295043   0.383   2.570   8.164
31601WAT      O95044   5.957   3.096   7.280
31601WAT     H195045   6.025   3.030   7.250
31601WAT     H295046   5.997   3.156   7.349
31602WAT      O95047   9.399   0.615   3.233
31602WAT     H195048   9.373   0.709   3.257
31602WAT     H295049   9.318   0.558   3.226
31603WAT      O95050   8.415   6.379   9.136
31603WAT     H195051   8.486   6.376   9.065
31603WAT     H295052   8.449   6.431   9.215
31604WAT      O95053   4.228   1.225   9.859
31604WAT     H195054   4.152   1.265   9.910
31604WAT     H295055   4.242   1.277   9.774
31605WAT      O95056   3.695   6.954   7.723
31605WAT     H195057   3.706   6.907   7.636
31605WAT     H295058   3.771   7.018   7.736
31606WAT      O95059   6.053   7.042   3.306
31606WAT     H195060   6.027   7.028   3.402
31606WAT     H295061   6.122   6.975   3.280
31607WAT      O95062   7.417   4.072   5.359
31607WAT     H195063   7.340   4.133   5.338
31607WAT     H295064   7.493   4.090   5.297
31608WAT      O95065   7.501   8.725   7.505
31608WAT     H195066   7.525   8.717   7.408
31608WAT     H295067   7.404   8.748   7.514
31609WAT      O95068   4.050   2.446   8.859
31609WAT     H195069   4.019   2.388   8.934
31609WAT     H295070   4.017   2.409   8.772
31610WAT      O95071   5.960   2.449   1.851
31610WAT     H195072   5.896   2.413   1.783
31610WAT     H295073   5.974   2.380   1.923
31611WAT      O95074   2.265   6.260   2.508
31611WAT     H195075   2.306   6.346   2.537
31611WAT     H295076   2.182   6.279   2.454
31612WAT      O95077   9.590   5.405   9.856
31612WAT     H195078   9.674   5.459   9.864
31612WAT     H295079   9.554   5.387   9.948
31613WAT      O95080   2.229   7.132   6.020
31613WAT     H195081   2.175   7.145   5.937
31613WAT     H295082   2.307   7.195   6.019
31614WAT      O95083   6.202   9.405   8.489
31614WAT     H195084   6.181   9.315   8.451
31614WAT     H295085   6.225   9.395   8.586
31615WAT      O95086   1.558   4.831   7.005
31615WAT     H195087   1.515   4.747   7.039
31615WAT     H295088   1.550   4.834   6.906
31616WAT      O95089   3.193   2.060   9.140
31616WAT     H195090   3.268   2.026   9.198
31616WAT     H295091   3.140   2.128   9.191
31617WAT      O95092   5.673   7.121   8.644
31617WAT     H195093   5.755   7.099   8.591
31617WAT     H295094   5.596   7.068   8.609
31618WAT      O95095   9.428   1.521   9.835
31618WAT     H195096   9.421   1.617   9.862
31618WAT     H295097   9.388   1.509   9.744
31619WAT      O95098   7.345   3.034   7.820
31619WAT     H195099   7.277   2.962   7.804
31619WAT     H295100   7.361   3.083   7.734
31620WAT      O95101   3.939   5.823   6.376
31620WAT     H195102   3.997   5.768   6.434
31620WAT     H295103   3.847   5.828   6.416
31621WAT      O95104   4.204   9.709   6.141
31621WAT     H195105   4.163   9.800   6.140
31621WAT     H295106   4.161   9.652   6.070
31622WAT      O95107   4.571   5.306   2.727
31622WAT     H195108   4.526   5.389   2.760
31622WAT     H295109   4.552   5.231   2.791
31623WAT      O95110   1.370   9.604   7.465
31623WAT     H195111   1.271   9.607   7.457
31623WAT     H295112   1.395   9.591   7.561
31624WAT      O95113   1.441   5.615   6.070
31624WAT     H195114   1.409   5.635   6.163
31624WAT     H295115   1.450   5.701   6.019
31625WAT      O95116   7.506   4.653   6.970
31625WAT     H195117   7.541   4.720   6.904
31625WAT     H295118   7.576   4.583   6.987
31626WAT      O95119   5.600   9.591   8.855
31626WAT     H195120   5.651   9.506   8.869
31626WAT     H295121   5.506   9.569   8.827
31627WAT      O95122   3.416   4.148   6.016
31627WAT     H195123   3.486   4.125   5.948
31627WAT     H295124   3.361   4.067   6.035
31628WAT      O95125   7.534   0.955   0.768
31628WAT     H195126   7.437   0.952   0.742
31628WAT     H295127   7.574   1.041   0.735
31629WAT      O95128   7.154   6.965   2.201
31629WAT     H195129   7.113   7.040   2.150
31629WAT     H295130   7.091   6.887   2.204
31630WAT      O95131   7.680   9.234   6.296
31630WAT     H195132   7.589   9.202   6.273
31630WAT     H295133   7.727   9.263   6.212
31631WAT      O95134   7.796   5.983   1.773
31631WAT     H195135   7.750   5.918   1.833
31631WAT     H295136   7.893   5.958   1.763
31632WAT      O95137   7.182   6.177   4.064
31632WAT     H195138   7.277   6.169   4.034
31632WAT     H295139   7.154   6.094   4.112
31633WAT      O95140   2.610   8.297   4.657
31633WAT     H195141   2.566   8.366   4.715
31633WAT     H295142   2.704   8.325   4.637
31634WAT      O95143   3.051   9.379   4.997
31634WAT     H195144   3.097   9.468   4.990
31634WAT     H295145   3.108   9.309   4.953
31635WAT      O95146   7.005   0.050   4.392
31635WAT     H195147   7.096   0.018   4.365
31635WAT     H295148   6.988   0.027   4.488
31636WAT      O95149   3.954   4.225   1.709
31636WAT     H195150   3.902   4.156   1.659
31636WAT     H295151   3.908   4.313   1.702
31637WAT      O95152   7.370   7.910   2.187
31637WAT     H195153   7.356   7.812   2.202
31637WAT     H295154   7.322   7.938   2.104
31638WAT      O95155   4.479   6.182   0.948
31638WAT     H195156   4.526   6.212   1.032
31638WAT     H295157   4.547   6.164   0.877
31639WAT      O95158   6.310   6.747   6.987
31639WAT     H195159   6.360   6.762   6.902
31639WAT     H295160   6.245   6.672   6.975
31640WAT      O95161   4.457   5.155   5.799
31640WAT     H195162   4.398   5.077   5.781
31640WAT     H295163   4.541   5.147   5.744
31641WAT      O95164   8.665   5.545   9.083
31641WAT     H195165   8.704   5.497   9.004
31641WAT     H295166   8.684   5.492   9.166
31642WAT      O95167   0.970   1.650   3.787
31642WAT     H195168   0.899   1.583   3.764
31642WAT     H295169   0.927   1.736   3.816
31643WAT      O95170   6.575   4.583   3.352
31643WAT     H195171   6.504   4.625   3.408
31643WAT     H295172   6.664   4.619   3.379
31644WAT      O95173   5.476   7.616   2.785
31644WAT     H195174   5.377   7.609   2.787
31644WAT     H295175   5.507   7.667   2.865
31645WAT      O95176   4.705   9.172   3.930
31645WAT     H195177   4.730   9.092   3.984
31645WAT     H295178   4.648   9.233   3.987
31646WAT      O95179   9.884   5.320   8.953
31646WAT     H195180   9.908   5.383   8.879
31646WAT     H295181   9.879   5.227   8.917
31647WAT      O95182   8.664   5.974   2.733
31647WAT     H195183   8.712   5.954   2.647
31647WAT     H295184   8.731   5.998   2.804
31648WAT      O95185   4.634   9.365   9.840
31648WAT     H195186   4.682   9.448   9.810
31648WAT     H295187   4.682   9.326   9.918
31649WAT      O95188   1.936   0.897   6.839
31649WAT     H195189   1.982   0.837   6.903
31649WAT     H295190   1.947   0.992   6.867
31650WAT      O95191   3.238   7.757   6.980
31650WAT     H195192   3.176   7.725   7.052
31650WAT     H295193   3.305   7.685   6.960
31651WAT      O95194   0.758   9.398   1.055
31651WAT     H195195   0.766   9.436   1.147
31651WAT     H295196   0.666   9.360   1.043
31652WAT      O95197   8.985   9.237   9.340
31652WAT     H195198   8.913   9.304   9.317
31652WAT     H295199   8.959   9.187   9.422
31653WAT      O95200   1.231   5.117   0.696
31653WAT     H195201   1.326   5.101   0.722
31653WAT     H295202   1.189   5.030   0.668
31654WAT      O95203   8.723   6.952   2.066
31654WAT     H195204   8.814   6.988   2.048
31654WAT     H295205   8.654   7.013   2.028
31655WAT      O95206   2.515   5.435   3.009
31655WAT     H195207   2.520   5.344   3.052
31655WAT     H295208   2.503   5.504   3.080
31656WAT      O95209   8.108   1.350   5.981
31656WAT     H195210   8.105   1.405   6.064
31656WAT     H295211   8.199   1.308   5.972
31657WAT      O95212   1.655   0.274   0.199
31657WAT     H195213   1.681   0.370   0.201
31657WAT     H295214   1.726   0.219   0.244
31658WAT      O95215   4.671   6.340   7.736
31658WAT     H195216   4.676   6.240   7.741
31658WAT     H295217   4.601   6.367   7.671
31659WAT      O95218   2.897   4.753   9.820
31659WAT     H195219   2.950   4.831   9.788
31659WAT     H295220   2.934   4.669   9.781
31660WAT      O95221   6.886   0.093   0.327
31660WAT     H195222   6.925   0.150   0.399
31660WAT     H295223   6.904  -0.004   0.347
31661WAT      O95224   4.499   6.141   8.581
31661WAT     H195225   4.568   6.194   8.534
31661WAT     H295226   4.430   6.202   8.620
31662WAT      O95227   8.869   5.431   9.360
31662WAT     H195228   8.881   5.527   9.334
31662WAT     H295229   8.887   5.372   9.282
31663WAT      O95230   9.816   4.065   8.839
31663WAT     H195231   9.771   4.085   8.926
31663WAT     H295232   9.848   4.150   8.798
31664WAT      O95233   2.533   2.243   0.251
31664WAT     H195234   2.510   2.335   0.283
31664WAT     H295235   2.619   2.214   0.292
31665WAT      O95236   4.526   8.450   5.003
31665WAT     H195237   4.618   8.447   5.040
31665WAT     H295238   4.529   8.438   4.903
31666WAT      O95239   9.189   3.948   0.399
31666WAT     H195240   9.242   3.919   0.319
31666WAT     H295241   9.224   3.902   0.481
31667WAT      O95242   2.147   5.795   1.743
31667WAT     H195243   2.204   5.791   1.661
31667WAT     H295244   2.202   5.826   1.821
31668WAT      O95245   0.371   7.874   4.853
31668WAT     H195246   0.424   7.802   4.809
31668WAT     H295247   0.298   7.833   4.908
31669WAT      O95248   0.798   5.282   2.517
31669WAT     H195249   0.885   5.315   2.554
31669WAT     H295250   0.747   5.235   2.589
31670WAT      O95251   5.478   6.514   3.976
31670WAT     H195252   5.497   6.606   4.012
31670WAT     H295253   5.400   6.475   4.025
31671WAT      O95254   1.609   7.685   6.231
31671WAT     H195255   1.524   7.733   6.209
31671WAT     H295256   1.592   7.620   6.305
31672WAT      O95257   2.155   7.758   8.732
31672WAT     H195258   2.099   7.734   8.811
31672WAT     H295259   2.108   7.733   8.648
31673WAT      O95260   2.210   2.883   6.071
31673WAT     H195261   2.176   2.974   6.044
31673WAT     H295262   2.152   2.813   6.030
31674WAT      O95263   8.977   3.042   4.386
31674WAT     H195264   9.013   3.130   4.355
31674WAT     H295265   8.999   2.972   4.318
31675WAT      O95266   7.680   5.771   4.868
31675WAT     H195267   7.618   5.793   4.942
31675WAT     H295268   7.641   5.699   4.811
31676WAT      O95269   5.735   1.316   6.097
31676WAT     H195270   5.695   1.224   6.108
31676WAT     H295271   5.798   1.334   6.173
31677WAT      O95272   8.885   0.829   5.524
31677WAT     H195273   8.855   0.883   5.603
31677WAT     H295274   8.887   0.887   5.443
31678WAT      O95275   2.745   7.869   4.694
31678WAT     H195276   2.704   7.779   4.678
31678WAT     H295277   2.839   7.869   4.661
31679WAT      O95278   7.428   8.756   1.301
31679WAT     H195279   7.354   8.722   1.244
31679WAT     H295280   7.506   8.782   1.243
31680WAT      O95281   4.604   3.591   1.338
31680WAT     H195282   4.509   3.605   1.309
31680WAT     H295283   4.625   3.651   1.415
31681WAT      O95284   4.629   2.471   7.384
31681WAT     H195285   4.575   2.387   7.370
31681WAT     H295286   4.580   2.530   7.448
31682WAT      O95287   9.275   1.015   7.508
31682WAT     H195288   9.186   1.034   7.468
31682WAT     H295289   9.318   0.939   7.460
31683WAT      O95290   9.653   1.729   1.020
31683WAT     H195291   9.589   1.785   1.072
31683WAT     H295292   9.644   1.633   1.050
31684WAT      O95293   4.535   2.573   6.399
31684WAT     H195294   4.440   2.545   6.410
31684WAT     H295295   4.549   2.608   6.307
31685WAT      O95296   2.388   9.744   9.106
31685WAT     H195297   2.406   9.646   9.116
31685WAT     H295298   2.469   9.790   9.071
31686WAT      O95299   2.377   2.666   4.315
31686WAT     H195300   2.434   2.632   4.391
31686WAT     H295301   2.297   2.608   4.305
31687WAT      O95302   4.626   2.212   5.357
31687WAT     H195303   4.693   2.182   5.289
31687WAT     H295304   4.549   2.254   5.310
31688WAT      O95305   9.446   3.847   5.519
31688WAT     H195306   9.524   3.831   5.579
31688WAT     H295307   9.367   3.795   5.552
31689WAT      O95308   6.232   3.121   3.980
31689WAT     H195309   6.135   3.136   3.962
31689WAT     H295310   6.254   3.024   3.970
31690WAT      O95311   9.812   4.917   2.478
31690WAT     H195312   9.767   4.888   2.393
31690WAT     H295313   9.907   4.887   2.477
31691WAT      O95314   0.273   0.040   8.234
31691WAT     H195315   0.288   0.036   8.135
31691WAT     H295316   0.208   0.114   8.254
31692WAT      O95317   6.620   2.047   0.132
31692WAT     H195318   6.680   1.995   0.071
31692WAT     H295319   6.549   1.986   0.168
31693WAT      O95320   9.664   3.253   3.829
31693WAT     H195321   9.668   3.352   3.836
31693WAT     H295322   9.595   3.217   3.892
31694WAT      O95323   9.700   9.649   8.360
31694WAT     H195324   9.756   9.568   8.376
31694WAT     H295325   9.741   9.728   8.406
31695WAT      O95326   5.547   4.377   5.787
31695WAT     H195327   5.505   4.446   5.729
31695WAT     H295328   5.502   4.289   5.772
31696WAT      O95329   2.724   5.526   7.329
31696WAT     H195330   2.641   5.581   7.318
31696WAT     H295331   2.724   5.452   7.262
31697WAT      O95332   7.221   6.958   3.829
31697WAT     H195333   7.233   6.984   3.925
31697WAT     H295334   7.303   6.911   3.796
31698WAT      O95335   2.517   6.714   6.543
31698WAT     H195336   2.539   6.622   6.510
31698WAT     H295337   2.596   6.774   6.529
31699WAT      O95338   0.678   2.454   4.880
31699WAT     H195339   0.683   2.543   4.834
31699WAT     H295340   0.694   2.466   4.978
31700WAT      O95341   2.176   2.361   7.043
31700WAT     H195342   2.108   2.399   7.106
31700WAT     H295343   2.151   2.382   6.949
31701WAT      O95344   7.243   1.836   6.409
31701WAT     H195345   7.241   1.926   6.451
31701WAT     H295346   7.274   1.844   6.314
31702WAT      O95347   2.069   8.934   2.888
31702WAT     H195348   2.027   8.898   2.971
31702WAT     H295349   2.154   8.982   2.911
31703WAT      O95350   3.625   3.699   5.495
31703WAT     H195351   3.681   3.769   5.539
31703WAT     H295352   3.593   3.733   5.406
31704WAT      O95353   3.951   9.093   3.724
31704WAT     H195354   3.981   9.161   3.657
31704WAT     H295355   4.032   9.046   3.762
31705WAT      O95356   1.147   1.369   6.580
31705WAT     H195357   1.226   1.311   6.559
31705WAT     H295358   1.085   1.371   6.501
31706WAT      O95359   7.577   5.773   5.375
31706WAT     H195360   7.598   5.681   5.409
31706WAT     H295361   7.478   5.787   5.375
31707WAT      O95362   5.292   6.682   5.901
31707WAT     H195363   5.298   6.687   5.801
31707WAT     H295364   5.206   6.639   5.927
31708WAT      O95365   5.815   7.295   0.954
31708WAT     H195366   5.849   7.335   0.869
31708WAT     H295367   5.862   7.336   1.031
31709WAT      O95368   3.659   9.765   4.926
31709WAT     H195369   3.701   9.696   4.985
31709WAT     H295370   3.724   9.792   4.854
31710WAT      O95371   1.571   0.961   3.848
31710WAT     H195372   1.532   1.035   3.903
31710WAT     H295373   1.613   0.998   3.766
31711WAT      O95374   8.962   3.870   1.326
31711WAT     H195375   9.012   3.807   1.267
31711WAT     H295376   8.937   3.952   1.274
31712WAT      O95377   2.731   1.670   0.357
31712WAT     H195378   2.817   1.652   0.309
31712WAT     H295379   2.744   1.746   0.421
31713WAT      O95380   7.689   2.180   2.959
31713WAT     H195381   7.613   2.123   2.991
31713WAT     H295382   7.661   2.276   2.960
31714WAT      O95383   4.840   3.882   8.563
31714WAT     H195384   4.891   3.849   8.643
31714WAT     H295385   4.745   3.899   8.589
31715WAT      O95386   4.419   4.767   0.543
31715WAT     H195387   4.516   4.788   0.550
31715WAT     H295388   4.367   4.851   0.530
31716WAT      O95389   0.811   7.538   1.636
31716WAT     H195390   0.849   7.466   1.578
31716WAT     H295391   0.750   7.596   1.581
31717WAT      O95392   1.201   4.868   8.500
31717WAT     H195393   1.163   4.926   8.572
31717WAT     H295394   1.222   4.924   8.419
31718WAT      O95395   5.754   5.630   4.941
31718WAT     H195396   5.735   5.532   4.939
31718WAT     H295397   5.709   5.675   4.864
31719WAT      O95398   0.831   5.750   7.285
31719WAT     H195399   0.874   5.678   7.230
31719WAT     H295400   0.803   5.714   7.374
31720WAT      O95401   0.252   2.076   8.315
31720WAT     H195402   0.192   2.154   8.298
31720WAT     H295403   0.253   2.016   8.235
31721WAT      O95404   6.289   7.957   0.175
31721WAT     H195405   6.348   8.008   0.112
31721WAT     H295406   6.194   7.983   0.161
31722WAT      O95407   1.512   5.099   2.695
31722WAT     H195408   1.587   5.138   2.643
31722WAT     H295409   1.425   5.118   2.648
31723WAT      O95410   7.350   5.650   0.407
31723WAT     H195411   7.332   5.666   0.504
31723WAT     H295412   7.403   5.727   0.369
31724WAT      O95413   1.648   2.694   1.809
31724WAT     H195414   1.658   2.726   1.904
31724WAT     H295415   1.590   2.613   1.807
31725WAT      O95416   1.608   5.992   5.089
31725WAT     H195417   1.612   6.052   5.009
31725WAT     H295418   1.647   5.903   5.066
31726WAT      O95419   0.108   2.051   1.118
31726WAT     H195420   0.102   2.017   1.025
31726WAT     H295421   0.199   2.089   1.134
31727WAT      O95422   2.539   8.698   5.897
31727WAT     H195423   2.639   8.701   5.900
31727WAT     H295424   2.508   8.729   5.807
31728WAT      O95425   6.555   8.646   5.835
31728WAT     H195426   6.630   8.586   5.807
31728WAT     H295427   6.591   8.737   5.856
31729WAT      O95428   3.070   8.348   5.453
31729WAT     H195429   3.086   8.253   5.429
31729WAT     H295430   3.134   8.375   5.525
31730WAT      O95431   8.214   2.548   6.736
31730WAT     H195432   8.231   2.585   6.827
31730WAT     H295433   8.164   2.616   6.681
31731WAT      O95434   8.039   7.847   6.467
31731WAT     H195435   7.950   7.877   6.433
31731WAT     H295436   8.040   7.849   6.567
31732WAT      O95437   0.102   0.151   9.267
31732WAT     H195438   0.175   0.219   9.256
31732WAT     H295439   0.049   0.172   9.349
31733WAT      O95440   3.839   7.514   5.635
31733WAT     H195441   3.887   7.435   5.672
31733WAT     H295442   3.772   7.547   5.702
31734WAT      O95443   5.285   1.014   3.236
31734WAT     H195444   5.349   1.058   3.173
31734WAT     H295445   5.247   1.083   3.298
31735WAT      O95446   2.961   6.338   0.908
31735WAT     H195447   3.055   6.319   0.935
31735WAT     H295448   2.939   6.433   0.932
31736WAT      O95449   3.172   4.970   4.312
31736WAT     H195450   3.193   4.936   4.220
31736WAT     H295451   3.188   5.068   4.316
31737WAT      O95452   7.650   8.359   9.235
31737WAT     H195453   7.637   8.438   9.175
31737WAT     H295454   7.732   8.371   9.290
31738WAT      O95455   7.904   9.621   2.167
31738WAT     H195456   7.883   9.706   2.215
31738WAT     H295457   7.868   9.544   2.219
31739WAT      O95458   0.723   2.835   1.408
31739WAT     H195459   0.729   2.891   1.490
31739WAT     H295460   0.657   2.876   1.345
31740WAT      O95461   7.171   6.991   1.869
31740WAT     H195462   7.124   7.011   1.783
31740WAT     H295463   7.120   7.033   1.945
31741WAT      O95464   3.266   0.021   9.511
31741WAT     H195465   3.209  -0.060   9.496
31741WAT     H295466   3.303   0.018   9.604
31742WAT      O95467   3.664   6.725   4.196
31742WAT     H195468   3.702   6.738   4.105
31742WAT     H295469   3.670   6.811   4.247
31743WAT      O95470   0.356   3.388   1.211
31743WAT     H195471   0.315   3.388   1.119
31743WAT     H295472   0.390   3.480   1.231
31744WAT      O95473   1.183   5.500   7.008
31744WAT     H195474   1.247   5.549   6.950
31744WAT     H295475   1.230   5.466   7.089
31745WAT      O95476   5.689   5.725   0.100
31745WAT     H195477   5.751   5.780   0.157
31745WAT     H295478   5.598   5.765   0.102
31746WAT      O95479   4.751   6.154   5.409
31746WAT     H195480   4.839   6.191   5.379
31746WAT     H295481   4.681   6.177   5.343
31747WAT      O95482   1.227   2.404   7.436
31747WAT     H195483   1.229   2.440   7.529
31747WAT     H295484   1.203   2.477   7.372
31748WAT      O95485   0.352   4.804   9.642
31748WAT     H195486   0.377   4.720   9.691
31748WAT     H295487   0.434   4.844   9.600
31749WAT      O95488   8.325   6.737   3.488
31749WAT     H195489   8.338   6.742   3.587
31749WAT     H295490   8.314   6.641   3.461
31750WAT      O95491   2.085   4.312   6.635
31750WAT     H195492   2.133   4.342   6.553
31750WAT     H295493   2.085   4.385   6.703
31751WAT      O95494   9.143   9.809   9.251
31751WAT     H195495   9.133   9.747   9.329
31751WAT     H295496   9.145   9.756   9.166
31752WAT      O95497   8.929   8.428   5.009
31752WAT     H195498   9.015   8.401   4.966
31752WAT     H295499   8.941   8.430   5.108
31753WAT      O95500   0.824   7.686   2.877
31753WAT     H195501   0.821   7.654   2.971
31753WAT     H295502   0.782   7.618   2.817
31754WAT      O95503   7.379   3.881   0.942
31754WAT     H195504   7.303   3.942   0.921
31754WAT     H295505   7.406   3.832   0.859
31755WAT      O95506   5.547   7.297   4.844
31755WAT     H195507   5.612   7.241   4.895
31755WAT     H295508   5.593   7.381   4.813
31756WAT      O95509   9.145   3.927   8.657
31756WAT     H195510   9.160   3.956   8.563
31756WAT     H295511   9.208   3.852   8.680
31757WAT      O95512   2.462   7.068   2.375
31757WAT     H195513   2.365   7.043   2.367
31757WAT     H295514   2.507   7.005   2.439
31758WAT      O95515   1.469   5.654   3.360
31758WAT     H195516   1.419   5.573   3.329
31758WAT     H295517   1.451   5.669   3.457
31759WAT      O95518   6.061   8.681   5.348
31759WAT     H195519   6.102   8.641   5.430
31759WAT     H295520   6.132   8.721   5.291
31760WAT      O95521   9.522   6.457   5.477
31760WAT     H195522   9.563   6.535   5.525
31760WAT     H295523   9.442   6.426   5.527
31761WAT      O95524   7.689   4.547   2.798
31761WAT     H195525   7.677   4.514   2.891
31761WAT     H295526   7.624   4.621   2.779
31762WAT      O95527   4.170   4.656   0.114
31762WAT     H195528   4.222   4.571   0.108
31762WAT     H295529   4.108   4.652   0.192
31763WAT      O95530   0.078   8.406   9.024
31763WAT     H195531   0.131   8.407   9.109
31763WAT     H295532   0.131   8.451   8.952
31764WAT      O95533   1.288   7.570   7.336
31764WAT     H195534   1.383   7.603   7.333
31764WAT     H295535   1.272   7.510   7.257
31765WAT      O95536   0.110   0.957   3.792
31765WAT     H195537   0.202   0.994   3.782
31765WAT     H295538   0.070   0.942   3.702
31766WAT      O95539   9.835   1.095   0.613
31766WAT     H195540   9.762   1.162   0.598
31766WAT     H295541   9.858   1.092   0.710
31767WAT      O95542   0.015   9.827   6.299
31767WAT     H195543   0.105   9.866   6.279
31767WAT     H295544   0.010   9.733   6.265
31768WAT      O95545   5.580   5.896   4.457
31768WAT     H195546   5.669   5.915   4.417
31768WAT     H295547   5.591   5.840   4.539
31769WAT      O95548   1.838   6.200   1.143
31769WAT     H195549   1.783   6.238   1.068
31769WAT     H295550   1.933   6.228   1.133
31770WAT      O95551   4.568   5.292   8.969
31770WAT     H195552   4.560   5.250   9.060
31770WAT     H295553   4.664   5.292   8.941
31771WAT      O95554   6.334   5.910   7.124
31771WAT     H195555   6.252   5.853   7.133
31771WAT     H295556   6.333   5.956   7.035
31772WAT      O95557   9.827   8.360   6.168
31772WAT     H195558   9.840   8.408   6.081
31772WAT     H295559   9.753   8.402   6.220
31773WAT      O95560   8.757   4.893   8.559
31773WAT     H195561   8.846   4.939   8.560
31773WAT     H295562   8.760   4.815   8.622
31774WAT      O95563   3.706   3.283   0.929
31774WAT     H195564   3.691   3.374   0.889
31774WAT     H295565   3.629   3.259   0.988
31775WAT      O95566   8.251   1.255   7.227
31775WAT     H195567   8.185   1.232   7.156
31775WAT     H295568   8.253   1.183   7.296
31776WAT      O95569   0.096   8.606   2.152
31776WAT     H195570   0.008   8.561   2.166
31776WAT     H295571   0.107   8.681   2.217
31777WAT      O95572   9.349   3.372   8.891
31777WAT     H195573   9.441   3.374   8.853
31777WAT     H295574   9.351   3.333   8.983
31778WAT      O95575   8.616   0.335   0.058
31778WAT     H195576   8.518   0.326   0.037
31778WAT     H295577   8.660   0.393  -0.010
31779WAT      O95578   1.575   1.706   4.723
31779WAT     H195579   1.510   1.730   4.651
31779WAT     H295580   1.548   1.618   4.763
31780WAT      O95581   1.569   4.956   3.426
31780WAT     H195582   1.537   4.864   3.402
31780WAT     H295583   1.537   5.021   3.357
31781WAT      O95584   2.044   4.996   3.122
31781WAT     H195585   2.122   5.041   3.078
31781WAT     H295586   1.981   4.961   3.052
31782WAT      O95587   5.193   9.044   2.937
31782WAT     H195588   5.124   8.977   2.911
31782WAT     H295589   5.194   9.055   3.037
31783WAT      O95590   6.298   2.771   7.520
31783WAT     H195591   6.220   2.747   7.462
31783WAT     H295592   6.313   2.699   7.587
31784WAT      O95593   2.979   0.952   3.309
31784WAT     H195594   2.905   1.001   3.354
31784WAT     H295595   3.056   1.014   3.292
31785WAT      O95596   6.298   9.496   0.986
31785WAT     H195597   6.346   9.542   1.061
31785WAT     H295598   6.310   9.549   0.902
31786WAT      O95599   8.343   4.603   9.567
31786WAT     H195600   8.305   4.513   9.548
31786WAT     H295601   8.437   4.594   9.600
31787WAT      O95602   8.492   5.803   0.843
31787WAT     H195603   8.519   5.717   0.887
31787WAT     H295604   8.447   5.862   0.910
31788WAT      O95605   0.080   6.190   3.536
31788WAT     H195606   0.011   6.169   3.605
31788WAT     H295607   0.040   6.181   3.445
31789WAT      O95608   8.103   8.370   9.409
31789WAT     H195609   8.174   8.300   9.424
31789WAT     H295610   8.106   8.400   9.314
31790WAT      O95611   8.273   1.007   4.560
31790WAT     H195612   8.267   1.007   4.660
31790WAT     H295613   8.222   0.928   4.524
31791WAT      O95614   1.292   0.447   9.093
31791WAT     H195615   1.193   0.437   9.097
31791WAT     H295616   1.325   0.408   9.006
31792WAT      O95617   3.146   4.858   0.241
31792WAT     H195618   3.210   4.930   0.266
31792WAT     H295619   3.178   4.811   0.159
31793WAT      O95620   2.040   4.204   5.027
31793WAT     H195621   2.079   4.282   5.076
31793WAT     H295622   2.002   4.234   4.940
31794WAT      O95623   1.425   6.319   5.147
31794WAT     H195624   1.442   6.286   5.054
31794WAT     H295625   1.512   6.332   5.194
31795WAT      O95626   2.331   8.246   3.780
31795WAT     H195627   2.300   8.321   3.722
31795WAT     H295628   2.423   8.219   3.754
31796WAT      O95629   5.909   8.152   4.787
31796WAT     H195630   5.978   8.170   4.717
31796WAT     H295631   5.842   8.226   4.788
31797WAT      O95632   3.687   1.457   7.386
31797WAT     H195633   3.641   1.531   7.337
31797WAT     H295634   3.698   1.482   7.482
31798WAT      O95635   8.743   9.609   8.444
31798WAT     H195636   8.802   9.533   8.474
31798WAT     H295637   8.800   9.685   8.412
31799WAT      O95638   3.120   0.374   3.959
31799WAT     H195639   3.188   0.434   3.917
31799WAT     H295640   3.165   0.310   4.021
31800WAT      O95641   0.162   4.384   5.913
31800WAT     H195642   0.064   4.379   5.934
31800WAT     H295643   0.213   4.402   5.997
31801WAT      O95644   4.586   1.425   3.039
31801WAT     H195645   4.579   1.448   2.942
31801WAT     H295646   4.498   1.390   3.071
31802WAT      O95647   6.383   3.737   4.736
31802WAT     H195648   6.313   3.669   4.759
31802WAT     H295649   6.417   3.779   4.819
31803WAT      O95650   0.300   5.561   1.089
31803WAT     H195651   0.223   5.618   1.060
31803WAT     H295652   0.385   5.601   1.055
31804WAT      O95653   7.984   7.484   2.554
31804WAT     H195654   7.899   7.524   2.521
31804WAT     H295655   7.966   7.430   2.636
31805WAT      O95656   6.441   6.567   1.282
31805WAT     H195657   6.361   6.574   1.341
31805WAT     H295658   6.500   6.493   1.315
31806WAT      O95659   7.931   0.572   1.066
31806WAT     H195660   7.948   0.638   0.993
31806WAT     H295661   7.985   0.489   1.049
31807WAT      O95662   3.105   6.271   5.916
31807WAT     H195663   3.084   6.216   5.997
31807WAT     H295664   3.041   6.348   5.911
31808WAT      O95665   3.587   1.179   3.525
31808WAT     H195666   3.569   1.264   3.575
31808WAT     H295667   3.520   1.110   3.551
31809WAT      O95668   1.332   8.442   7.862
31809WAT     H195669   1.396   8.418   7.788
31809WAT     H295670   1.338   8.539   7.881
31810WAT      O95671   2.402   4.473   1.712
31810WAT     H195672   2.321   4.445   1.764
31810WAT     H295673   2.483   4.433   1.754
31811WAT      O95674   4.827   2.645   4.624
31811WAT     H195675   4.799   2.715   4.558
31811WAT     H295676   4.753   2.629   4.689
31812WAT      O95677   3.658   2.155   7.963
31812WAT     H195678   3.606   2.073   7.987
31812WAT     H295679   3.617   2.234   8.007
31813WAT      O95680   7.118   1.128   5.053
31813WAT     H195681   7.035   1.152   5.003
31813WAT     H295682   7.125   1.185   5.135
31814WAT      O95683   6.209   8.666   6.944
31814WAT     H195684   6.203   8.630   6.851
31814WAT     H295685   6.119   8.698   6.973
31815WAT      O95686   8.356   2.185   0.176
31815WAT     H195687   8.436   2.224   0.131
31815WAT     H295688   8.356   2.212   0.272
31816WAT      O95689   2.961   4.293   0.049
31816WAT     H195690   2.882   4.347   0.078
31816WAT     H295691   2.985   4.227   0.120
31817WAT      O95692   2.105   2.165   1.699
31817WAT     H195693   2.168   2.222   1.646
31817WAT     H295694   2.054   2.223   1.763
31818WAT      O95695   7.457   3.145   8.291
31818WAT     H195696   7.555   3.147   8.269
31818WAT     H295697   7.407   3.107   8.213
31819WAT      O95698   9.680   2.844   7.031
31819WAT     H195699   9.622   2.847   7.113
31819WAT     H295700   9.736   2.761   7.033
31820WAT      O95701   8.738   4.479   2.478
31820WAT     H195702   8.671   4.490   2.405
31820WAT     H295703   8.694   4.489   2.567
31821WAT      O95704   2.073   8.719   8.975
31821WAT     H195705   2.091   8.808   8.932
31821WAT     H295706   2.116   8.718   9.066
31822WAT      O95707   3.211   9.041   2.808
31822WAT     H195708   3.288   8.978   2.824
31822WAT     H295709   3.131   9.009   2.858
31823WAT      O95710   5.327   2.714   8.256
31823WAT     H195711   5.364   2.647   8.321
31823WAT     H295712   5.401   2.773   8.223
31824WAT      O95713   5.044   7.218   6.665
31824WAT     H195714   5.078   7.289   6.726
31824WAT     H295715   5.083   7.130   6.691
31825WAT      O95716   2.596   2.074   7.969
31825WAT     H195717   2.567   2.143   8.036
31825WAT     H295718   2.516   2.026   7.934
31826WAT      O95719   7.779   3.511   1.962
31826WAT     H195720   7.700   3.570   1.945
31826WAT     H295721   7.785   3.489   2.059
31827WAT      O95722   3.175   4.828   7.919
31827WAT     H195723   3.232   4.758   7.961
31827WAT     H295724   3.191   4.916   7.964
31828WAT      O95725   6.808   8.723   0.345
31828WAT     H195726   6.782   8.712   0.441
31828WAT     H295727   6.763   8.652   0.290
31829WAT      O95728   4.233   8.085   7.692
31829WAT     H195729   4.150   8.053   7.647
31829WAT     H295730   4.236   8.185   7.692
31830WAT      O95731   4.590   5.749   5.651
31830WAT     H195732   4.674   5.789   5.614
31830WAT     H295733   4.603   5.651   5.666
31831WAT      O95734   1.241   5.222   9.280
31831WAT     H195735   1.278   5.213   9.188
31831WAT     H295736   1.215   5.316   9.297
31832WAT      O95737   8.200   6.258   5.775
31832WAT     H195738   8.277   6.273   5.836
31832WAT     H295739   8.232   6.254   5.681
31833WAT      O95740   1.043   7.767   7.504
31833WAT     H195741   0.980   7.769   7.427
31833WAT     H295742   1.084   7.676   7.512
31834WAT      O95743   0.968   7.687   5.647
31834WAT     H195744   0.952   7.674   5.549
31834WAT     H295745   0.892   7.650   5.699
31835WAT      O95746   8.705   5.264   7.853
31835WAT     H195747   8.631   5.246   7.789
31835WAT     H295748   8.750   5.350   7.828
31836WAT      O95749   3.805   4.472   9.752
31836WAT     H195750   3.829   4.493   9.847
31836WAT     H295751   3.769   4.554   9.708
31837WAT      O95752   8.749   4.096   0.553
31837WAT     H195753   8.761   4.159   0.477
31837WAT     H295754   8.826   4.033   0.558
31838WAT      O95755   4.008   3.880   4.111
31838WAT     H195756   3.955   3.932   4.177
31838WAT     H295757   4.055   3.943   4.049
31839WAT      O95758   6.174   2.956   7.156
31839WAT     H195759   6.165   2.983   7.060
31839WAT     H295760   6.243   3.013   7.200
31840WAT      O95761   8.893   2.530   3.609
31840WAT     H195762   8.815   2.558   3.554
31840WAT     H295763   8.898   2.585   3.692
31841WAT      O95764   2.492   7.159   3.987
31841WAT     H195765   2.498   7.228   3.914
31841WAT     H295766   2.572   7.167   4.046
31842WAT      O95767   6.108   6.779   0.699
31842WAT     H195768   6.068   6.869   0.681
31842WAT     H295769   6.148   6.743   0.614
31843WAT      O95770   5.704   3.719   0.561
31843WAT     H195771   5.754   3.632   0.563
31843WAT     H295772   5.765   3.793   0.586
31844WAT      O95773   3.535   3.164   5.682
31844WAT     H195774   3.570   3.198   5.595
31844WAT     H295775   3.565   3.225   5.756
31845WAT      O95776   5.838   2.835   0.045
31845WAT     H195777   5.883   2.924   0.034
31845WAT     H295778   5.863   2.775  -0.030
31846WAT      O95779   5.250   0.230   7.118
31846WAT     H195780   5.198   0.234   7.033
31846WAT     H295781   5.339   0.274   7.106
31847WAT      O95782   4.150   5.205   9.454
31847WAT     H195783   4.154   5.289   9.509
31847WAT     H295784   4.166   5.126   9.513
31848WAT      O95785   2.037   0.672   3.950
31848WAT     H195786   2.028   0.656   4.048
31848WAT     H295787   1.985   0.754   3.925
31849WAT      O95788   0.936   7.548   7.727
31849WAT     H195789   1.029   7.517   7.708
31849WAT     H295790   0.897   7.492   7.801
31850WAT      O95791   4.419   3.691   0.963
31850WAT     H195792   4.495   3.629   0.945
31850WAT     H295793   4.375   3.665   1.049
31851WAT      O95794   7.859   5.231   5.408
31851WAT     H195795   7.867   5.273   5.498
31851WAT     H295796   7.772   5.258   5.365
31852WAT      O95797   6.124   6.694   9.188
31852WAT     H195798   6.116   6.673   9.285
31852WAT     H295799   6.082   6.620   9.135
31853WAT      O95800   2.201   0.620   3.565
31853WAT     H195801   2.266   0.561   3.517
31853WAT     H295802   2.166   0.689   3.502
31854WAT      O95803   7.377   3.438   0.679
31854WAT     H195804   7.404   3.363   0.618
31854WAT     H295805   7.303   3.407   0.739
31855WAT      O95806   7.919   4.625   4.641
31855WAT     H195807   7.884   4.666   4.556
31855WAT     H295808   7.974   4.693   4.690
31856WAT      O95809   9.805   1.327   9.842
31856WAT     H195810   9.754   1.403   9.882
31856WAT     H295811   9.789   1.324   9.744
31857WAT      O95812   1.724   9.460   6.864
31857WAT     H195813   1.779   9.525   6.813
31857WAT     H295814   1.773   9.432   6.947
31858WAT      O95815   9.511   2.723   4.322
31858WAT     H195816   9.447   2.662   4.370
31858WAT     H295817   9.474   2.743   4.231
31859WAT      O95818   7.622   2.647   3.620
31859WAT     H195819   7.591   2.553   3.609
31859WAT     H295820   7.721   2.649   3.632
31860WAT      O95821   0.976   6.343   5.914
31860WAT     H195822   0.908   6.299   5.856
31860WAT     H295823   0.933   6.372   6.000
31861WAT      O95824   9.382   5.376   6.710
31861WAT     H195825   9.443   5.321   6.768
31861WAT     H295826   9.375   5.333   6.619
31862WAT      O95827   5.641   0.155   1.430
31862WAT     H195828   5.711   0.222   1.454
31862WAT     H295829   5.573   0.198   1.371
31863WAT      O95830   1.737   4.093   3.008
31863WAT     H195831   1.719   4.090   2.909
31863WAT     H295832   1.821   4.145   3.025
31864WAT      O95833   6.356   2.980   3.660
31864WAT     H195834   6.425   2.928   3.608
31864WAT     H295835   6.322   2.924   3.735
31865WAT      O95836   7.428   5.137   1.425
31865WAT     H195837   7.478   5.191   1.358
31865WAT     H295838   7.491   5.074   1.471
31866WAT      O95839   3.568   5.782   4.621
31866WAT     H195840   3.514   5.866   4.614
31866WAT     H295841   3.571   5.737   4.532
31867WAT      O95842   3.286   1.166   6.424
31867WAT     H195843   3.344   1.089   6.397
31867WAT     H295844   3.327   1.213   6.502
31868WAT      O95845   8.363   6.596   6.144
31868WAT     H195846   8.380   6.590   6.045
31868WAT     H295847   8.265   6.587   6.162
31869WAT      O95848   0.490   0.276   9.391
31869WAT     H195849   0.576   0.321   9.367
31869WAT     H295850   0.508   0.182   9.418
31870WAT      O95851   4.377   4.200   5.766
31870WAT     H195852   4.356   4.230   5.673
31870WAT     H295853   4.409   4.277   5.820
31871WAT      O95854   9.105   8.944   5.335
31871WAT     H195855   9.077   8.901   5.421
31871WAT     H295856   9.024   8.984   5.291
31872WAT      O95857   7.359   7.752   1.325
31872WAT     H195858   7.260   7.766   1.321
31872WAT     H295859   7.382   7.665   1.280
31873WAT      O95860   2.724   4.826   5.312
31873WAT     H195861   2.743   4.849   5.217
31873WAT     H295862   2.647   4.762   5.316
31874WAT      O95863   1.596   2.134   0.203
31874WAT     H195864   1.552   2.065   0.260
31874WAT     H295865   1.637   2.205   0.261
31875WAT      O95866   1.948   5.679   2.562
31875WAT     H195867   1.912   5.586   2.565
31875WAT     H295868   2.048   5.676   2.569
31876WAT      O95869   4.660   8.059   3.630
31876WAT     H195870   4.657   7.963   3.658
31876WAT     H295871   4.593   8.111   3.682
31877WAT      O95872   1.736   4.945   4.548
31877WAT     H195873   1.676   4.988   4.480
31877WAT     H295874   1.687   4.871   4.595
31878WAT      O95875   7.220   9.752   0.995
31878WAT     H195876   7.147   9.732   0.930
31878WAT     H295877   7.188   9.820   1.060
31879WAT      O95878   7.903   4.340   4.377
31879WAT     H195879   7.917   4.292   4.291
31879WAT     H295880   7.986   4.390   4.401
31880WAT      O95881   9.849   7.494   6.306
31880WAT     H195882   9.774   7.475   6.243
31880WAT     H295883   9.871   7.591   6.304
31881WAT      O95884   6.087   2.660   2.069
31881WAT     H195885   6.128   2.731   2.011
31881WAT     H295886   6.070   2.578   2.014
31882WAT      O95887   4.994   4.393   7.643
31882WAT     H195888   4.993   4.425   7.737
31882WAT     H295889   5.088   4.372   7.616
31883WAT      O95890   1.739   0.637   0.001
31883WAT     H195891   1.645   0.604   0.013
31883WAT     H295892   1.751   0.721   0.054
31884WAT      O95893   9.165   2.623   7.606
31884WAT     H195894   9.215   2.682   7.671
31884WAT     H295895   9.122   2.680   7.536
31885WAT      O95896   3.848   4.347   2.824
31885WAT     H195897   3.902   4.385   2.898
31885WAT     H295898   3.760   4.394   2.819
31886WAT      O95899   1.894   8.548   1.227
31886WAT     H195900   1.925   8.491   1.303
31886WAT     H295901   1.827   8.615   1.261
31887WAT      O95902   6.943   4.058   4.321
31887WAT     H195903   6.900   4.009   4.246
31887WAT     H295904   6.898   4.147   4.334
31888WAT      O95905   7.230   6.604   6.009
31888WAT     H195906   7.325   6.584   6.034
31888WAT     H295907   7.196   6.679   6.067
31889WAT      O95908   8.218   7.075   4.781
31889WAT     H195909   8.219   7.151   4.717
31889WAT     H295910   8.310   7.037   4.790
31890WAT      O95911   6.788   0.779   8.899
31890WAT     H195912   6.809   0.767   8.802
31890WAT     H295913   6.872   0.804   8.947
31891WAT      O95914   2.830   7.223   6.441
31891WAT     H195915   2.762   7.249   6.373
31891WAT     H295916   2.787   7.164   6.510
31892WAT      O95917   8.625   9.278   1.585
31892WAT     H195918   8.702   9.337   1.564
31892WAT     H295919   8.541   9.332   1.585
31893WAT      O95920   1.546   2.268   2.766
31893WAT     H195921   1.538   2.368   2.761
31893WAT     H295922   1.476   2.226   2.708
31894WAT      O95923   4.957   7.755   8.810
31894WAT     H195924   4.888   7.704   8.759
31894WAT     H295925   4.916   7.838   8.847
31895WAT      O95926   8.961   2.389   7.485
31895WAT     H195927   8.900   2.310   7.486
31895WAT     H295928   9.055   2.360   7.505
31896WAT      O95929   2.387   5.104   3.563
31896WAT     H195930   2.372   5.062   3.653
31896WAT     H295931   2.475   5.075   3.527
31897WAT      O95932   2.543   3.217   5.594
31897WAT     H195933   2.535   3.126   5.633
31897WAT     H295934   2.459   3.269   5.612
31898WAT      O95935   1.248   6.477   0.819
31898WAT     H195936   1.338   6.446   0.850
31898WAT     H295937   1.258   6.532   0.736
31899WAT      O95938   4.634   8.515   8.363
31899WAT     H195939   4.560   8.459   8.327
31899WAT     H295940   4.710   8.456   8.390
   9.88928    9.84380    9.89279 
